                               Psi4 1.3.2 release

  ==> Input File <==

--------------------------------------------------------------------------
#psi4
#
memory 32 gb

molecule  {
0 1
  O       -0.1147700    -1.8002930     0.4548730
  O        0.3584290     1.3939840    -1.0246780
  O       -1.9551560     1.3713260     0.4690830
  O        2.7148150     0.4505790    -0.2056670
  O       -1.6716310    -0.8002260    -0.9984850
  C        0.4315910     1.0135520     0.3497470
  C       -0.7627464     0.3485419     0.8920686
  C        1.5345100    -0.0288940     0.4204030
  C       -1.2151430    -0.9364420     0.3397180
  C        1.0549700    -1.3167000    -0.2286510
  H        0.7042560     1.8874530     0.9605880
  H       -0.8818830     0.4322700     1.9353370
  H        1.7837760    -0.2316310     1.4680400
  H       -1.9939520    -1.3968640     0.9617720
  H        0.8436020    -1.1475360    -1.2899680
  H        1.8059140    -2.1013880    -0.1265130
  H       -0.3930520     2.0121160    -1.0836700
  H       -2.3417080     0.9766970    -0.3400740
  H        2.3997000     0.9352960    -0.9928030
  H       -1.9956420    -1.6762600    -1.2784950
units angstrom
no_reorient  #important for SAPT in psi4, default
symmetry c1  #important for SAPT in psi4, default
}

set PROPERTIES_ORIGIN ["COM"]
properties('MP2/aug-cc-pvtz', properties = ['dipole'])
--------------------------------------------------------------------------

    Molecular point group: c1
  Charge       = 0
  Multiplicity = 1
  Basis Set: AUG-CC-PVTZ
    Blend: AUG-CC-PVTZ
  Basis Set: (AUG-CC-PVTZ AUX)
    Blend: AUG-CC-PVTZ-JKFIT

    Orbital Energies [Eh]
    ---------------------

    Doubly Occupied:

       1A    -20.594876     2A    -20.581049     3A    -20.575678
       4A    -20.559578     5A    -20.551210     6A    -11.359197
       7A    -11.304873     8A    -11.297528     9A    -11.288378
      10A    -11.281726    11A     -1.442215    12A     -1.390825
      13A     -1.366053    14A     -1.352373    15A     -1.305334
      16A     -1.083002    17A     -1.034515    18A     -0.908482
      19A     -0.870312    20A     -0.802415    21A     -0.754609
      22A     -0.736610    23A     -0.712077    24A     -0.679732
      25A     -0.670464    26A     -0.644807    27A     -0.625584
      28A     -0.620241    29A     -0.599248    30A     -0.577991
      31A     -0.569140    32A     -0.546807    33A     -0.537138
      34A     -0.511954    35A     -0.504069    36A     -0.488477
      37A     -0.482903    38A     -0.474566    39A     -0.450129
      40A     -0.418755

  @DF-RHF Final Energy:  -569.63928106454603

   => Energetics <=

    Nuclear Repulsion Energy =            634.3255452728037653
    One-Electron Energy =               -2042.8198147357043126
    Two-Electron Energy =                 838.8549883983545215
    Total Energy =                       -569.6392810645460258
  Basis Set: (AUG-CC-PVTZ AUX)
    Blend: AUG-CC-PVTZ-RI
    Molecular point group: c1

    Geometry (in Angstrom), charge = 0, multiplicity = 1:

       Center              X                  Y                   Z               Mass
    ------------   -----------------  -----------------  -----------------  -----------------
         O           -0.126492811638    -1.790237966586     0.450714669634    15.994914619570
         O            0.346706188362     1.404039033414    -1.028836330366    15.994914619570
         O           -1.966878811638     1.381381033414     0.464924669634    15.994914619570
         O            2.703092188362     0.460634033414    -0.209825330366    15.994914619570
         O           -1.683353811638    -0.790170966586    -1.002643330366    15.994914619570
         C            0.419868188362     1.023607033414     0.345588669634    12.000000000000
         C           -0.774469211638     0.358596933414     0.887910269634    12.000000000000
         C            1.522787188362    -0.018838966586     0.416244669634    12.000000000000
         C           -1.226865811638    -0.926386966586     0.335559669634    12.000000000000
         C            1.043247188362    -1.306644966586    -0.232809330366    12.000000000000
         H            0.692533188362     1.897508033414     0.956429669634     1.007825032230
         H           -0.893605811638     0.442325033414     1.931178669634     1.007825032230
         H            1.772053188362    -0.221575966586     1.463881669634     1.007825032230
         H           -2.005674811638    -1.386808966586     0.957613669634     1.007825032230
         H            0.831879188362    -1.137480966586    -1.294126330366     1.007825032230
         H            1.794191188362    -2.091332966586    -0.130671330366     1.007825032230
         H           -0.404774811638     2.022171033414    -1.087828330366     1.007825032230
         H           -2.353430811638     0.986752033414    -0.344232330366     1.007825032230
         H            2.387977188362     0.945351033414    -0.996961330366     1.007825032230
         H           -2.007364811638    -1.666204966586    -1.282653330366     1.007825032230

  Basis Set: AUG-CC-PVTZ
    Blend: AUG-CC-PVTZ
  Basis Set: (AUG-CC-PVTZ AUX)
    Blend: AUG-CC-PVTZ-JKFIT
	 Reference Energy          =    -569.6392810645460258 [Eh]
	 Singles Energy            =      -0.0000000000000000 [Eh]
	 Same-Spin Energy          =      -0.5568314218754635 [Eh]
	 Opposite-Spin Energy      =      -1.7095688252444656 [Eh]
	 Correlation Energy        =      -2.2664002471199289 [Eh]
	 Total Energy              =    -571.9056813116659441 [Eh]

	 ================> DF-SCS-MP2 Energies <==================
	-----------------------------------------------------------
	 SCS Same-Spin Scale       =       0.3333333333333333 [-]
	 SCS Opposite-Spin Scale   =       1.2000000000000000 [-]
	 SCS Same-Spin Energy      =      -0.1856104739584878 [Eh]
	 SCS Opposite-Spin Energy  =      -2.0514825902933587 [Eh]
	 SCS Correlation Energy    =      -2.2370930642518463 [Eh]
	 SCS Total Energy          =    -571.8763741287979201 [Eh]
	-----------------------------------------------------------

  Dipole Moment: [D]
     X:    -1.7199      Y:    -1.3173      Z:    -0.1891     Total:     2.1746

*** Psi4 exiting successfully. Buy a developer a beer!
