                               Psi4 1.3.2 release

  ==> Input File <==

--------------------------------------------------------------------------
#psi4
#
memory 32 gb

molecule  {
0 1
  O       -0.1147700    -1.8002930     0.4548730
  O        0.3584290     1.3939840    -1.0246780
  O       -1.9551560     1.3713260     0.4690830
  O        2.7148150     0.4505790    -0.2056670
  O       -1.6716310    -0.8002260    -0.9984850
  C        0.4009529     0.9781043     0.3249105
  C       -0.9093320     0.4742750     0.8400700
  C        1.5345100    -0.0288940     0.4204030
  C       -1.2151430    -0.9364420     0.3397180
  C        1.0085344    -1.2931723    -0.2388573
  H        0.7042560     1.8874530     0.9605880
  H       -0.8818830     0.4322700     1.9353370
  H        1.7837760    -0.2316310     1.4680400
  H       -1.9939520    -1.3968640     0.9617720
  H        0.8436020    -1.1475360    -1.2899680
  H        1.8059140    -2.1013880    -0.1265130
  H       -0.3930520     2.0121160    -1.0836700
  H       -2.3417080     0.9766970    -0.3400740
  H        2.3997000     0.9352960    -0.9928030
  H       -1.9956420    -1.6762600    -1.2784950
units angstrom
no_reorient  #important for SAPT in psi4, default
symmetry c1  #important for SAPT in psi4, default
}

set PROPERTIES_ORIGIN ["COM"]
properties('MP2/aug-cc-pvtz', properties = ['dipole'])
--------------------------------------------------------------------------

    Molecular point group: c1
  Charge       = 0
  Multiplicity = 1
  Basis Set: AUG-CC-PVTZ
    Blend: AUG-CC-PVTZ
  Basis Set: (AUG-CC-PVTZ AUX)
    Blend: AUG-CC-PVTZ-JKFIT

    Orbital Energies [Eh]
    ---------------------

    Doubly Occupied:

       1A    -20.593762     2A    -20.585404     3A    -20.576150
       4A    -20.573323     5A    -20.559813     6A    -11.354580
       7A    -11.298893     8A    -11.291917     9A    -11.285527
      10A    -11.277584    11A     -1.445402    12A     -1.396743
      13A     -1.379344    14A     -1.358307    15A     -1.350397
      16A     -1.064740    17A     -1.024299    18A     -0.894133
      19A     -0.873394    20A     -0.802035    21A     -0.756176
      22A     -0.725643    23A     -0.715397    24A     -0.698450
      25A     -0.673450    26A     -0.649423    27A     -0.625639
      28A     -0.615512    29A     -0.602963    30A     -0.583525
      31A     -0.572817    32A     -0.549941    33A     -0.546068
      34A     -0.518893    35A     -0.502264    36A     -0.491970
      37A     -0.490163    38A     -0.471056    39A     -0.444333
      40A     -0.408547

  @DF-RHF Final Energy:  -569.66692468571887

   => Energetics <=

    Nuclear Repulsion Energy =            635.6652303438835361
    One-Electron Energy =               -2045.4083502729440625
    Two-Electron Energy =                 840.0761952433415445
    Total Energy =                       -569.6669246857188682
  Basis Set: (AUG-CC-PVTZ AUX)
    Blend: AUG-CC-PVTZ-RI
    Molecular point group: c1

    Geometry (in Angstrom), charge = 0, multiplicity = 1:

       Center              X                  Y                   Z               Mass
    ------------   -----------------  -----------------  -----------------  -----------------
         O           -0.108606366459    -1.799339809317     0.457675530324    15.994914619570
         O            0.364592633541     1.394937190683    -1.021875469676    15.994914619570
         O           -1.948992366459     1.372279190683     0.471885530324    15.994914619570
         O            2.720978633541     0.451532190683    -0.202864469676    15.994914619570
         O           -1.665467366459    -0.799272809317    -0.995682469676    15.994914619570
         C            0.407116533541     0.979057490683     0.327713030324    12.000000000000
         C           -0.903168366459     0.475228190683     0.842872530324    12.000000000000
         C            1.540673633541    -0.027940809317     0.423205530324    12.000000000000
         C           -1.208979366459    -0.935488809317     0.342520530324    12.000000000000
         C            1.014698033541    -1.292219109317    -0.236054769676    12.000000000000
         H            0.710419633541     1.888406190683     0.963390530324     1.007825032230
         H           -0.875719366459     0.433223190683     1.938139530324     1.007825032230
         H            1.789939633541    -0.230677809317     1.470842530324     1.007825032230
         H           -1.987788366459    -1.395910809317     0.964574530324     1.007825032230
         H            0.849765633541    -1.146582809317    -1.287165469676     1.007825032230
         H            1.812077633541    -2.100434809317    -0.123710469676     1.007825032230
         H           -0.386888366459     2.013069190683    -1.080867469676     1.007825032230
         H           -2.335544366459     0.977650190683    -0.337271469676     1.007825032230
         H            2.405863633541     0.936249190683    -0.990000469676     1.007825032230
         H           -1.989478366459    -1.675306809317    -1.275692469676     1.007825032230

  Basis Set: AUG-CC-PVTZ
    Blend: AUG-CC-PVTZ
  Basis Set: (AUG-CC-PVTZ AUX)
    Blend: AUG-CC-PVTZ-JKFIT
	 Reference Energy          =    -569.6669246857188682 [Eh]
	 Singles Energy            =      -0.0000000000000000 [Eh]
	 Same-Spin Energy          =      -0.5554006842446674 [Eh]
	 Opposite-Spin Energy      =      -1.7046165565273994 [Eh]
	 Correlation Energy        =      -2.2600172407720667 [Eh]
	 Total Energy              =    -571.9269419264909402 [Eh]

	 ================> DF-SCS-MP2 Energies <==================
	-----------------------------------------------------------
	 SCS Same-Spin Scale       =       0.3333333333333333 [-]
	 SCS Opposite-Spin Scale   =       1.2000000000000000 [-]
	 SCS Same-Spin Energy      =      -0.1851335614148891 [Eh]
	 SCS Opposite-Spin Energy  =      -2.0455398678328791 [Eh]
	 SCS Correlation Energy    =      -2.2306734292477683 [Eh]
	 SCS Total Energy          =    -571.8975981149666268 [Eh]
	-----------------------------------------------------------

  Dipole Moment: [D]
     X:    -2.3235      Y:    -1.0249      Z:    -0.3647     Total:     2.5656

*** Psi4 exiting successfully. Buy a developer a beer!
