                               Psi4 1.3.2 release

  ==> Input File <==

--------------------------------------------------------------------------
#psi4
#
memory 32 gb

molecule  {
0 1
  O       -0.1147700    -1.8002930     0.4548730
  O        0.3584290     1.3939840    -1.0246780
  O       -1.9551560     1.3713260     0.4690830
  O        2.7148150     0.4505790    -0.2056670
  O       -1.6607729    -0.7951292    -1.0016127
  C        0.4315910     1.0135520     0.3497470
  C       -0.9093320     0.4742750     0.8400700
  C        1.5345100    -0.0288940     0.4204030
  C       -1.2151430    -0.9364420     0.3397180
  C        1.0549700    -1.3167000    -0.2286510
  H        0.7042560     1.8874530     0.9605880
  H       -0.8818830     0.4322700     1.9353370
  H        1.7837760    -0.2316310     1.4680400
  H       -1.9881341    -1.3963440     0.9693670
  H        0.8436020    -1.1475360    -1.2899680
  H        1.8059140    -2.1013880    -0.1265130
  H       -0.3930520     2.0121160    -1.0836700
  H       -2.3417080     0.9766970    -0.3400740
  H        2.3997000     0.9352960    -0.9928030
  H       -1.9956420    -1.6762600    -1.2784950
units angstrom
no_reorient  #important for SAPT in psi4, default
symmetry c1  #important for SAPT in psi4, default
}

set PROPERTIES_ORIGIN ["COM"]
properties('MP2/aug-cc-pvtz', properties = ['dipole'])
--------------------------------------------------------------------------

    Molecular point group: c1
  Charge       = 0
  Multiplicity = 1
  Basis Set: AUG-CC-PVTZ
    Blend: AUG-CC-PVTZ
  Basis Set: (AUG-CC-PVTZ AUX)
    Blend: AUG-CC-PVTZ-JKFIT

    Orbital Energies [Eh]
    ---------------------

    Doubly Occupied:

       1A    -20.592803     2A    -20.580402     3A    -20.574569
       4A    -20.570993     5A    -20.558096     6A    -11.353814
       7A    -11.298054     8A    -11.290844     9A    -11.285460
      10A    -11.277857    11A     -1.438480    12A     -1.391293
      13A     -1.375475    14A     -1.353110    15A     -1.347585
      16A     -1.058860    17A     -1.022766    18A     -0.898205
      19A     -0.869757    20A     -0.797835    21A     -0.752153
      22A     -0.726889    23A     -0.711897    24A     -0.695796
      25A     -0.669517    26A     -0.645848    27A     -0.620850
      28A     -0.613920    29A     -0.602566    30A     -0.584205
      31A     -0.572014    32A     -0.555697    33A     -0.542653
      34A     -0.515994    35A     -0.503082    36A     -0.490912
      37A     -0.487322    38A     -0.471465    39A     -0.440519
      40A     -0.415539

  @DF-RHF Final Energy:  -569.67381263674940

   => Energetics <=

    Nuclear Repulsion Energy =            633.9799168250426646
    One-Electron Energy =               -2042.1972722990892635
    Two-Electron Energy =                 838.5435428372971955
    Total Energy =                       -569.6738126367494033
  Basis Set: (AUG-CC-PVTZ AUX)
    Blend: AUG-CC-PVTZ-RI
    Molecular point group: c1

    Geometry (in Angstrom), charge = 0, multiplicity = 1:

       Center              X                  Y                   Z               Mass
    ------------   -----------------  -----------------  -----------------  -----------------
         O           -0.115966589230    -1.800839860730     0.455155479531    15.994914619570
         O            0.357232410770     1.393437139270    -1.024395520469    15.994914619570
         O           -1.956352589230     1.370779139270     0.469365479531    15.994914619570
         O            2.713618410770     0.450032139270    -0.205384520469    15.994914619570
         O           -1.661969489230    -0.795676060730    -1.001330220469    15.994914619570
         C            0.430394410770     1.013005139270     0.350029479531    12.000000000000
         C           -0.910528589230     0.473728139270     0.840352479531    12.000000000000
         C            1.533313410770    -0.029440860730     0.420685479531    12.000000000000
         C           -1.216339589230    -0.936988860730     0.340000479531    12.000000000000
         C            1.053773410770    -1.317246860730    -0.228368520469    12.000000000000
         H            0.703059410770     1.886906139270     0.960870479531     1.007825032230
         H           -0.883079589230     0.431723139270     1.935619479531     1.007825032230
         H            1.782579410770    -0.232177860730     1.468322479531     1.007825032230
         H           -1.989330689230    -1.396890860730     0.969649479531     1.007825032230
         H            0.842405410770    -1.148082860730    -1.289685520469     1.007825032230
         H            1.804717410770    -2.101934860730    -0.126230520469     1.007825032230
         H           -0.394248589230     2.011569139270    -1.083387520469     1.007825032230
         H           -2.342904589230     0.976150139270    -0.339791520469     1.007825032230
         H            2.398503410770     0.934749139270    -0.992520520469     1.007825032230
         H           -1.996838589230    -1.676806860730    -1.278212520469     1.007825032230

  Basis Set: AUG-CC-PVTZ
    Blend: AUG-CC-PVTZ
  Basis Set: (AUG-CC-PVTZ AUX)
    Blend: AUG-CC-PVTZ-JKFIT
	 Reference Energy          =    -569.6738126367494033 [Eh]
	 Singles Energy            =      -0.0000000000000000 [Eh]
	 Same-Spin Energy          =      -0.5547862436969144 [Eh]
	 Opposite-Spin Energy      =      -1.7042823780423113 [Eh]
	 Correlation Energy        =      -2.2590686217392255 [Eh]
	 Total Energy              =    -571.9328812584885782 [Eh]

	 ================> DF-SCS-MP2 Energies <==================
	-----------------------------------------------------------
	 SCS Same-Spin Scale       =       0.3333333333333333 [-]
	 SCS Opposite-Spin Scale   =       1.2000000000000000 [-]
	 SCS Same-Spin Energy      =      -0.1849287478989715 [Eh]
	 SCS Opposite-Spin Energy  =      -2.0451388536507733 [Eh]
	 SCS Correlation Energy    =      -2.2300676015497447 [Eh]
	 SCS Total Energy          =    -571.9038802382991662 [Eh]
	-----------------------------------------------------------

  Dipole Moment: [D]
     X:    -2.2099      Y:    -1.0024      Z:    -0.2989     Total:     2.4449

*** Psi4 exiting successfully. Buy a developer a beer!
