                               Psi4 1.3.2 release

  ==> Input File <==

--------------------------------------------------------------------------
#psi4
#
memory 32 gb

molecule  {
0 1
  O       -0.1147700    -1.8002930     0.4548730
  O        0.3584290     1.3939840    -1.0246780
  O       -1.9551560     1.3713260     0.4690830
  O        2.7148150     0.4505790    -0.2056670
  O       -1.6716310    -0.8002260    -0.9984850
  C        0.4315910     1.0135520     0.3497470
  C       -0.9093320     0.4742750     0.8400700
  C        1.5345100    -0.0288940     0.4204030
  C       -1.2151430    -0.9364420     0.3397180
  C        1.0549700    -1.3167000    -0.2286510
  H        0.7042560     1.8874530     0.9605880
  H       -0.8818830     0.4322700     1.9353370
  H        1.7837760    -0.2316310     1.4680400
  H       -1.9939520    -1.3968640     0.9617720
  H        0.8436020    -1.1475360    -1.2899680
  H        1.8059140    -2.1013880    -0.1265130
  H       -0.3930520     2.0121160    -1.0836700
  H       -2.3417080     0.9766970    -0.3400740
  H        2.4642302     0.8360341    -0.8316108
  H       -1.9956420    -1.6762600    -1.2784950
units angstrom
no_reorient  #important for SAPT in psi4, default
symmetry c1  #important for SAPT in psi4, default
}

set PROPERTIES_ORIGIN ["COM"]
properties('MP2/aug-cc-pvtz', properties = ['dipole'])
--------------------------------------------------------------------------

    Molecular point group: c1
  Charge       = 0
  Multiplicity = 1
  Basis Set: AUG-CC-PVTZ
    Blend: AUG-CC-PVTZ
  Basis Set: (AUG-CC-PVTZ AUX)
    Blend: AUG-CC-PVTZ-JKFIT

    Orbital Energies [Eh]
    ---------------------

    Doubly Occupied:

       1A    -20.591935     2A    -20.581966     3A    -20.574965
       4A    -20.569126     5A    -20.540918     6A    -11.354494
       7A    -11.298981     8A    -11.291936     9A    -11.288531
      10A    -11.279898    11A     -1.441159    12A     -1.426599
      13A     -1.385580    14A     -1.363707    15A     -1.352694
      16A     -1.066038    17A     -1.027611    18A     -0.899874
      19A     -0.881405    20A     -0.809321    21A     -0.754030
      22A     -0.733206    23A     -0.713510    24A     -0.701965
      25A     -0.682046    26A     -0.654385    27A     -0.624260
      28A     -0.616648    29A     -0.603871    30A     -0.588197
      31A     -0.574491    32A     -0.560883    33A     -0.544147
      34A     -0.519828    35A     -0.504242    36A     -0.492608
      37A     -0.491282    38A     -0.474195    39A     -0.442830
      40A     -0.418351

  @DF-RHF Final Energy:  -569.63005824054721

   => Energetics <=

    Nuclear Repulsion Energy =            635.0734988081605934
    One-Electron Energy =               -2043.9636885174195413
    Two-Electron Energy =                 839.2601314687117338
    Total Energy =                       -569.6300582405472142
  Basis Set: (AUG-CC-PVTZ AUX)
    Blend: AUG-CC-PVTZ-RI
    Molecular point group: c1

    Geometry (in Angstrom), charge = 0, multiplicity = 1:

       Center              X                  Y                   Z               Mass
    ------------   -----------------  -----------------  -----------------  -----------------
         O           -0.115203506909    -1.799626384214     0.453790450918    15.994914619570
         O            0.357995493091     1.394650615786    -1.025760549082    15.994914619570
         O           -1.955589506909     1.371992615786     0.468000450918    15.994914619570
         O            2.714381493091     0.451245615786    -0.206749549082    15.994914619570
         O           -1.672064506909    -0.799559384214    -0.999567549082    15.994914619570
         C            0.431157493091     1.014218615786     0.348664450918    12.000000000000
         C           -0.909765506909     0.474941615786     0.838987450918    12.000000000000
         C            1.534076493091    -0.028227384214     0.419320450918    12.000000000000
         C           -1.215576506909    -0.935775384214     0.338635450918    12.000000000000
         C            1.054536493091    -1.316033384214    -0.229733549082    12.000000000000
         H            0.703822493091     1.888119615786     0.959505450918     1.007825032230
         H           -0.882316506909     0.432936615786     1.934254450918     1.007825032230
         H            1.783342493091    -0.230964384214     1.466957450918     1.007825032230
         H           -1.994385506909    -1.396197384214     0.960689450918     1.007825032230
         H            0.843168493091    -1.146869384214    -1.291050549082     1.007825032230
         H            1.805480493091    -2.100721384214    -0.127595549082     1.007825032230
         H           -0.393485506909     2.012782615786    -1.084752549082     1.007825032230
         H           -2.342141506909     0.977363615786    -0.341156549082     1.007825032230
         H            2.463796693091     0.836700715786    -0.832693349082     1.007825032230
         H           -1.996075506909    -1.675593384214    -1.279577549082     1.007825032230

  Basis Set: AUG-CC-PVTZ
    Blend: AUG-CC-PVTZ
  Basis Set: (AUG-CC-PVTZ AUX)
    Blend: AUG-CC-PVTZ-JKFIT
	 Reference Energy          =    -569.6300582405472142 [Eh]
	 Singles Energy            =      -0.0000000000000000 [Eh]
	 Same-Spin Energy          =      -0.5519984018610892 [Eh]
	 Opposite-Spin Energy      =      -1.6983014002797263 [Eh]
	 Correlation Energy        =      -2.2502998021408156 [Eh]
	 Total Energy              =    -571.8803580426880444 [Eh]

	 ================> DF-SCS-MP2 Energies <==================
	-----------------------------------------------------------
	 SCS Same-Spin Scale       =       0.3333333333333333 [-]
	 SCS Opposite-Spin Scale   =       1.2000000000000000 [-]
	 SCS Same-Spin Energy      =      -0.1839994672870297 [Eh]
	 SCS Opposite-Spin Energy  =      -2.0379616803356715 [Eh]
	 SCS Correlation Energy    =      -2.2219611476227010 [Eh]
	 SCS Total Energy          =    -571.8520193881698788 [Eh]
	-----------------------------------------------------------

  Dipole Moment: [D]
     X:    -2.1513      Y:    -1.1284      Z:    -0.1332     Total:     2.4329

*** Psi4 exiting successfully. Buy a developer a beer!
