                               Psi4 1.3.2 release

  ==> Input File <==

--------------------------------------------------------------------------
#psi4
#
memory 32 gb

molecule  {
0 1
  O       -0.1147700    -1.8002930     0.4548730
  O        0.3584290     1.3939840    -1.0246780
  O       -1.9551560     1.3713260     0.4690830
  O        2.7148150     0.4505790    -0.2056670
  O       -1.6716310    -0.8002260    -0.9984850
  C        0.4315910     1.0135520     0.3497470
  C       -0.9093320     0.4742750     0.8400700
  C        1.4513606    -0.0626716     0.4645080
  C       -1.2151430    -0.9364420     0.3397180
  C        1.0549700    -1.3167000    -0.2286510
  H        0.7042560     1.8874530     0.9605880
  H       -0.8818830     0.4322700     1.9353370
  H        1.7837760    -0.2316310     1.4680400
  H       -1.9939520    -1.3968640     0.9617720
  H        0.8436020    -1.1475360    -1.2899680
  H        1.8059140    -2.1013880    -0.1265130
  H       -0.3930520     2.0121160    -1.0836700
  H       -2.3417080     0.9766970    -0.3400740
  H        2.3997000     0.9352960    -0.9928030
  H       -1.9956420    -1.6762600    -1.2784950
units angstrom
no_reorient  #important for SAPT in psi4, default
symmetry c1  #important for SAPT in psi4, default
}

set PROPERTIES_ORIGIN ["COM"]
properties('MP2/aug-cc-pvtz', properties = ['dipole'])
--------------------------------------------------------------------------

    Molecular point group: c1
  Charge       = 0
  Multiplicity = 1
  Basis Set: AUG-CC-PVTZ
    Blend: AUG-CC-PVTZ
  Basis Set: (AUG-CC-PVTZ AUX)
    Blend: AUG-CC-PVTZ-JKFIT

    Orbital Energies [Eh]
    ---------------------

    Doubly Occupied:

       1A    -20.593114     2A    -20.581079     3A    -20.575106
       4A    -20.572826     5A    -20.547255     6A    -11.355616
       7A    -11.299228     8A    -11.293550     9A    -11.286311
      10A    -11.281392    11A     -1.441016    12A     -1.390385
      13A     -1.372470    14A     -1.354774    15A     -1.319579
      16A     -1.070805    17A     -1.028679    18A     -0.903615
      19A     -0.870843    20A     -0.798516    21A     -0.753839
      22A     -0.729610    23A     -0.713234    24A     -0.694737
      25A     -0.665928    26A     -0.641442    27A     -0.621638
      28A     -0.615794    29A     -0.601866    30A     -0.585357
      31A     -0.565680    32A     -0.548693    33A     -0.540231
      34A     -0.520024    35A     -0.503564    36A     -0.490071
      37A     -0.483798    38A     -0.478399    39A     -0.441752
      40A     -0.421885

  @DF-RHF Final Energy:  -569.66369087196006

   => Energetics <=

    Nuclear Repulsion Energy =            634.3161715478478300
    One-Electron Energy =               -2042.8523251744913978
    Two-Electron Energy =                 838.8724627546836246
    Total Energy =                       -569.6636908719600569
  Basis Set: (AUG-CC-PVTZ AUX)
    Blend: AUG-CC-PVTZ-RI
    Molecular point group: c1

    Geometry (in Angstrom), charge = 0, multiplicity = 1:

       Center              X                  Y                   Z               Mass
    ------------   -----------------  -----------------  -----------------  -----------------
         O           -0.108120481567    -1.797591816883     0.451345935330    15.994914619570
         O            0.365078518433     1.396685183117    -1.028205064670    15.994914619570
         O           -1.948506481567     1.374027183117     0.465555935330    15.994914619570
         O            2.721464518433     0.453280183117    -0.209194064670    15.994914619570
         O           -1.664981481567    -0.797524816883    -1.002012064670    15.994914619570
         C            0.438240518433     1.016253183117     0.346219935330    12.000000000000
         C           -0.902682481567     0.476976183117     0.836542935330    12.000000000000
         C            1.458010118433    -0.059970416883     0.460980935330    12.000000000000
         C           -1.208493481567    -0.933740816883     0.336190935330    12.000000000000
         C            1.061619518433    -1.313998816883    -0.232178064670    12.000000000000
         H            0.710905518433     1.890154183117     0.957060935330     1.007825032230
         H           -0.875233481567     0.434971183117     1.931809935330     1.007825032230
         H            1.790425518433    -0.228929816883     1.464512935330     1.007825032230
         H           -1.987302481567    -1.394162816883     0.958244935330     1.007825032230
         H            0.850251518433    -1.144834816883    -1.293495064670     1.007825032230
         H            1.812563518433    -2.098686816883    -0.130040064670     1.007825032230
         H           -0.386402481567     2.014817183117    -1.087197064670     1.007825032230
         H           -2.335058481567     0.979398183117    -0.343601064670     1.007825032230
         H            2.406349518433     0.937997183117    -0.996330064670     1.007825032230
         H           -1.988992481567    -1.673558816883    -1.282022064670     1.007825032230

  Basis Set: AUG-CC-PVTZ
    Blend: AUG-CC-PVTZ
  Basis Set: (AUG-CC-PVTZ AUX)
    Blend: AUG-CC-PVTZ-JKFIT
	 Reference Energy          =    -569.6636908719600569 [Eh]
	 Singles Energy            =      -0.0000000000000000 [Eh]
	 Same-Spin Energy          =      -0.5553994330717000 [Eh]
	 Opposite-Spin Energy      =      -1.7061934281599251 [Eh]
	 Correlation Energy        =      -2.2615928612316250 [Eh]
	 Total Energy              =    -571.9252837331916908 [Eh]

	 ================> DF-SCS-MP2 Energies <==================
	-----------------------------------------------------------
	 SCS Same-Spin Scale       =       0.3333333333333333 [-]
	 SCS Opposite-Spin Scale   =       1.2000000000000000 [-]
	 SCS Same-Spin Energy      =      -0.1851331443572333 [Eh]
	 SCS Opposite-Spin Energy  =      -2.0474321137919103 [Eh]
	 SCS Correlation Energy    =      -2.2325652581491435 [Eh]
	 SCS Total Energy          =    -571.8962561301092364 [Eh]
	-----------------------------------------------------------

  Dipole Moment: [D]
     X:    -2.4491      Y:    -1.1366      Z:    -0.1869     Total:     2.7064

*** Psi4 exiting successfully. Buy a developer a beer!
