                               Psi4 1.3.2 release

  ==> Input File <==

--------------------------------------------------------------------------
#psi4
#
memory 32 gb

molecule  {
0 1
  O       -0.1147700    -1.8002930     0.4548730
  O        0.3584290     1.3939840    -1.0246780
  O       -1.9551560     1.3713260     0.4690830
  O        2.7148150     0.4505790    -0.2056670
  O       -1.6716310    -0.8002260    -0.9984850
  C        0.4315910     1.0135520     0.3497470
  C       -0.9093320     0.4742750     0.8400700
  C        1.5294461    -0.0044979     0.3735717
  C       -1.2151430    -0.9364420     0.3397180
  C        1.0549700    -1.3167000    -0.2286510
  H        0.7042560     1.8874530     0.9605880
  H       -0.8818830     0.4322700     1.9353370
  H        1.7837760    -0.2316310     1.4680400
  H       -1.9939520    -1.3968640     0.9617720
  H        0.8538744    -1.1109828    -1.2854990
  H        1.8059140    -2.1013880    -0.1265130
  H       -0.3930520     2.0121160    -1.0836700
  H       -2.3417080     0.9766970    -0.3400740
  H        2.3997000     0.9352960    -0.9928030
  H       -1.9956420    -1.6762600    -1.2784950
units angstrom
no_reorient  #important for SAPT in psi4, default
symmetry c1  #important for SAPT in psi4, default
}

set PROPERTIES_ORIGIN ["COM"]
properties('MP2/aug-cc-pvtz', properties = ['dipole'])
--------------------------------------------------------------------------

    Molecular point group: c1
  Charge       = 0
  Multiplicity = 1
  Basis Set: AUG-CC-PVTZ
    Blend: AUG-CC-PVTZ
  Basis Set: (AUG-CC-PVTZ AUX)
    Blend: AUG-CC-PVTZ-JKFIT

    Orbital Energies [Eh]
    ---------------------

    Doubly Occupied:

       1A    -20.591701     2A    -20.581716     3A    -20.575502
       4A    -20.571160     5A    -20.562464     6A    -11.354204
       7A    -11.299280     8A    -11.290356     9A    -11.286262
      10A    -11.277633    11A     -1.439066    12A     -1.395395
      13A     -1.379435    14A     -1.356241    15A     -1.352031
      16A     -1.060658    17A     -1.022622    18A     -0.900893
      19A     -0.869611    20A     -0.796144    21A     -0.752559
      22A     -0.729563    23A     -0.713713    24A     -0.698006
      25A     -0.670840    26A     -0.645659    27A     -0.622705
      28A     -0.615482    29A     -0.603668    30A     -0.581265
      31A     -0.573873    32A     -0.561247    33A     -0.543611
      34A     -0.512894    35A     -0.503308    36A     -0.492839
      37A     -0.487428    38A     -0.467150    39A     -0.443461
      40A     -0.414049

  @DF-RHF Final Energy:  -569.67007878402762

   => Energetics <=

    Nuclear Repulsion Energy =            634.5270352271336378
    One-Electron Energy =               -2043.2028464765667195
    Two-Electron Energy =                 839.0057324654054582
    Total Energy =                       -569.6700787840276234
  Basis Set: (AUG-CC-PVTZ AUX)
    Blend: AUG-CC-PVTZ-RI
    Molecular point group: c1

    Geometry (in Angstrom), charge = 0, multiplicity = 1:

       Center              X                  Y                   Z               Mass
    ------------   -----------------  -----------------  -----------------  -----------------
         O           -0.114434116727    -1.802489582971     0.458588262433    15.994914619570
         O            0.358764883273     1.391787417029    -1.020962737567    15.994914619570
         O           -1.954820116727     1.369129417029     0.472798262433    15.994914619570
         O            2.715150883273     0.448382417029    -0.201951737567    15.994914619570
         O           -1.671295116727    -0.802422582971    -0.994769737567    15.994914619570
         C            0.431926883273     1.011355417029     0.353462262433    12.000000000000
         C           -0.908996116727     0.472078417029     0.843785262433    12.000000000000
         C            1.529781983273    -0.006694482971     0.377286962433    12.000000000000
         C           -1.214807116727    -0.938638582971     0.343433262433    12.000000000000
         C            1.055305883273    -1.318896582971    -0.224935737567    12.000000000000
         H            0.704591883273     1.885256417029     0.964303262433     1.007825032230
         H           -0.881547116727     0.430073417029     1.939052262433     1.007825032230
         H            1.784111883273    -0.233827582971     1.471755262433     1.007825032230
         H           -1.993616116727    -1.399060582971     0.965487262433     1.007825032230
         H            0.854210283273    -1.113179382971    -1.281783737567     1.007825032230
         H            1.806249883273    -2.103584582971    -0.122797737567     1.007825032230
         H           -0.392716116727     2.009919417029    -1.079954737567     1.007825032230
         H           -2.341372116727     0.974500417029    -0.336358737567     1.007825032230
         H            2.400035883273     0.933099417029    -0.989087737567     1.007825032230
         H           -1.995306116727    -1.678456582971    -1.274779737567     1.007825032230

  Basis Set: AUG-CC-PVTZ
    Blend: AUG-CC-PVTZ
  Basis Set: (AUG-CC-PVTZ AUX)
    Blend: AUG-CC-PVTZ-JKFIT
	 Reference Energy          =    -569.6700787840276234 [Eh]
	 Singles Energy            =      -0.0000000000000000 [Eh]
	 Same-Spin Energy          =      -0.5550741418935439 [Eh]
	 Opposite-Spin Energy      =      -1.7044360828085889 [Eh]
	 Correlation Energy        =      -2.2595102247021330 [Eh]
	 Total Energy              =    -571.9295890087297494 [Eh]

	 ================> DF-SCS-MP2 Energies <==================
	-----------------------------------------------------------
	 SCS Same-Spin Scale       =       0.3333333333333333 [-]
	 SCS Opposite-Spin Scale   =       1.2000000000000000 [-]
	 SCS Same-Spin Energy      =      -0.1850247139645146 [Eh]
	 SCS Opposite-Spin Energy  =      -2.0453232993703065 [Eh]
	 SCS Correlation Energy    =      -2.2303480133348210 [Eh]
	 SCS Total Energy          =    -571.9004267973624565 [Eh]
	-----------------------------------------------------------

  Dipole Moment: [D]
     X:    -2.1623      Y:    -0.9240      Z:    -0.3748     Total:     2.3812

*** Psi4 exiting successfully. Buy a developer a beer!
