                               Psi4 1.3.2 release

  ==> Input File <==

--------------------------------------------------------------------------
#psi4
#
memory 32 gb

molecule  {
0 1
  O       -0.1147700    -1.8002930     0.4548730
  O        0.3584290     1.3939840    -1.0246780
  O       -1.9551560     1.3713260     0.4690830
  O        2.7148150     0.4505790    -0.2056670
  O       -1.6716310    -0.8002260    -0.9984850
  C        0.4315910     1.0135520     0.3497470
  C       -0.9081904     0.4552111     0.8215013
  C        1.5345100    -0.0288940     0.4204030
  C       -1.2151430    -0.9364420     0.3397180
  C        1.0549700    -1.3167000    -0.2286510
  H        0.7204189     1.8893327     0.9503820
  H       -0.8818830     0.4322700     1.9353370
  H        1.7837760    -0.2316310     1.4680400
  H       -1.9939520    -1.3968640     0.9617720
  H        0.8436020    -1.1475360    -1.2899680
  H        1.8059140    -2.1013880    -0.1265130
  H       -0.3930520     2.0121160    -1.0836700
  H       -2.3417080     0.9766970    -0.3400740
  H        2.3997000     0.9352960    -0.9928030
  H       -1.9956420    -1.6762600    -1.2784950
units angstrom
no_reorient  #important for SAPT in psi4, default
symmetry c1  #important for SAPT in psi4, default
}

set PROPERTIES_ORIGIN ["COM"]
properties('MP2/aug-cc-pvtz', properties = ['dipole'])
--------------------------------------------------------------------------

    Molecular point group: c1
  Charge       = 0
  Multiplicity = 1
  Basis Set: AUG-CC-PVTZ
    Blend: AUG-CC-PVTZ
  Basis Set: (AUG-CC-PVTZ AUX)
    Blend: AUG-CC-PVTZ-JKFIT

    Orbital Energies [Eh]
    ---------------------

    Doubly Occupied:

       1A    -20.591822     2A    -20.581343     3A    -20.574634
       4A    -20.570583     5A    -20.558367     6A    -11.354100
       7A    -11.299017     8A    -11.291559     9A    -11.285516
      10A    -11.278441    11A     -1.439879    12A     -1.391078
      13A     -1.375104    14A     -1.353929    15A     -1.347412
      16A     -1.060010    17A     -1.025523    18A     -0.901361
      19A     -0.868590    20A     -0.797581    21A     -0.753403
      22A     -0.727816    23A     -0.713146    24A     -0.694101
      25A     -0.669428    26A     -0.645650    27A     -0.621504
      28A     -0.615020    29A     -0.601780    30A     -0.583578
      31A     -0.571237    32A     -0.557381    33A     -0.541219
      34A     -0.515300    35A     -0.503204    36A     -0.492374
      37A     -0.487853    38A     -0.472079    39A     -0.440377
      40A     -0.418102

  @DF-RHF Final Energy:  -569.67302297081517

   => Energetics <=

    Nuclear Repulsion Energy =            634.2119298080348244
    One-Electron Energy =               -2042.6291012862589014
    Two-Electron Energy =                 838.7441485074090224
    Total Energy =                       -569.6730229708151683
  Basis Set: (AUG-CC-PVTZ AUX)
    Blend: AUG-CC-PVTZ-RI
    Molecular point group: c1

    Geometry (in Angstrom), charge = 0, multiplicity = 1:

       Center              X                  Y                   Z               Mass
    ------------   -----------------  -----------------  -----------------  -----------------
         O           -0.114969945321    -1.798781123453     0.456426614553    15.994914619570
         O            0.358229054679     1.395495876547    -1.023124385447    15.994914619570
         O           -1.955355945321     1.372837876547     0.470636614553    15.994914619570
         O            2.714615054679     0.452090876547    -0.204113385447    15.994914619570
         O           -1.671830945321    -0.798714123453    -0.996931385447    15.994914619570
         C            0.431391054679     1.015063876547     0.351300614553    12.000000000000
         C           -0.908390345321     0.456722976547     0.823054914553    12.000000000000
         C            1.534310054679    -0.027382123453     0.421956614553    12.000000000000
         C           -1.215342945321    -0.934930123453     0.341271614553    12.000000000000
         C            1.054770054679    -1.315188123453    -0.227097385447    12.000000000000
         H            0.720218954679     1.890844576547     0.951935614553     1.007825032230
         H           -0.882082945321     0.433781876547     1.936890614553     1.007825032230
         H            1.783576054679    -0.230119123453     1.469593614553     1.007825032230
         H           -1.994151945321    -1.395352123453     0.963325614553     1.007825032230
         H            0.843402054679    -1.146024123453    -1.288414385447     1.007825032230
         H            1.805714054679    -2.099876123453    -0.124959385447     1.007825032230
         H           -0.393251945321     2.013627876547    -1.082116385447     1.007825032230
         H           -2.341907945321     0.978208876547    -0.338520385447     1.007825032230
         H            2.399500054679     0.936807876547    -0.991249385447     1.007825032230
         H           -1.995841945321    -1.674748123453    -1.276941385447     1.007825032230

  Basis Set: AUG-CC-PVTZ
    Blend: AUG-CC-PVTZ
  Basis Set: (AUG-CC-PVTZ AUX)
    Blend: AUG-CC-PVTZ-JKFIT
	 Reference Energy          =    -569.6730229708151683 [Eh]
	 Singles Energy            =      -0.0000000000000000 [Eh]
	 Same-Spin Energy          =      -0.5548644388835986 [Eh]
	 Opposite-Spin Energy      =      -1.7043997165823450 [Eh]
	 Correlation Energy        =      -2.2592641554659436 [Eh]
	 Total Energy              =    -571.9322871262811532 [Eh]

	 ================> DF-SCS-MP2 Energies <==================
	-----------------------------------------------------------
	 SCS Same-Spin Scale       =       0.3333333333333333 [-]
	 SCS Opposite-Spin Scale   =       1.2000000000000000 [-]
	 SCS Same-Spin Energy      =      -0.1849548129611995 [Eh]
	 SCS Opposite-Spin Energy  =      -2.0452796598988141 [Eh]
	 SCS Correlation Energy    =      -2.2302344728600136 [Eh]
	 SCS Total Energy          =    -571.9032574436752157 [Eh]
	-----------------------------------------------------------

  Dipole Moment: [D]
     X:    -2.1622      Y:    -1.0145      Z:    -0.3120     Total:     2.4087

*** Psi4 exiting successfully. Buy a developer a beer!
