                               Psi4 1.3.2 release

  ==> Input File <==

--------------------------------------------------------------------------
#psi4
#
memory 32 gb

molecule  {
0 1
  O       -0.1019739    -1.7856295     0.4399928
  O        0.3584290     1.3939840    -1.0246780
  O       -1.9551560     1.3713260     0.4690830
  O        2.7148150     0.4505790    -0.2056670
  O       -1.6716310    -0.8002260    -0.9984850
  C        0.4315910     1.0135520     0.3497470
  C       -0.9093320     0.4742750     0.8400700
  C        1.5345100    -0.0288940     0.4204030
  C       -1.2151430    -0.9364420     0.3397180
  C        1.0549700    -1.3167000    -0.2286510
  H        0.7042560     1.8874530     0.9605880
  H       -0.8818830     0.4322700     1.9353370
  H        1.7837760    -0.2316310     1.4680400
  H       -2.0058215    -1.3825216     0.9572319
  H        0.8436020    -1.1475360    -1.2899680
  H        1.8059140    -2.1013880    -0.1265130
  H       -0.3930520     2.0121160    -1.0836700
  H       -2.3417080     0.9766970    -0.3400740
  H        2.3997000     0.9352960    -0.9928030
  H       -1.9956420    -1.6762600    -1.2784950
units angstrom
no_reorient  #important for SAPT in psi4, default
symmetry c1  #important for SAPT in psi4, default
}

set PROPERTIES_ORIGIN ["COM"]
properties('MP2/aug-cc-pvtz', properties = ['dipole'])
--------------------------------------------------------------------------

    Molecular point group: c1
  Charge       = 0
  Multiplicity = 1
  Basis Set: AUG-CC-PVTZ
    Blend: AUG-CC-PVTZ
  Basis Set: (AUG-CC-PVTZ AUX)
    Blend: AUG-CC-PVTZ-JKFIT

    Orbital Energies [Eh]
    ---------------------

    Doubly Occupied:

       1A    -20.591481     2A    -20.579900     3A    -20.574674
       4A    -20.570855     5A    -20.557201     6A    -11.355116
       7A    -11.298286     8A    -11.290703     9A    -11.284389
      10A    -11.276271    11A     -1.441485    12A     -1.391526
      13A     -1.376884    14A     -1.355589    15A     -1.347127
      16A     -1.058418    17A     -1.024801    18A     -0.897889
      19A     -0.871275    20A     -0.798160    21A     -0.752194
      22A     -0.728328    23A     -0.715116    24A     -0.696031
      25A     -0.669569    26A     -0.646908    27A     -0.622819
      28A     -0.614337    29A     -0.603667    30A     -0.585533
      31A     -0.571573    32A     -0.555710    33A     -0.542712
      34A     -0.516285    35A     -0.504204    36A     -0.490012
      37A     -0.487572    38A     -0.469610    39A     -0.440291
      40A     -0.414058

  @DF-RHF Final Energy:  -569.67524382939087

   => Energetics <=

    Nuclear Repulsion Energy =            634.4940860690521731
    One-Electron Energy =               -2043.2015375809839952
    Two-Electron Energy =                 839.0322076825409567
    Total Energy =                       -569.6752438293908654
  Basis Set: (AUG-CC-PVTZ AUX)
    Blend: AUG-CC-PVTZ-RI
    Molecular point group: c1

    Geometry (in Angstrom), charge = 0, multiplicity = 1:

       Center              X                  Y                   Z               Mass
    ------------   -----------------  -----------------  -----------------  -----------------
         O           -0.103258273916    -1.787288962990     0.441609544939    15.994914619570
         O            0.357144626084     1.392324537010    -1.023061255061    15.994914619570
         O           -1.956440373916     1.369666537010     0.470699744939    15.994914619570
         O            2.713530626084     0.448919537010    -0.204050255061    15.994914619570
         O           -1.672915373916    -0.801885462990    -0.996868255061    15.994914619570
         C            0.430306626084     1.011892537010     0.351363744939    12.000000000000
         C           -0.910616373916     0.472615537010     0.841686744939    12.000000000000
         C            1.533225626084    -0.030553462990     0.422019744939    12.000000000000
         C           -1.216427373916    -0.938101462990     0.341334744939    12.000000000000
         C            1.053685626084    -1.318359462990    -0.227034255061    12.000000000000
         H            0.702971626084     1.885793537010     0.962204744939     1.007825032230
         H           -0.883167373916     0.430610537010     1.936953744939     1.007825032230
         H            1.782491626084    -0.233290462990     1.469656744939     1.007825032230
         H           -2.007105873916    -1.384181062990     0.958848644939     1.007825032230
         H            0.842317626084    -1.149195462990    -1.288351255061     1.007825032230
         H            1.804629626084    -2.103047462990    -0.124896255061     1.007825032230
         H           -0.394336373916     2.010456537010    -1.082053255061     1.007825032230
         H           -2.342992373916     0.975037537010    -0.338457255061     1.007825032230
         H            2.398415626084     0.933636537010    -0.991186255061     1.007825032230
         H           -1.996926373916    -1.677919462990    -1.276878255061     1.007825032230

  Basis Set: AUG-CC-PVTZ
    Blend: AUG-CC-PVTZ
  Basis Set: (AUG-CC-PVTZ AUX)
    Blend: AUG-CC-PVTZ-JKFIT
	 Reference Energy          =    -569.6752438293908654 [Eh]
	 Singles Energy            =      -0.0000000000000000 [Eh]
	 Same-Spin Energy          =      -0.5544623316093228 [Eh]
	 Opposite-Spin Energy      =      -1.7032093620362483 [Eh]
	 Correlation Energy        =      -2.2576716936455710 [Eh]
	 Total Energy              =    -571.9329155230363995 [Eh]

	 ================> DF-SCS-MP2 Energies <==================
	-----------------------------------------------------------
	 SCS Same-Spin Scale       =       0.3333333333333333 [-]
	 SCS Opposite-Spin Scale   =       1.2000000000000000 [-]
	 SCS Same-Spin Energy      =      -0.1848207772031076 [Eh]
	 SCS Opposite-Spin Energy  =      -2.0438512344434980 [Eh]
	 SCS Correlation Energy    =      -2.2286720116466054 [Eh]
	 SCS Total Energy          =    -571.9039158410374739 [Eh]
	-----------------------------------------------------------

  Dipole Moment: [D]
     X:    -2.2487      Y:    -1.0315      Z:    -0.2583     Total:     2.4874

*** Psi4 exiting successfully. Buy a developer a beer!
