                               Psi4 1.3.2 release

  ==> Input File <==

--------------------------------------------------------------------------
#psi4
#
memory 32 gb

molecule  {
0 1
  O       -0.1147700    -1.8002930     0.4548730
  O        0.3584290     1.3939840    -1.0246780
  O       -1.9551560     1.3713260     0.4690830
  O        2.7148150     0.4505790    -0.2056670
  O       -1.6716310    -0.8002260    -0.9984850
  C        0.4270753     1.0361968     0.3630267
  C       -0.9093320     0.4742750     0.8400700
  C        1.5345100    -0.0288940     0.4204030
  C       -1.2383109    -0.9358443     0.3529032
  C        1.0549700    -1.3167000    -0.2286510
  H        0.7042560     1.8874530     0.9605880
  H       -0.8818830     0.4322700     1.9353370
  H        1.7837760    -0.2316310     1.4680400
  H       -1.9939520    -1.3968640     0.9617720
  H        0.8436020    -1.1475360    -1.2899680
  H        1.8059140    -2.1013880    -0.1265130
  H       -0.3930520     2.0121160    -1.0836700
  H       -2.3417080     0.9766970    -0.3400740
  H        2.3997000     0.9352960    -0.9928030
  H       -1.9956420    -1.6762600    -1.2784950
units angstrom
no_reorient  #important for SAPT in psi4, default
symmetry c1  #important for SAPT in psi4, default
}

set PROPERTIES_ORIGIN ["COM"]
properties('MP2/aug-cc-pvtz', properties = ['dipole'])
--------------------------------------------------------------------------

    Molecular point group: c1
  Charge       = 0
  Multiplicity = 1
  Basis Set: AUG-CC-PVTZ
    Blend: AUG-CC-PVTZ
  Basis Set: (AUG-CC-PVTZ AUX)
    Blend: AUG-CC-PVTZ-JKFIT

    Orbital Energies [Eh]
    ---------------------

    Doubly Occupied:

       1A    -20.591931     2A    -20.577861     3A    -20.573975
       4A    -20.570841     5A    -20.557312     6A    -11.354461
       7A    -11.298867     8A    -11.290677     9A    -11.285449
      10A    -11.277144    11A     -1.434399    12A     -1.389340
      13A     -1.373716    14A     -1.350773    15A     -1.346372
      16A     -1.056171    17A     -1.022304    18A     -0.900672
      19A     -0.869037    20A     -0.796249    21A     -0.753964
      22A     -0.728795    23A     -0.709451    24A     -0.694155
      25A     -0.667607    26A     -0.646276    27A     -0.620185
      28A     -0.611584    29A     -0.602753    30A     -0.583758
      31A     -0.572861    32A     -0.555552    33A     -0.542427
      34A     -0.514730    35A     -0.505395    36A     -0.489635
      37A     -0.485837    38A     -0.469380    39A     -0.440262
      40A     -0.417634

  @DF-RHF Final Energy:  -569.67278224534323

   => Energetics <=

    Nuclear Repulsion Energy =            632.9136022602012872
    One-Electron Energy =               -2040.1131877346713281
    Two-Electron Energy =                 837.5268032291268128
    Total Energy =                       -569.6727822453432282
  Basis Set: (AUG-CC-PVTZ AUX)
    Blend: AUG-CC-PVTZ-RI
    Molecular point group: c1

    Geometry (in Angstrom), charge = 0, multiplicity = 1:

       Center              X                  Y                   Z               Mass
    ------------   -----------------  -----------------  -----------------  -----------------
         O           -0.112556183507    -1.802151819050     0.452756646539    15.994914619570
         O            0.360642816493     1.392125180950    -1.026794353461    15.994914619570
         O           -1.952942183507     1.369467180950     0.466966646539    15.994914619570
         O            2.717028816493     0.448720180950    -0.207783353461    15.994914619570
         O           -1.669417183507    -0.802084819050    -1.000601353461    15.994914619570
         C            0.429289116493     1.034337980950     0.360910346539    12.000000000000
         C           -0.907118183507     0.472416180950     0.837953646539    12.000000000000
         C            1.536723816493    -0.030752819050     0.418286646539    12.000000000000
         C           -1.236097083507    -0.937703119050     0.350786846539    12.000000000000
         C            1.057183816493    -1.318558819050    -0.230767353461    12.000000000000
         H            0.706469816493     1.885594180950     0.958471646539     1.007825032230
         H           -0.879669183507     0.430411180950     1.933220646539     1.007825032230
         H            1.785989816493    -0.233489819050     1.465923646539     1.007825032230
         H           -1.991738183507    -1.398722819050     0.959655646539     1.007825032230
         H            0.845815816493    -1.149394819050    -1.292084353461     1.007825032230
         H            1.808127816493    -2.103246819050    -0.128629353461     1.007825032230
         H           -0.390838183507     2.010257180950    -1.085786353461     1.007825032230
         H           -2.339494183507     0.974838180950    -0.342190353461     1.007825032230
         H            2.401913816493     0.933437180950    -0.994919353461     1.007825032230
         H           -1.993428183507    -1.678118819050    -1.280611353461     1.007825032230

  Basis Set: AUG-CC-PVTZ
    Blend: AUG-CC-PVTZ
  Basis Set: (AUG-CC-PVTZ AUX)
    Blend: AUG-CC-PVTZ-JKFIT
	 Reference Energy          =    -569.6727822453432282 [Eh]
	 Singles Energy            =      -0.0000000000000000 [Eh]
	 Same-Spin Energy          =      -0.5544724035806652 [Eh]
	 Opposite-Spin Energy      =      -1.7042283071900672 [Eh]
	 Correlation Energy        =      -2.2587007107707322 [Eh]
	 Total Energy              =    -571.9314829561139959 [Eh]

	 ================> DF-SCS-MP2 Energies <==================
	-----------------------------------------------------------
	 SCS Same-Spin Scale       =       0.3333333333333333 [-]
	 SCS Opposite-Spin Scale   =       1.2000000000000000 [-]
	 SCS Same-Spin Energy      =      -0.1848241345268884 [Eh]
	 SCS Opposite-Spin Energy  =      -2.0450739686280808 [Eh]
	 SCS Correlation Energy    =      -2.2298981031549694 [Eh]
	 SCS Total Energy          =    -571.9026803484981656 [Eh]
	-----------------------------------------------------------

  Dipole Moment: [D]
     X:    -2.2560      Y:    -0.9513      Z:    -0.2440     Total:     2.4605

*** Psi4 exiting successfully. Buy a developer a beer!
