                               Psi4 1.3.2 release

  ==> Input File <==

--------------------------------------------------------------------------
#psi4
#
memory 32 gb

molecule  {
0 1
  O       -0.1147700    -1.8002930     0.4548730
  O        0.3584290     1.3939840    -1.0246780
  O       -1.9671049     1.3524782     0.4580290
  O        2.7148150     0.4505790    -0.2056670
  O       -1.6716310    -0.8002260    -0.9984850
  C        0.4315910     1.0135520     0.3497470
  C       -0.9093320     0.4742750     0.8400700
  C        1.5345100    -0.0288940     0.4204030
  C       -1.2379319    -0.9275015     0.3291497
  C        1.0549700    -1.3167000    -0.2286510
  H        0.7042560     1.8874530     0.9605880
  H       -0.8818830     0.4322700     1.9353370
  H        1.7837760    -0.2316310     1.4680400
  H       -1.9939520    -1.3968640     0.9617720
  H        0.8436020    -1.1475360    -1.2899680
  H        1.8059140    -2.1013880    -0.1265130
  H       -0.3930520     2.0121160    -1.0836700
  H       -2.3417080     0.9766970    -0.3400740
  H        2.3997000     0.9352960    -0.9928030
  H       -1.9956420    -1.6762600    -1.2784950
units angstrom
no_reorient  #important for SAPT in psi4, default
symmetry c1  #important for SAPT in psi4, default
}

set PROPERTIES_ORIGIN ["COM"]
properties('MP2/aug-cc-pvtz', properties = ['dipole'])
--------------------------------------------------------------------------

    Molecular point group: c1
  Charge       = 0
  Multiplicity = 1
  Basis Set: AUG-CC-PVTZ
    Blend: AUG-CC-PVTZ
  Basis Set: (AUG-CC-PVTZ AUX)
    Blend: AUG-CC-PVTZ-JKFIT

    Orbital Energies [Eh]
    ---------------------

    Doubly Occupied:

       1A    -20.594905     2A    -20.576341     3A    -20.572388
       4A    -20.571669     5A    -20.557686     6A    -11.353243
       7A    -11.299295     8A    -11.291611     9A    -11.284881
      10A    -11.276047    11A     -1.439199    12A     -1.392151
      13A     -1.376382    14A     -1.354141    15A     -1.347964
      16A     -1.058875    17A     -1.021279    18A     -0.898928
      19A     -0.870071    20A     -0.799769    21A     -0.754799
      22A     -0.728169    23A     -0.709656    24A     -0.699898
      25A     -0.669873    26A     -0.647236    27A     -0.620218
      28A     -0.611849    29A     -0.604040    30A     -0.584779
      31A     -0.574203    32A     -0.555056    33A     -0.542476
      34A     -0.516683    35A     -0.502752    36A     -0.488896
      37A     -0.487797    38A     -0.470111    39A     -0.441369
      40A     -0.414676

  @DF-RHF Final Energy:  -569.67495291364764

   => Energetics <=

    Nuclear Repulsion Energy =            633.8847879070277713
    One-Electron Energy =               -2041.9967587861549418
    Two-Electron Energy =                 838.4370179654794129
    Total Energy =                       -569.6749529136476440
  Basis Set: (AUG-CC-PVTZ AUX)
    Blend: AUG-CC-PVTZ-RI
    Molecular point group: c1

    Geometry (in Angstrom), charge = 0, multiplicity = 1:

       Center              X                  Y                   Z               Mass
    ------------   -----------------  -----------------  -----------------  -----------------
         O           -0.111673925964    -1.798998976331     0.456896563217    15.994914619570
         O            0.361525074036     1.395278023669    -1.022654436783    15.994914619570
         O           -1.964008825964     1.353772223669     0.460052563217    15.994914619570
         O            2.717911074036     0.451873023669    -0.203643436783    15.994914619570
         O           -1.668534925964    -0.798931976331    -0.996461436783    15.994914619570
         C            0.434687074036     1.014846023669     0.351770563217    12.000000000000
         C           -0.906235925964     0.475569023669     0.842093563217    12.000000000000
         C            1.537606074036    -0.027599976331     0.422426563217    12.000000000000
         C           -1.234835825964    -0.926207476331     0.331173263217    12.000000000000
         C            1.058066074036    -1.315405976331    -0.226627436783    12.000000000000
         H            0.707352074036     1.888747023669     0.962611563217     1.007825032230
         H           -0.878786925964     0.433564023669     1.937360563217     1.007825032230
         H            1.786872074036    -0.230336976331     1.470063563217     1.007825032230
         H           -1.990855925964    -1.395569976331     0.963795563217     1.007825032230
         H            0.846698074036    -1.146241976331    -1.287944436783     1.007825032230
         H            1.809010074036    -2.100093976331    -0.124489436783     1.007825032230
         H           -0.389955925964     2.013410023669    -1.081646436783     1.007825032230
         H           -2.338611925964     0.977991023669    -0.338050436783     1.007825032230
         H            2.402796074036     0.936590023669    -0.990779436783     1.007825032230
         H           -1.992545925964    -1.674965976331    -1.276471436783     1.007825032230

  Basis Set: AUG-CC-PVTZ
    Blend: AUG-CC-PVTZ
  Basis Set: (AUG-CC-PVTZ AUX)
    Blend: AUG-CC-PVTZ-JKFIT
	 Reference Energy          =    -569.6749529136476440 [Eh]
	 Singles Energy            =      -0.0000000000000000 [Eh]
	 Same-Spin Energy          =      -0.5542929720216864 [Eh]
	 Opposite-Spin Energy      =      -1.7032562983718771 [Eh]
	 Correlation Energy        =      -2.2575492703935636 [Eh]
	 Total Energy              =    -571.9325021840412546 [Eh]

	 ================> DF-SCS-MP2 Energies <==================
	-----------------------------------------------------------
	 SCS Same-Spin Scale       =       0.3333333333333333 [-]
	 SCS Opposite-Spin Scale   =       1.2000000000000000 [-]
	 SCS Same-Spin Energy      =      -0.1847643240072288 [Eh]
	 SCS Opposite-Spin Energy  =      -2.0439075580462522 [Eh]
	 SCS Correlation Energy    =      -2.2286718820534812 [Eh]
	 SCS Total Energy          =    -571.9036247957011483 [Eh]
	-----------------------------------------------------------

  Dipole Moment: [D]
     X:    -2.2804      Y:    -0.9140      Z:    -0.3423     Total:     2.4805

*** Psi4 exiting successfully. Buy a developer a beer!
