                               Psi4 1.3.2 release

  ==> Input File <==

--------------------------------------------------------------------------
#psi4
#
memory 32 gb

molecule  {
0 1
  O       -0.1147700    -1.8002930     0.4548730
  O        0.3584290     1.3939840    -1.0246780
  O       -1.9383349     1.3582168     0.3974872
  O        2.7148150     0.4505790    -0.2056670
  O       -1.6716310    -0.8002260    -0.9984850
  C        0.4315910     1.0135520     0.3497470
  C       -0.9093320     0.4742750     0.8400700
  C        1.5345100    -0.0288940     0.4204030
  C       -1.2151430    -0.9364420     0.3397180
  C        1.0549700    -1.3167000    -0.2286510
  H        0.7042560     1.8874530     0.9605880
  H       -0.8382570     0.3951815     1.9313171
  H        1.7837760    -0.2316310     1.4680400
  H       -1.9939520    -1.3968640     0.9617720
  H        0.8436020    -1.1475360    -1.2899680
  H        1.8059140    -2.1013880    -0.1265130
  H       -0.3930520     2.0121160    -1.0836700
  H       -2.3417080     0.9766970    -0.3400740
  H        2.3997000     0.9352960    -0.9928030
  H       -1.9956420    -1.6762600    -1.2784950
units angstrom
no_reorient  #important for SAPT in psi4, default
symmetry c1  #important for SAPT in psi4, default
}

set PROPERTIES_ORIGIN ["COM"]
properties('MP2/aug-cc-pvtz', properties = ['dipole'])
--------------------------------------------------------------------------

    Molecular point group: c1
  Charge       = 0
  Multiplicity = 1
  Basis Set: AUG-CC-PVTZ
    Blend: AUG-CC-PVTZ
  Basis Set: (AUG-CC-PVTZ AUX)
    Blend: AUG-CC-PVTZ-JKFIT

    Orbital Energies [Eh]
    ---------------------

    Doubly Occupied:

       1A    -20.589881     2A    -20.580152     3A    -20.569728
       4A    -20.569104     5A    -20.557748     6A    -11.353119
       7A    -11.300627     8A    -11.290231     9A    -11.285278
      10A    -11.277691    11A     -1.439365    12A     -1.394774
      13A     -1.379706    14A     -1.354245    15A     -1.347553
      16A     -1.061313    17A     -1.024200    18A     -0.898345
      19A     -0.873303    20A     -0.798682    21A     -0.751428
      22A     -0.728157    23A     -0.714301    24A     -0.701913
      25A     -0.668879    26A     -0.651115    27A     -0.620052
      28A     -0.613071    29A     -0.605327    30A     -0.585313
      31A     -0.572951    32A     -0.555893    33A     -0.540734
      34A     -0.516855    35A     -0.501920    36A     -0.490133
      37A     -0.486271    38A     -0.470679    39A     -0.440942
      40A     -0.415426

  @DF-RHF Final Energy:  -569.67378278094475

   => Energetics <=

    Nuclear Repulsion Energy =            635.0631083863505637
    One-Electron Energy =               -2044.3209702930453204
    Two-Electron Energy =                 839.5840791257501223
    Total Energy =                       -569.6737827809447481
  Basis Set: (AUG-CC-PVTZ AUX)
    Blend: AUG-CC-PVTZ-RI
    Molecular point group: c1

    Geometry (in Angstrom), charge = 0, multiplicity = 1:

       Center              X                  Y                   Z               Mass
    ------------   -----------------  -----------------  -----------------  -----------------
         O           -0.116856153467    -1.798646591748     0.462531863230    15.994914619570
         O            0.356342846533     1.395630408252    -1.017019136770    15.994914619570
         O           -1.940421053467     1.359863208252     0.405146063230    15.994914619570
         O            2.712728846533     0.452225408252    -0.198008136770    15.994914619570
         O           -1.673717153467    -0.798579591748    -0.990826136770    15.994914619570
         C            0.429504846533     1.015198408252     0.357405863230    12.000000000000
         C           -0.911418153467     0.475921408252     0.847728863230    12.000000000000
         C            1.532423846533    -0.027247591748     0.428061863230    12.000000000000
         C           -1.217229153467    -0.934795591748     0.347376863230    12.000000000000
         C            1.052883846533    -1.315053591748    -0.220992136770    12.000000000000
         H            0.702169846533     1.889099408252     0.968246863230     1.007825032230
         H           -0.840343153467     0.396827908252     1.938975963230     1.007825032230
         H            1.781689846533    -0.229984591748     1.475698863230     1.007825032230
         H           -1.996038153467    -1.395217591748     0.969430863230     1.007825032230
         H            0.841515846533    -1.145889591748    -1.282309136770     1.007825032230
         H            1.803827846533    -2.099741591748    -0.118854136770     1.007825032230
         H           -0.395138153467     2.013762408252    -1.076011136770     1.007825032230
         H           -2.343794153467     0.978343408252    -0.332415136770     1.007825032230
         H            2.397613846533     0.936942408252    -0.985144136770     1.007825032230
         H           -1.997728153467    -1.674613591748    -1.270836136770     1.007825032230

  Basis Set: AUG-CC-PVTZ
    Blend: AUG-CC-PVTZ
  Basis Set: (AUG-CC-PVTZ AUX)
    Blend: AUG-CC-PVTZ-JKFIT
	 Reference Energy          =    -569.6737827809447481 [Eh]
	 Singles Energy            =      -0.0000000000000000 [Eh]
	 Same-Spin Energy          =      -0.5539569541272440 [Eh]
	 Opposite-Spin Energy      =      -1.7021128879487355 [Eh]
	 Correlation Energy        =      -2.2560698420759797 [Eh]
	 Total Energy              =    -571.9298526230206789 [Eh]

	 ================> DF-SCS-MP2 Energies <==================
	-----------------------------------------------------------
	 SCS Same-Spin Scale       =       0.3333333333333333 [-]
	 SCS Opposite-Spin Scale   =       1.2000000000000000 [-]
	 SCS Same-Spin Energy      =      -0.1846523180424147 [Eh]
	 SCS Opposite-Spin Energy  =      -2.0425354655384824 [Eh]
	 SCS Correlation Energy    =      -2.2271877835808969 [Eh]
	 SCS Total Energy          =    -571.9009705645256645 [Eh]
	-----------------------------------------------------------

  Dipole Moment: [D]
     X:    -2.2337      Y:    -0.9816      Z:    -0.1665     Total:     2.4456

*** Psi4 exiting successfully. Buy a developer a beer!
