                               Psi4 1.3.2 release

  ==> Input File <==

--------------------------------------------------------------------------
#psi4
#
memory 32 gb

molecule  {
0 1
  O       -0.1147700    -1.8002930     0.4548730
  O        0.3584290     1.3939840    -1.0246780
  O       -1.9551560     1.3713260     0.4690830
  O        2.7148150     0.4505790    -0.2056670
  O       -1.6716310    -0.8002260    -0.9984850
  C        0.4315910     1.0135520     0.3497470
  C       -0.9971918     0.4389406     0.8721969
  C        1.5345100    -0.0288940     0.4204030
  C       -1.2151430    -0.9364420     0.3397180
  C        1.0549700    -1.3167000    -0.2286510
  H        0.7042560     1.8874530     0.9605880
  H       -0.8818830     0.4322700     1.9353370
  H        1.7837760    -0.2316310     1.4680400
  H       -1.9939520    -1.3968640     0.9617720
  H        0.8436020    -1.1475360    -1.2899680
  H        1.8059140    -2.1013880    -0.1265130
  H       -0.3930520     2.0121160    -1.0836700
  H       -2.3417080     0.9766970    -0.3400740
  H        2.3997000     0.9352960    -0.9928030
  H       -1.9956420    -1.6762600    -1.2784950
units angstrom
no_reorient  #important for SAPT in psi4, default
symmetry c1  #important for SAPT in psi4, default
}

set PROPERTIES_ORIGIN ["COM"]
properties('MP2/aug-cc-pvtz', properties = ['dipole'])
--------------------------------------------------------------------------

    Molecular point group: c1
  Charge       = 0
  Multiplicity = 1
  Basis Set: AUG-CC-PVTZ
    Blend: AUG-CC-PVTZ
  Basis Set: (AUG-CC-PVTZ AUX)
    Blend: AUG-CC-PVTZ-JKFIT

    Orbital Energies [Eh]
    ---------------------

    Doubly Occupied:

       1A    -20.592851     2A    -20.582288     3A    -20.579321
       4A    -20.569744     5A    -20.555977     6A    -11.352375
       7A    -11.298279     8A    -11.290462     9A    -11.282737
      10A    -11.277029    11A     -1.440593    12A     -1.394017
      13A     -1.379861    14A     -1.356498    15A     -1.346501
      16A     -1.047626    17A     -1.027224    18A     -0.899350
      19A     -0.866159    20A     -0.799800    21A     -0.753074
      22A     -0.724230    23A     -0.715525    24A     -0.697431
      25A     -0.665481    26A     -0.647285    27A     -0.621317
      28A     -0.615903    29A     -0.602443    30A     -0.587085
      31A     -0.572048    32A     -0.559054    33A     -0.543531
      34A     -0.519890    35A     -0.504251    36A     -0.492862
      37A     -0.488735    38A     -0.470791    39A     -0.425154
      40A     -0.409441

  @DF-RHF Final Energy:  -569.66668471705952

   => Energetics <=

    Nuclear Repulsion Energy =            632.9710554996781866
    One-Electron Energy =               -2040.1670367885719770
    Two-Electron Energy =                 837.5292965718342657
    Total Energy =                       -569.6666847170595247
  Basis Set: (AUG-CC-PVTZ AUX)
    Blend: AUG-CC-PVTZ-RI
    Molecular point group: c1

    Geometry (in Angstrom), charge = 0, multiplicity = 1:

       Center              X                  Y                   Z               Mass
    ------------   -----------------  -----------------  -----------------  -----------------
         O           -0.107743782224    -1.797467316726     0.452303845996    15.994914619570
         O            0.365455217776     1.396809683274    -1.027247154004    15.994914619570
         O           -1.948129782224     1.374151683274     0.466513845996    15.994914619570
         O            2.721841217776     0.453404683274    -0.208236154004    15.994914619570
         O           -1.664604782224    -0.797400316726    -1.001054154004    15.994914619570
         C            0.438617217776     1.016377683274     0.347177845996    12.000000000000
         C           -0.990165582224     0.441766283274     0.869627745996    12.000000000000
         C            1.541536217776    -0.026068316726     0.417833845996    12.000000000000
         C           -1.208116782224    -0.933616316726     0.337148845996    12.000000000000
         C            1.061996217776    -1.313874316726    -0.231220154004    12.000000000000
         H            0.711282217776     1.890278683274     0.958018845996     1.007825032230
         H           -0.874856782224     0.435095683274     1.932767845996     1.007825032230
         H            1.790802217776    -0.228805316726     1.465470845996     1.007825032230
         H           -1.986925782224    -1.394038316726     0.959202845996     1.007825032230
         H            0.850628217776    -1.144710316726    -1.292537154004     1.007825032230
         H            1.812940217776    -2.098562316726    -0.129082154004     1.007825032230
         H           -0.386025782224     2.014941683274    -1.086239154004     1.007825032230
         H           -2.334681782224     0.979522683274    -0.342643154004     1.007825032230
         H            2.406726217776     0.938121683274    -0.995372154004     1.007825032230
         H           -1.988615782224    -1.673434316726    -1.281064154004     1.007825032230

  Basis Set: AUG-CC-PVTZ
    Blend: AUG-CC-PVTZ
  Basis Set: (AUG-CC-PVTZ AUX)
    Blend: AUG-CC-PVTZ-JKFIT
	 Reference Energy          =    -569.6666847170595247 [Eh]
	 Singles Energy            =      -0.0000000000000000 [Eh]
	 Same-Spin Energy          =      -0.5547416701304425 [Eh]
	 Opposite-Spin Energy      =      -1.7039529954919024 [Eh]
	 Correlation Energy        =      -2.2586946656223450 [Eh]
	 Total Energy              =    -571.9253793826818537 [Eh]

	 ================> DF-SCS-MP2 Energies <==================
	-----------------------------------------------------------
	 SCS Same-Spin Scale       =       0.3333333333333333 [-]
	 SCS Opposite-Spin Scale   =       1.2000000000000000 [-]
	 SCS Same-Spin Energy      =      -0.1849138900434808 [Eh]
	 SCS Opposite-Spin Energy  =      -2.0447435945902828 [Eh]
	 SCS Correlation Energy    =      -2.2296574846337638 [Eh]
	 SCS Total Energy          =    -571.8963422016933009 [Eh]
	-----------------------------------------------------------

  Dipole Moment: [D]
     X:    -2.3712      Y:    -0.9414      Z:    -0.2875     Total:     2.5674

*** Psi4 exiting successfully. Buy a developer a beer!
