                               Psi4 1.4a3.dev225

  ==> Input File <==

--------------------------------------------------------------------------
#psi4
#
memory 32 gb

molecule  {
0 1
  O       -0.2343850     1.7978400    -0.4145210
  O        0.4791390    -1.3900560     0.9851260
  O       -1.8902550    -1.4798720    -0.4079610
  O        2.7489250    -0.2990660     0.0843650
  O       -1.6766260     0.6849030     1.0797040
  C        0.4758930    -0.9871420    -0.3839460
  C       -0.9153110    -0.5160320    -0.8112700
  C        1.5148540     0.1205520    -0.4811210
  C       -1.2913057     0.9157885    -0.2549665
  C        0.9914930     1.3693070     0.2124490
  H        0.7732420    -1.8350180    -1.0199460
  H       -0.9367810    -0.4539690    -1.9062570
  H        1.7061480     0.3550680    -1.5342930
  H       -2.1075740     1.2945610    -0.8542440
  H        0.8333730     1.1741050     1.2776920
  H        1.6908660     2.1982840     0.0933200
  H       -0.2684360    -2.0097880     1.0741120
  H       -2.2907410    -1.1048270     0.4011470
  H        2.5001980    -0.8049050     0.8819700
  H       -2.0397460     1.5332780     1.3914430
units angstrom
no_reorient  #important for SAPT in psi4, default
symmetry c1  #important for SAPT in psi4, default
}

set PROPERTIES_ORIGIN ["COM"]
properties('MP2/aug-cc-pvtz', properties = ['dipole'])
--------------------------------------------------------------------------

    Molecular point group: c1
  Charge       = 0
  Multiplicity = 1
  Basis Set: AUG-CC-PVTZ
    Blend: AUG-CC-PVTZ
  Basis Set: (AUG-CC-PVTZ AUX)
    Blend: AUG-CC-PVTZ-JKFIT

    Orbital Energies [Eh]
    ---------------------

    Doubly Occupied:

       1A    -20.595214     2A    -20.581732     3A    -20.572947
       4A    -20.568918     5A    -20.558402     6A    -11.353936
       7A    -11.297848     8A    -11.289691     9A    -11.285883
      10A    -11.280239    11A     -1.443501    12A     -1.390327
      13A     -1.376245    14A     -1.357802    15A     -1.346539
      16A     -1.054536    17A     -1.019039    18A     -0.894424
      19A     -0.871252    20A     -0.797290    21A     -0.754051
      22A     -0.726527    23A     -0.714906    24A     -0.695440
      25A     -0.667803    26A     -0.646851    27A     -0.624055
      28A     -0.614734    29A     -0.600406    30A     -0.585589
      31A     -0.575934    32A     -0.553981    33A     -0.542046
      34A     -0.514607    35A     -0.507027    36A     -0.490247
      37A     -0.481967    38A     -0.471715    39A     -0.440157
      40A     -0.411043

  @DF-RHF Final Energy:  -569.67287010578002

   => Energetics <=

    Nuclear Repulsion Energy =            632.6985948475553414
    One-Electron Energy =               -2039.6332238067518574
    Two-Electron Energy =                 837.2617588534164952
    Total Energy =                       -569.6728701057800208
  Basis Set: (AUG-CC-PVTZ AUX)
    Blend: AUG-CC-PVTZ-RI
    Molecular point group: c1

    Geometry (in Angstrom), charge = 0, multiplicity = 1:

       Center              X                  Y                   Z               Mass
    ------------   -----------------  -----------------  -----------------  -----------------
         O           -0.234375805516     1.796489419065    -0.417172231954    15.994914619570
         O            0.479148194484    -1.391406580935     0.982474768046    15.994914619570
         O           -1.890245805516    -1.481222580935    -0.410612231954    15.994914619570
         O            2.748934194484    -0.300416580935     0.081713768046    15.994914619570
         O           -1.676616805516     0.683552419065     1.077052768046    15.994914619570
         C            0.475902194484    -0.988492580935    -0.386597231954    12.000000000000
         C           -0.915301805516    -0.517382580935    -0.813921231954    12.000000000000
         C            1.514863194484     0.119201419065    -0.483772231954    12.000000000000
         C           -1.291296505516     0.914437919065    -0.257617731954    12.000000000000
         C            0.991502194484     1.367956419065     0.209797768046    12.000000000000
         H            0.773251194484    -1.836368580935    -1.022597231954     1.007825032230
         H           -0.936771805516    -0.455319580935    -1.908908231954     1.007825032230
         H            1.706157194484     0.353717419065    -1.536944231954     1.007825032230
         H           -2.107564805516     1.293210419065    -0.856895231954     1.007825032230
         H            0.833382194484     1.172754419065     1.275040768046     1.007825032230
         H            1.690875194484     2.196933419065     0.090668768046     1.007825032230
         H           -0.268426805516    -2.011138580935     1.071460768046     1.007825032230
         H           -2.290731805516    -1.106177580935     0.398495768046     1.007825032230
         H            2.500207194484    -0.806255580935     0.879318768046     1.007825032230
         H           -2.039736805516     1.531927419065     1.388791768046     1.007825032230

  Basis Set: AUG-CC-PVTZ
    Blend: AUG-CC-PVTZ
  Basis Set: (AUG-CC-PVTZ AUX)
    Blend: AUG-CC-PVTZ-JKFIT
	 Reference Energy          =    -569.6728701057800208 [Eh]
	 Singles Energy            =      -0.0000000000000000 [Eh]
	 Same-Spin Energy          =      -0.5543459473541374 [Eh]
	 Opposite-Spin Energy      =      -1.7034976916296554 [Eh]
	 Correlation Energy        =      -2.2578436389837928 [Eh]
	 Total Energy              =    -571.9307137447638070 [Eh]

	 ================> DF-SCS-MP2 Energies <==================
	-----------------------------------------------------------
	 SCS Same-Spin Scale       =       0.3333333333333333 [-]
	 SCS Opposite-Spin Scale   =       1.2000000000000000 [-]
	 SCS Same-Spin Energy      =      -0.1847819824513791 [Eh]
	 SCS Opposite-Spin Energy  =      -2.0441972299555862 [Eh]
	 SCS Correlation Energy    =      -2.2289792124069652 [Eh]
	 SCS Total Energy          =    -571.9018493181870326 [Eh]
	-----------------------------------------------------------

  Dipole Moment: [D]
     X:    -2.3122      Y:     1.0939      Z:     0.4740     Total:     2.6014

*** Psi4 exiting successfully. Buy a developer a beer!
