                               Psi4 1.3.2 release

  ==> Input File <==

--------------------------------------------------------------------------
#psi4
#
memory 32 gb

molecule  {
0 1
  O       -0.1147700    -1.8002930     0.4548730
  O        0.3033182     1.4411737    -1.0066494
  O       -1.9551560     1.3713260     0.4690830
  O        2.7148150     0.4505790    -0.2056670
  O       -1.6716310    -0.8002260    -0.9984850
  C        0.4315910     1.0135520     0.3497470
  C       -0.9093320     0.4742750     0.8400700
  C        1.5213749    -0.0344530     0.4986523
  C       -1.2151430    -0.9364420     0.3397180
  C        1.0549700    -1.3167000    -0.2286510
  H        0.7042560     1.8874530     0.9605880
  H       -0.8818830     0.4322700     1.9353370
  H        1.7837760    -0.2316310     1.4680400
  H       -1.9939520    -1.3968640     0.9617720
  H        0.8436020    -1.1475360    -1.2899680
  H        1.8059140    -2.1013880    -0.1265130
  H       -0.3930520     2.0121160    -1.0836700
  H       -2.3417080     0.9766970    -0.3400740
  H        2.3997000     0.9352960    -0.9928030
  H       -1.9956420    -1.6762600    -1.2784950
units angstrom
no_reorient  #important for SAPT in psi4, default
symmetry c1  #important for SAPT in psi4, default
}

set PROPERTIES_ORIGIN ["COM"]
properties('MP2/aug-cc-pvtz', properties = ['dipole'])
--------------------------------------------------------------------------

    Molecular point group: c1
  Charge       = 0
  Multiplicity = 1
  Basis Set: AUG-CC-PVTZ
    Blend: AUG-CC-PVTZ
  Basis Set: (AUG-CC-PVTZ AUX)
    Blend: AUG-CC-PVTZ-JKFIT

    Orbital Energies [Eh]
    ---------------------

    Doubly Occupied:

       1A    -20.591621     2A    -20.580089     3A    -20.572611
       4A    -20.563156     5A    -20.553953     6A    -11.353760
       7A    -11.297295     8A    -11.294132     9A    -11.287962
      10A    -11.281888    11A     -1.438989    12A     -1.397127
      13A     -1.372221    14A     -1.353770    15A     -1.338437
      16A     -1.065213    17A     -1.022064    18A     -0.899764
      19A     -0.873876    20A     -0.810126    21A     -0.753489
      22A     -0.725341    23A     -0.712213    24A     -0.696887
      25A     -0.672962    26A     -0.644009    27A     -0.619626
      28A     -0.617265    29A     -0.605378    30A     -0.592039
      31A     -0.568435    32A     -0.550814    33A     -0.540516
      34A     -0.522155    35A     -0.501708    36A     -0.491997
      37A     -0.485451    38A     -0.476526    39A     -0.438783
      40A     -0.412995

  @DF-RHF Final Energy:  -569.66538196399506

   => Energetics <=

    Nuclear Repulsion Energy =            632.9904212910374781
    One-Electron Energy =               -2040.1583190054448096
    Two-Electron Energy =                 837.5025157504123854
    Total Energy =                       -569.6653819639950598
  Basis Set: (AUG-CC-PVTZ AUX)
    Blend: AUG-CC-PVTZ-RI
    Molecular point group: c1

    Geometry (in Angstrom), charge = 0, multiplicity = 1:

       Center              X                  Y                   Z               Mass
    ------------   -----------------  -----------------  -----------------  -----------------
         O           -0.107845105605    -1.804878706909     0.446693590230    15.994914619570
         O            0.310243094395     1.436587993091    -1.014828809770    15.994914619570
         O           -1.948231105605     1.366740293091     0.460903590230    15.994914619570
         O            2.721739894395     0.445993293091    -0.213846409770    15.994914619570
         O           -1.664706105605    -0.804811706909    -1.006664409770    15.994914619570
         C            0.438515894395     1.008966293091     0.341567590230    12.000000000000
         C           -0.902407105605     0.469689293091     0.831890590230    12.000000000000
         C            1.528299794395    -0.039038706909     0.490472890230    12.000000000000
         C           -1.208218105605    -0.941027706909     0.331538590230    12.000000000000
         C            1.061894894395    -1.321285706909    -0.236830409770    12.000000000000
         H            0.711180894395     1.882867293091     0.952408590230     1.007825032230
         H           -0.874958105605     0.427684293091     1.927157590230     1.007825032230
         H            1.790700894395    -0.236216706909     1.459860590230     1.007825032230
         H           -1.987027105605    -1.401449706909     0.953592590230     1.007825032230
         H            0.850526894395    -1.152121706909    -1.298147409770     1.007825032230
         H            1.812838894395    -2.105973706909    -0.134692409770     1.007825032230
         H           -0.386127105605     2.007530293091    -1.091849409770     1.007825032230
         H           -2.334783105605     0.972111293091    -0.348253409770     1.007825032230
         H            2.406624894395     0.930710293091    -1.000982409770     1.007825032230
         H           -1.988717105605    -1.680845706909    -1.286674409770     1.007825032230

  Basis Set: AUG-CC-PVTZ
    Blend: AUG-CC-PVTZ
  Basis Set: (AUG-CC-PVTZ AUX)
    Blend: AUG-CC-PVTZ-JKFIT
	 Reference Energy          =    -569.6653819639950598 [Eh]
	 Singles Energy            =      -0.0000000000000000 [Eh]
	 Same-Spin Energy          =      -0.5532084879997469 [Eh]
	 Opposite-Spin Energy      =      -1.7017681439729324 [Eh]
	 Correlation Energy        =      -2.2549766319726792 [Eh]
	 Total Energy              =    -571.9203585959677412 [Eh]

	 ================> DF-SCS-MP2 Energies <==================
	-----------------------------------------------------------
	 SCS Same-Spin Scale       =       0.3333333333333333 [-]
	 SCS Opposite-Spin Scale   =       1.2000000000000000 [-]
	 SCS Same-Spin Energy      =      -0.1844028293332489 [Eh]
	 SCS Opposite-Spin Energy  =      -2.0421217727675187 [Eh]
	 SCS Correlation Energy    =      -2.2265246021007679 [Eh]
	 SCS Total Energy          =    -571.8919065660958267 [Eh]
	-----------------------------------------------------------

  Dipole Moment: [D]
     X:    -2.1419      Y:    -1.1603      Z:    -0.1802     Total:     2.4427

*** Psi4 exiting successfully. Buy a developer a beer!
