                               Psi4 1.3.2 release

  ==> Input File <==

--------------------------------------------------------------------------
#psi4
#
memory 32 gb

molecule  {
0 1
  O       -0.1147700    -1.8002930     0.4548730
  O        0.3584290     1.3939840    -1.0246780
  O       -1.9551560     1.3713260     0.4690830
  O        2.7142101     0.4312339    -0.2211326
  O       -1.6716310    -0.8002260    -0.9984850
  C        0.4315910     1.0135520     0.3497470
  C       -0.9093320     0.4742750     0.8400700
  C        1.5345100    -0.0288940     0.4204030
  C       -1.2151430    -0.9364420     0.3397180
  C        1.0754526    -1.3155790    -0.2454664
  H        0.7042560     1.8874530     0.9605880
  H       -0.8818830     0.4322700     1.9353370
  H        1.7837760    -0.2316310     1.4680400
  H       -1.9939520    -1.3968640     0.9617720
  H        0.8436020    -1.1475360    -1.2899680
  H        1.8059140    -2.1013880    -0.1265130
  H       -0.3930520     2.0121160    -1.0836700
  H       -2.3417080     0.9766970    -0.3400740
  H        2.3997000     0.9352960    -0.9928030
  H       -1.9956420    -1.6762600    -1.2784950
units angstrom
no_reorient  #important for SAPT in psi4, default
symmetry c1  #important for SAPT in psi4, default
}

set PROPERTIES_ORIGIN ["COM"]
properties('MP2/aug-cc-pvtz', properties = ['dipole'])
--------------------------------------------------------------------------

    Molecular point group: c1
  Charge       = 0
  Multiplicity = 1
  Basis Set: AUG-CC-PVTZ
    Blend: AUG-CC-PVTZ
  Basis Set: (AUG-CC-PVTZ AUX)
    Blend: AUG-CC-PVTZ-JKFIT

    Orbital Energies [Eh]
    ---------------------

    Doubly Occupied:

       1A    -20.590528     2A    -20.577391     3A    -20.574308
       4A    -20.571691     5A    -20.557751     6A    -11.352291
       7A    -11.297984     8A    -11.291941     9A    -11.286572
      10A    -11.277707    11A     -1.434824    12A     -1.391252
      13A     -1.374114    14A     -1.350142    15A     -1.348433
      16A     -1.058861    17A     -1.022088    18A     -0.899997
      19A     -0.868626    20A     -0.798625    21A     -0.751519
      22A     -0.727614    23A     -0.709522    24A     -0.695312
      25A     -0.670396    26A     -0.645563    27A     -0.618290
      28A     -0.613247    29A     -0.601907    30A     -0.585217
      31A     -0.572731    32A     -0.557402    33A     -0.542430
      34A     -0.515989    35A     -0.501593    36A     -0.490871
      37A     -0.485161    38A     -0.473917    39A     -0.441656
      40A     -0.415816

  @DF-RHF Final Energy:  -569.67381319286449

   => Energetics <=

    Nuclear Repulsion Energy =            633.4806662633565111
    One-Electron Energy =               -2041.2263990593596645
    Two-Electron Energy =                 838.0719196031387810
    Total Energy =                       -569.6738131928644862
  Basis Set: (AUG-CC-PVTZ AUX)
    Blend: AUG-CC-PVTZ-RI
    Molecular point group: c1

    Geometry (in Angstrom), charge = 0, multiplicity = 1:

       Center              X                  Y                   Z               Mass
    ------------   -----------------  -----------------  -----------------  -----------------
         O           -0.116343643571    -1.798320626743     0.457866410781    15.994914619570
         O            0.356855356429     1.395956373257    -1.021684589219    15.994914619570
         O           -1.956729643571     1.373298373257     0.472076410781    15.994914619570
         O            2.712636456429     0.433206273257    -0.218139189219    15.994914619570
         O           -1.673204643571    -0.798253626743    -0.995491589219    15.994914619570
         C            0.430017356429     1.015524373257     0.352740410781    12.000000000000
         C           -0.910905643571     0.476247373257     0.843063410781    12.000000000000
         C            1.532936356429    -0.026921626743     0.423396410781    12.000000000000
         C           -1.216716643571    -0.934469626743     0.342711410781    12.000000000000
         C            1.073878956429    -1.313606626743    -0.242472989219    12.000000000000
         H            0.702682356429     1.889425373257     0.963581410781     1.007825032230
         H           -0.883456643571     0.434242373257     1.938330410781     1.007825032230
         H            1.782202356429    -0.229658626743     1.471033410781     1.007825032230
         H           -1.995525643571    -1.394891626743     0.964765410781     1.007825032230
         H            0.842028356429    -1.145563626743    -1.286974589219     1.007825032230
         H            1.804340356429    -2.099415626743    -0.123519589219     1.007825032230
         H           -0.394625643571     2.014088373257    -1.080676589219     1.007825032230
         H           -2.343281643571     0.978669373257    -0.337080589219     1.007825032230
         H            2.398126356429     0.937268373257    -0.989809589219     1.007825032230
         H           -1.997215643571    -1.674287626743    -1.275501589219     1.007825032230

  Basis Set: AUG-CC-PVTZ
    Blend: AUG-CC-PVTZ
  Basis Set: (AUG-CC-PVTZ AUX)
    Blend: AUG-CC-PVTZ-JKFIT
	 Reference Energy          =    -569.6738131928644862 [Eh]
	 Singles Energy            =      -0.0000000000000000 [Eh]
	 Same-Spin Energy          =      -0.5545505901568781 [Eh]
	 Opposite-Spin Energy      =      -1.7040874104377002 [Eh]
	 Correlation Energy        =      -2.2586380005945781 [Eh]
	 Total Energy              =    -571.9324511934590873 [Eh]

	 ================> DF-SCS-MP2 Energies <==================
	-----------------------------------------------------------
	 SCS Same-Spin Scale       =       0.3333333333333333 [-]
	 SCS Opposite-Spin Scale   =       1.2000000000000000 [-]
	 SCS Same-Spin Energy      =      -0.1848501967189594 [Eh]
	 SCS Opposite-Spin Energy  =      -2.0449048925252402 [Eh]
	 SCS Correlation Energy    =      -2.2297550892441995 [Eh]
	 SCS Total Energy          =    -571.9035682821087221 [Eh]
	-----------------------------------------------------------

  Dipole Moment: [D]
     X:    -2.1077      Y:    -0.9325      Z:    -0.3017     Total:     2.3244

*** Psi4 exiting successfully. Buy a developer a beer!
