                               Psi4 1.3.2 release

  ==> Input File <==

--------------------------------------------------------------------------
#psi4
#
memory 32 gb

molecule  {
0 1
  O       -0.1147700    -1.8002930     0.4548730
  O        0.3584290     1.3939840    -1.0246780
  O       -1.9551560     1.3713260     0.4690830
  O        2.7148150     0.4505790    -0.2056670
  O       -1.6716310    -0.8002260    -0.9984850
  C        0.4315910     1.0135520     0.3497470
  C       -0.9093320     0.4742750     0.8400700
  C        1.5266970     0.0071024     0.3498773
  C       -1.2151430    -0.9364420     0.3397180
  C        1.0549700    -1.3167000    -0.2286510
  H        0.7042560     1.8874530     0.9605880
  H       -0.8818830     0.4322700     1.9353370
  H        1.7837760    -0.2316310     1.4680400
  H       -1.9939520    -1.3968640     0.9617720
  H        0.8591032    -1.0927974    -1.2827812
  H        1.8059140    -2.1013880    -0.1265130
  H       -0.3930520     2.0121160    -1.0836700
  H       -2.3417080     0.9766970    -0.3400740
  H        2.3997000     0.9352960    -0.9928030
  H       -1.9956420    -1.6762600    -1.2784950
units angstrom
no_reorient  #important for SAPT in psi4, default
symmetry c1  #important for SAPT in psi4, default
}

set PROPERTIES_ORIGIN ["COM"]
properties('MP2/aug-cc-pvtz', properties = ['dipole'])
--------------------------------------------------------------------------

    Molecular point group: c1
  Charge       = 0
  Multiplicity = 1
  Basis Set: AUG-CC-PVTZ
    Blend: AUG-CC-PVTZ
  Basis Set: (AUG-CC-PVTZ AUX)
    Blend: AUG-CC-PVTZ-JKFIT

    Orbital Energies [Eh]
    ---------------------

    Doubly Occupied:

       1A    -20.591785     2A    -20.582247     3A    -20.575956
       4A    -20.571193     5A    -20.564645     6A    -11.354405
       7A    -11.299753     8A    -11.290196     9A    -11.286970
      10A    -11.277578    11A     -1.439310    12A     -1.398206
      13A     -1.381262    14A     -1.358074    15A     -1.352870
      16A     -1.061532    17A     -1.022596    18A     -0.902101
      19A     -0.869752    20A     -0.795229    21A     -0.752876
      22A     -0.730521    23A     -0.714721    24A     -0.699019
      25A     -0.671310    26A     -0.645298    27A     -0.623917
      28A     -0.616091    29A     -0.604158    30A     -0.580617
      31A     -0.574958    32A     -0.563763    33A     -0.544278
      34A     -0.511418    35A     -0.503555    36A     -0.493865
      37A     -0.487495    38A     -0.463633    39A     -0.444475
      40A     -0.412544

  @DF-RHF Final Energy:  -569.66508617133843

   => Energetics <=

    Nuclear Repulsion Energy =            634.8732112671953018
    One-Electron Energy =               -2043.8482462430274609
    Two-Electron Energy =                 839.3099488044937289
    Total Energy =                       -569.6650861713384302
  Basis Set: (AUG-CC-PVTZ AUX)
    Blend: AUG-CC-PVTZ-RI
    Molecular point group: c1

    Geometry (in Angstrom), charge = 0, multiplicity = 1:

       Center              X                  Y                   Z               Mass
    ------------   -----------------  -----------------  -----------------  -----------------
         O           -0.114249385218    -1.803539421939     0.460464893120    15.994914619570
         O            0.358949614782     1.390737578061    -1.019086106880    15.994914619570
         O           -1.954635385218     1.368079578061     0.474674893120    15.994914619570
         O            2.715335614782     0.447332578061    -0.200075106880    15.994914619570
         O           -1.671110385218    -0.803472421939    -0.992893106880    15.994914619570
         C            0.432111614782     1.010305578061     0.355338893120    12.000000000000
         C           -0.908811385218     0.471028578061     0.845661893120    12.000000000000
         C            1.527217614782     0.003855978061     0.355469193120    12.000000000000
         C           -1.214622385218    -0.939688421939     0.345309893120    12.000000000000
         C            1.055490614782    -1.319946421939    -0.223059106880    12.000000000000
         H            0.704776614782     1.884206578061     0.966179893120     1.007825032230
         H           -0.881362385218     0.429023578061     1.940928893120     1.007825032230
         H            1.784296614782    -0.234877421939     1.473631893120     1.007825032230
         H           -1.993431385218    -1.400110421939     0.967363893120     1.007825032230
         H            0.859623814782    -1.096043821939    -1.277189306880     1.007825032230
         H            1.806434614782    -2.104634421939    -0.120921106880     1.007825032230
         H           -0.392531385218     2.008869578061    -1.078078106880     1.007825032230
         H           -2.341187385218     0.973450578061    -0.334482106880     1.007825032230
         H            2.400220614782     0.932049578061    -0.987211106880     1.007825032230
         H           -1.995121385218    -1.679506421939    -1.272903106880     1.007825032230

  Basis Set: AUG-CC-PVTZ
    Blend: AUG-CC-PVTZ
  Basis Set: (AUG-CC-PVTZ AUX)
    Blend: AUG-CC-PVTZ-JKFIT
	 Reference Energy          =    -569.6650861713384302 [Eh]
	 Singles Energy            =      -0.0000000000000000 [Eh]
	 Same-Spin Energy          =      -0.5553729985103448 [Eh]
	 Opposite-Spin Energy      =      -1.7048679497742625 [Eh]
	 Correlation Energy        =      -2.2602409482846073 [Eh]
	 Total Energy              =    -571.9253271196230344 [Eh]

	 ================> DF-SCS-MP2 Energies <==================
	-----------------------------------------------------------
	 SCS Same-Spin Scale       =       0.3333333333333333 [-]
	 SCS Opposite-Spin Scale   =       1.2000000000000000 [-]
	 SCS Same-Spin Energy      =      -0.1851243328367816 [Eh]
	 SCS Opposite-Spin Energy  =      -2.0458415397291150 [Eh]
	 SCS Correlation Energy    =      -2.2309658725658967 [Eh]
	 SCS Total Energy          =    -571.8960520439043194 [Eh]
	-----------------------------------------------------------

  Dipole Moment: [D]
     X:    -2.1549      Y:    -0.8891      Z:    -0.4169     Total:     2.3681

*** Psi4 exiting successfully. Buy a developer a beer!
