                               Psi4 1.3.2 release

  ==> Input File <==

--------------------------------------------------------------------------
#psi4
#
memory 32 gb

molecule  {
0 1
  O       -0.1147700    -1.8002930     0.4548730
  O        0.3584290     1.3939840    -1.0246780
  O       -1.9551560     1.3713260     0.4690830
  O        2.7148150     0.4505790    -0.2056670
  O       -1.6716310    -0.8002260    -0.9984850
  C        0.4315910     1.0135520     0.3497470
  C       -0.9093320     0.4742750     0.8400700
  C        1.5345100    -0.0288940     0.4204030
  C       -1.2151430    -0.9364420     0.3397180
  C        1.0549700    -1.3167000    -0.2286510
  H        0.7042560     1.8874530     0.9605880
  H       -0.8818830     0.4322700     1.9353370
  H        1.7837760    -0.2316310     1.4680400
  H       -1.9939520    -1.3968640     0.9617720
  H        0.8821974    -1.1784250    -1.0961736
  H        1.8059140    -2.1013880    -0.1265130
  H       -0.3930520     2.0121160    -1.0836700
  H       -2.3417080     0.9766970    -0.3400740
  H        2.3997000     0.9352960    -0.9928030
  H       -1.9956420    -1.6762600    -1.2784950
units angstrom
no_reorient  #important for SAPT in psi4, default
symmetry c1  #important for SAPT in psi4, default
}

set PROPERTIES_ORIGIN ["COM"]
properties('MP2/aug-cc-pvtz', properties = ['dipole'])
--------------------------------------------------------------------------

    Molecular point group: c1
  Charge       = 0
  Multiplicity = 1
  Basis Set: AUG-CC-PVTZ
    Blend: AUG-CC-PVTZ
  Basis Set: (AUG-CC-PVTZ AUX)
    Blend: AUG-CC-PVTZ-JKFIT

    Orbital Energies [Eh]
    ---------------------

    Doubly Occupied:

       1A    -20.591743     2A    -20.578520     3A    -20.574491
       4A    -20.571708     5A    -20.558476     6A    -11.353341
       7A    -11.298139     8A    -11.290945     9A    -11.284271
      10A    -11.255189    11A     -1.438529    12A     -1.391632
      13A     -1.375828    14A     -1.353713    15A     -1.348010
      16A     -1.060387    17A     -1.032378    18A     -0.910572
      19A     -0.871715    20A     -0.805885    21A     -0.760018
      22A     -0.728896    23A     -0.715571    24A     -0.696391
      25A     -0.669934    26A     -0.655940    27A     -0.621021
      28A     -0.616359    29A     -0.602838    30A     -0.584460
      31A     -0.579226    32A     -0.556786    33A     -0.542765
      34A     -0.516107    35A     -0.503746    36A     -0.495965
      37A     -0.487740    38A     -0.476680    39A     -0.440511
      40A     -0.416131

  @DF-RHF Final Energy:  -569.64188118144546

   => Energetics <=

    Nuclear Repulsion Energy =            634.9049463444792991
    One-Electron Energy =               -2043.8685310557502817
    Two-Electron Energy =                 839.3217035298254132
    Total Energy =                       -569.6418811814454557
  Basis Set: (AUG-CC-PVTZ AUX)
    Blend: AUG-CC-PVTZ-RI
    Molecular point group: c1

    Geometry (in Angstrom), charge = 0, multiplicity = 1:

       Center              X                  Y                   Z               Mass
    ------------   -----------------  -----------------  -----------------  -----------------
         O           -0.115029316646    -1.800085608629     0.453571479275    15.994914619570
         O            0.358169683354     1.394191391371    -1.025979520725    15.994914619570
         O           -1.955415316646     1.371533391371     0.467781479275    15.994914619570
         O            2.714555683354     0.450786391371    -0.206968520725    15.994914619570
         O           -1.671890316646    -0.800018608629    -0.999786520725    15.994914619570
         C            0.431331683354     1.013759391371     0.348445479275    12.000000000000
         C           -0.909591316646     0.474482391371     0.838768479275    12.000000000000
         C            1.534250683354    -0.028686608629     0.419101479275    12.000000000000
         C           -1.215402316646    -0.936234608629     0.338416479275    12.000000000000
         C            1.054710683354    -1.316492608629    -0.229952520725    12.000000000000
         H            0.703996683354     1.887660391371     0.959286479275     1.007825032230
         H           -0.882142316646     0.432477391371     1.934035479275     1.007825032230
         H            1.783516683354    -0.231423608629     1.466738479275     1.007825032230
         H           -1.994211316646    -1.396656608629     0.960470479275     1.007825032230
         H            0.881938083354    -1.178217608629    -1.097475120725     1.007825032230
         H            1.805654683354    -2.101180608629    -0.127814520725     1.007825032230
         H           -0.393311316646     2.012323391371    -1.084971520725     1.007825032230
         H           -2.341967316646     0.976904391371    -0.341375520725     1.007825032230
         H            2.399440683354     0.935503391371    -0.994104520725     1.007825032230
         H           -1.995901316646    -1.676052608629    -1.279796520725     1.007825032230

  Basis Set: AUG-CC-PVTZ
    Blend: AUG-CC-PVTZ
  Basis Set: (AUG-CC-PVTZ AUX)
    Blend: AUG-CC-PVTZ-JKFIT
	 Reference Energy          =    -569.6418811814454557 [Eh]
	 Singles Energy            =      -0.0000000000000000 [Eh]
	 Same-Spin Energy          =      -0.5542303036723298 [Eh]
	 Opposite-Spin Energy      =      -1.7028281217954482 [Eh]
	 Correlation Energy        =      -2.2570584254677781 [Eh]
	 Total Energy              =    -571.8989396069132454 [Eh]

	 ================> DF-SCS-MP2 Energies <==================
	-----------------------------------------------------------
	 SCS Same-Spin Scale       =       0.3333333333333333 [-]
	 SCS Opposite-Spin Scale   =       1.2000000000000000 [-]
	 SCS Same-Spin Energy      =      -0.1847434345574433 [Eh]
	 SCS Opposite-Spin Energy  =      -2.0433937461545377 [Eh]
	 SCS Correlation Energy    =      -2.2281371807119812 [Eh]
	 SCS Total Energy          =    -571.8700183621574524 [Eh]
	-----------------------------------------------------------

  Dipole Moment: [D]
     X:    -2.1422      Y:    -1.0017      Z:    -0.3493     Total:     2.3905

*** Psi4 exiting successfully. Buy a developer a beer!
