                               Psi4 1.3.2 release

  ==> Input File <==

--------------------------------------------------------------------------
#psi4
#
memory 32 gb

molecule  {
0 1
  O       -0.1147700    -1.8002930     0.4548730
  O        0.3584290     1.3939840    -1.0246780
  O       -1.9551560     1.3713260     0.4690830
  O        2.7086408     0.4516674    -0.2163508
  O       -1.6716310    -0.8002260    -0.9984850
  C        0.4315910     1.0135520     0.3497470
  C       -0.9093320     0.4742750     0.8400700
  C        1.5345100    -0.0288940     0.4204030
  C       -1.2151430    -0.9364420     0.3397180
  C        1.0549700    -1.3167000    -0.2286510
  H        0.7042560     1.8874530     0.9605880
  H       -0.8818830     0.4322700     1.9353370
  H        1.7747733    -0.2344575     1.4695914
  H       -1.9939520    -1.3968640     0.9617720
  H        0.8436020    -1.1475360    -1.2899680
  H        1.8059140    -2.1013880    -0.1265130
  H       -0.3930520     2.0121160    -1.0836700
  H       -2.3417080     0.9766970    -0.3400740
  H        2.3997000     0.9352960    -0.9928030
  H       -1.9956420    -1.6762600    -1.2784950
units angstrom
no_reorient  #important for SAPT in psi4, default
symmetry c1  #important for SAPT in psi4, default
}

set PROPERTIES_ORIGIN ["COM"]
properties('MP2/aug-cc-pvtz', properties = ['dipole'])
--------------------------------------------------------------------------

    Molecular point group: c1
  Charge       = 0
  Multiplicity = 1
  Basis Set: AUG-CC-PVTZ
    Blend: AUG-CC-PVTZ
  Basis Set: (AUG-CC-PVTZ AUX)
    Blend: AUG-CC-PVTZ-JKFIT

    Orbital Energies [Eh]
    ---------------------

    Doubly Occupied:

       1A    -20.591528     2A    -20.580664     3A    -20.574558
       4A    -20.570959     5A    -20.557176     6A    -11.353813
       7A    -11.298309     8A    -11.290926     9A    -11.285993
      10A    -11.278020    11A     -1.438675    12A     -1.391768
      13A     -1.376211    14A     -1.354111    15A     -1.348536
      16A     -1.059405    17A     -1.023185    18A     -0.898674
      19A     -0.870507    20A     -0.798695    21A     -0.752166
      22A     -0.727720    23A     -0.712000    24A     -0.696255
      25A     -0.670769    26A     -0.647170    27A     -0.620913
      28A     -0.614038    29A     -0.602850    30A     -0.585533
      31A     -0.571543    32A     -0.556086    33A     -0.542953
      34A     -0.516259    35A     -0.502579    36A     -0.490930
      37A     -0.487554    38A     -0.471501    39A     -0.440618
      40A     -0.415778

  @DF-RHF Final Energy:  -569.67521482042844

   => Energetics <=

    Nuclear Repulsion Energy =            634.0011327240564469
    One-Electron Energy =               -2042.2188365041529323
    Two-Electron Energy =                 838.5424889596681624
    Total Energy =                       -569.6752148204284367
  Basis Set: (AUG-CC-PVTZ AUX)
    Blend: AUG-CC-PVTZ-RI
    Molecular point group: c1

    Geometry (in Angstrom), charge = 0, multiplicity = 1:

       Center              X                  Y                   Z               Mass
    ------------   -----------------  -----------------  -----------------  -----------------
         O           -0.114051485272    -1.800390107765     0.456001515366    15.994914619570
         O            0.359147514728     1.393886892235    -1.023549484634    15.994914619570
         O           -1.954437485272     1.371228892235     0.470211515366    15.994914619570
         O            2.709359314728     0.451570292235    -0.215222284634    15.994914619570
         O           -1.670912485272    -0.800323107765    -0.997356484634    15.994914619570
         C            0.432309514728     1.013454892235     0.350875515366    12.000000000000
         C           -0.908613485272     0.474177892235     0.841198515366    12.000000000000
         C            1.535228514728    -0.028991107765     0.421531515366    12.000000000000
         C           -1.214424485272    -0.936539107765     0.340846515366    12.000000000000
         C            1.055688514728    -1.316797107765    -0.227522484634    12.000000000000
         H            0.704974514728     1.887355892235     0.961716515366     1.007825032230
         H           -0.881164485272     0.432172892235     1.936465515366     1.007825032230
         H            1.775491814728    -0.234554607765     1.470719915366     1.007825032230
         H           -1.993233485272    -1.396961107765     0.962900515366     1.007825032230
         H            0.844320514728    -1.147633107765    -1.288839484634     1.007825032230
         H            1.806632514728    -2.101485107765    -0.125384484634     1.007825032230
         H           -0.392333485272     2.012018892235    -1.082541484634     1.007825032230
         H           -2.340989485272     0.976599892235    -0.338945484634     1.007825032230
         H            2.400418514728     0.935198892235    -0.991674484634     1.007825032230
         H           -1.994923485272    -1.676357107765    -1.277366484634     1.007825032230

  Basis Set: AUG-CC-PVTZ
    Blend: AUG-CC-PVTZ
  Basis Set: (AUG-CC-PVTZ AUX)
    Blend: AUG-CC-PVTZ-JKFIT
	 Reference Energy          =    -569.6752148204284367 [Eh]
	 Singles Energy            =      -0.0000000000000000 [Eh]
	 Same-Spin Energy          =      -0.5544682744743950 [Eh]
	 Opposite-Spin Energy      =      -1.7035319005582596 [Eh]
	 Correlation Energy        =      -2.2580001750326546 [Eh]
	 Total Energy              =    -571.9332149954610713 [Eh]

	 ================> DF-SCS-MP2 Energies <==================
	-----------------------------------------------------------
	 SCS Same-Spin Scale       =       0.3333333333333333 [-]
	 SCS Opposite-Spin Scale   =       1.2000000000000000 [-]
	 SCS Same-Spin Energy      =      -0.1848227581581317 [Eh]
	 SCS Opposite-Spin Energy  =      -2.0442382806699113 [Eh]
	 SCS Correlation Energy    =      -2.2290610388280427 [Eh]
	 SCS Total Energy          =    -571.9042758592564724 [Eh]
	-----------------------------------------------------------

  Dipole Moment: [D]
     X:    -2.1726      Y:    -0.9948      Z:    -0.2818     Total:     2.4061

*** Psi4 exiting successfully. Buy a developer a beer!
