                               Psi4 1.3.2 release

  ==> Input File <==

--------------------------------------------------------------------------
#psi4
#
memory 32 gb

molecule  {
0 1
  O       -0.1147700    -1.8002930     0.4548730
  O        0.3584290     1.3939840    -1.0246780
  O       -1.9551560     1.3713260     0.4690830
  O        2.7148150     0.4505790    -0.2056670
  O       -1.6716310    -0.8002260    -0.9984850
  C        0.4315910     1.0135520     0.3497470
  C       -0.9093320     0.4742750     0.8400700
  C        1.5483844    -0.0393310     0.4380765
  C       -1.2151430    -0.9364420     0.3397180
  C        1.0549700    -1.3167000    -0.2286510
  H        0.7042560     1.8874530     0.9605880
  H       -0.8818830     0.4322700     1.9353370
  H        1.7837760    -0.2316310     1.4680400
  H       -1.9939520    -1.3968640     0.9617720
  H        0.8436020    -1.1475360    -1.2899680
  H        1.8059140    -2.1013880    -0.1265130
  H       -0.3930520     2.0121160    -1.0836700
  H       -2.3417080     0.9766970    -0.3400740
  H        2.4158538     0.9389467    -0.9968372
  H       -1.9956420    -1.6762600    -1.2784950
units angstrom
no_reorient  #important for SAPT in psi4, default
symmetry c1  #important for SAPT in psi4, default
}

set PROPERTIES_ORIGIN ["COM"]
properties('MP2/aug-cc-pvtz', properties = ['dipole'])
--------------------------------------------------------------------------

    Molecular point group: c1
  Charge       = 0
  Multiplicity = 1
  Basis Set: AUG-CC-PVTZ
    Blend: AUG-CC-PVTZ
  Basis Set: (AUG-CC-PVTZ AUX)
    Blend: AUG-CC-PVTZ-JKFIT

    Orbital Energies [Eh]
    ---------------------

    Doubly Occupied:

       1A    -20.591316     2A    -20.580547     3A    -20.573994
       4A    -20.570687     5A    -20.557328     6A    -11.353488
       7A    -11.297674     8A    -11.291007     9A    -11.285624
      10A    -11.278109    11A     -1.438328    12A     -1.390227
      13A     -1.374810    14A     -1.353500    15A     -1.346845
      16A     -1.056691    17A     -1.022722    18A     -0.897006
      19A     -0.870503    20A     -0.799671    21A     -0.752059
      22A     -0.726117    23A     -0.711212    24A     -0.695483
      25A     -0.669879    26A     -0.646991    27A     -0.620798
      28A     -0.612931    29A     -0.602633    30A     -0.587602
      31A     -0.571182    32A     -0.554439    33A     -0.542689
      34A     -0.516118    35A     -0.502221    36A     -0.490452
      37A     -0.487587    38A     -0.471506    39A     -0.438322
      40A     -0.414781

  @DF-RHF Final Energy:  -569.67446868762192

   => Energetics <=

    Nuclear Repulsion Energy =            633.3684935908512443
    One-Electron Energy =               -2040.9957658516257197
    Two-Electron Energy =                 837.9528035731526643
    Total Energy =                       -569.6744686876219248
  Basis Set: (AUG-CC-PVTZ AUX)
    Blend: AUG-CC-PVTZ-RI
    Molecular point group: c1

    Geometry (in Angstrom), charge = 0, multiplicity = 1:

       Center              X                  Y                   Z               Mass
    ------------   -----------------  -----------------  -----------------  -----------------
         O           -0.115988149613    -1.799482927362     0.453486806527    15.994914619570
         O            0.357210850387     1.394794072638    -1.026064193473    15.994914619570
         O           -1.956374149613     1.372136072638     0.467696806527    15.994914619570
         O            2.713596850387     0.451389072638    -0.207053193473    15.994914619570
         O           -1.672849149613    -0.799415927362    -0.999871193473    15.994914619570
         C            0.430372850387     1.014362072638     0.348360806527    12.000000000000
         C           -0.910550149613     0.475085072638     0.838683806527    12.000000000000
         C            1.547166250387    -0.038520927362     0.436690306527    12.000000000000
         C           -1.216361149613    -0.935631927362     0.338331806527    12.000000000000
         C            1.053751850387    -1.315889927362    -0.230037193473    12.000000000000
         H            0.703037850387     1.888263072638     0.959201806527     1.007825032230
         H           -0.883101149613     0.433080072638     1.933950806527     1.007825032230
         H            1.782557850387    -0.230820927362     1.466653806527     1.007825032230
         H           -1.995170149613    -1.396053927362     0.960385806527     1.007825032230
         H            0.842383850387    -1.146725927362    -1.291354193473     1.007825032230
         H            1.804695850387    -2.100577927362    -0.127899193473     1.007825032230
         H           -0.394270149613     2.012926072638    -1.085056193473     1.007825032230
         H           -2.342926149613     0.977507072638    -0.341460193473     1.007825032230
         H            2.414635650387     0.939756772638    -0.998223393473     1.007825032230
         H           -1.996860149613    -1.675449927362    -1.279881193473     1.007825032230

  Basis Set: AUG-CC-PVTZ
    Blend: AUG-CC-PVTZ
  Basis Set: (AUG-CC-PVTZ AUX)
    Blend: AUG-CC-PVTZ-JKFIT
	 Reference Energy          =    -569.6744686876219248 [Eh]
	 Singles Energy            =      -0.0000000000000000 [Eh]
	 Same-Spin Energy          =      -0.5543905311598838 [Eh]
	 Opposite-Spin Energy      =      -1.7035837717633728 [Eh]
	 Correlation Energy        =      -2.2579743029232566 [Eh]
	 Total Energy              =    -571.9324429905451552 [Eh]

	 ================> DF-SCS-MP2 Energies <==================
	-----------------------------------------------------------
	 SCS Same-Spin Scale       =       0.3333333333333333 [-]
	 SCS Opposite-Spin Scale   =       1.2000000000000000 [-]
	 SCS Same-Spin Energy      =      -0.1847968437199612 [Eh]
	 SCS Opposite-Spin Energy  =      -2.0443005261160474 [Eh]
	 SCS Correlation Energy    =      -2.2290973698360088 [Eh]
	 SCS Total Energy          =    -571.9035660574579651 [Eh]
	-----------------------------------------------------------

  Dipole Moment: [D]
     X:    -2.1340      Y:    -1.0027      Z:    -0.2894     Total:     2.3755

*** Psi4 exiting successfully. Buy a developer a beer!
