                               Psi4 1.3.2 release

  ==> Input File <==

--------------------------------------------------------------------------
#psi4
#
memory 32 gb

molecule  {
0 1
  O       -0.1147700    -1.8002930     0.4548730
  O        0.3584290     1.3939840    -1.0246780
  O       -1.9551560     1.3713260     0.4690830
  O        2.7148150     0.4505790    -0.2056670
  O       -1.6716310    -0.8002260    -0.9984850
  C        0.4315910     1.0135520     0.3497470
  C       -0.9093320     0.4742750     0.8400700
  C        1.5345100    -0.0288940     0.4204030
  C       -1.2160562    -0.9449490     0.3649718
  C        1.0549700    -1.3167000    -0.2286510
  H        0.7042560     1.8874530     0.9605880
  H       -0.8857493     0.4135454     1.9345486
  H        1.7837760    -0.2316310     1.4680400
  H       -1.9939520    -1.3968640     0.9617720
  H        0.8436020    -1.1475360    -1.2899680
  H        1.8059140    -2.1013880    -0.1265130
  H       -0.3930520     2.0121160    -1.0836700
  H       -2.3417080     0.9766970    -0.3400740
  H        2.3997000     0.9352960    -0.9928030
  H       -1.9956420    -1.6762600    -1.2784950
units angstrom
no_reorient  #important for SAPT in psi4, default
symmetry c1  #important for SAPT in psi4, default
}

set PROPERTIES_ORIGIN ["COM"]
properties('MP2/aug-cc-pvtz', properties = ['dipole'])
--------------------------------------------------------------------------

    Molecular point group: c1
  Charge       = 0
  Multiplicity = 1
  Basis Set: AUG-CC-PVTZ
    Blend: AUG-CC-PVTZ
  Basis Set: (AUG-CC-PVTZ AUX)
    Blend: AUG-CC-PVTZ-JKFIT

    Orbital Energies [Eh]
    ---------------------

    Doubly Occupied:

       1A    -20.587412     2A    -20.581873     3A    -20.574822
       4A    -20.571175     5A    -20.558602     6A    -11.353757
       7A    -11.298766     8A    -11.291739     9A    -11.286130
      10A    -11.279102    11A     -1.435510    12A     -1.391385
      13A     -1.375215    14A     -1.349605    15A     -1.347763
      16A     -1.059424    17A     -1.025129    18A     -0.899062
      19A     -0.871292    20A     -0.796798    21A     -0.751822
      22A     -0.726925    23A     -0.712248    24A     -0.694496
      25A     -0.668885    26A     -0.646268    27A     -0.620185
      28A     -0.614994    29A     -0.602021    30A     -0.584354
      31A     -0.570982    32A     -0.555800    33A     -0.542752
      34A     -0.516228    35A     -0.503791    36A     -0.491445
      37A     -0.485795    38A     -0.471699    39A     -0.442027
      40A     -0.416689

  @DF-RHF Final Energy:  -569.67371346034724

   => Energetics <=

    Nuclear Repulsion Energy =            633.5055534684848908
    One-Electron Energy =               -2041.2506056691825052
    Two-Electron Energy =                 838.0713387403502566
    Total Energy =                       -569.6737134603472441
  Basis Set: (AUG-CC-PVTZ AUX)
    Blend: AUG-CC-PVTZ-RI
    Molecular point group: c1

    Geometry (in Angstrom), charge = 0, multiplicity = 1:

       Center              X                  Y                   Z               Mass
    ------------   -----------------  -----------------  -----------------  -----------------
         O           -0.114671093702    -1.799486990015     0.452858795695    15.994914619570
         O            0.358527906298     1.394790009985    -1.026692204305    15.994914619570
         O           -1.955057093702     1.372132009985     0.467068795695    15.994914619570
         O            2.714913906298     0.451385009985    -0.207681204305    15.994914619570
         O           -1.671532093702    -0.799419990015    -1.000499204305    15.994914619570
         C            0.431689906298     1.014358009985     0.347732795695    12.000000000000
         C           -0.909233093702     0.475081009985     0.838055795695    12.000000000000
         C            1.534608906298    -0.028087990015     0.418388795695    12.000000000000
         C           -1.215957293702    -0.944142990015     0.362957595695    12.000000000000
         C            1.055068906298    -1.315893990015    -0.230665204305    12.000000000000
         H            0.704354906298     1.888259009985     0.958573795695     1.007825032230
         H           -0.885650393702     0.414351409985     1.932534395695     1.007825032230
         H            1.783874906298    -0.230824990015     1.466025795695     1.007825032230
         H           -1.993853093702    -1.396057990015     0.959757795695     1.007825032230
         H            0.843700906298    -1.146729990015    -1.291982204305     1.007825032230
         H            1.806012906298    -2.100581990015    -0.128527204305     1.007825032230
         H           -0.392953093702     2.012922009985    -1.085684204305     1.007825032230
         H           -2.341609093702     0.977503009985    -0.342088204305     1.007825032230
         H            2.399798906298     0.936102009985    -0.994817204305     1.007825032230
         H           -1.995543093702    -1.675453990015    -1.280509204305     1.007825032230

  Basis Set: AUG-CC-PVTZ
    Blend: AUG-CC-PVTZ
  Basis Set: (AUG-CC-PVTZ AUX)
    Blend: AUG-CC-PVTZ-JKFIT
	 Reference Energy          =    -569.6737134603472441 [Eh]
	 Singles Energy            =      -0.0000000000000000 [Eh]
	 Same-Spin Energy          =      -0.5546125435738438 [Eh]
	 Opposite-Spin Energy      =      -1.7041145504177935 [Eh]
	 Correlation Energy        =      -2.2587270939916371 [Eh]
	 Total Energy              =    -571.9324405543388821 [Eh]

	 ================> DF-SCS-MP2 Energies <==================
	-----------------------------------------------------------
	 SCS Same-Spin Scale       =       0.3333333333333333 [-]
	 SCS Opposite-Spin Scale   =       1.2000000000000000 [-]
	 SCS Same-Spin Energy      =      -0.1848708478579479 [Eh]
	 SCS Opposite-Spin Energy  =      -2.0449374605013522 [Eh]
	 SCS Correlation Energy    =      -2.2298083083593001 [Eh]
	 SCS Total Energy          =    -571.9035217687065824 [Eh]
	-----------------------------------------------------------

  Dipole Moment: [D]
     X:    -2.1304      Y:    -1.0137      Z:    -0.2022     Total:     2.3679

*** Psi4 exiting successfully. Buy a developer a beer!
