                               Psi4 1.3.2 release

  ==> Input File <==

--------------------------------------------------------------------------
#psi4
#
memory 32 gb

molecule  {
0 1
  O       -0.1147700    -1.8002930     0.4548730
  O        0.3584290     1.3939840    -1.0246780
  O       -1.9551560     1.3713260     0.4690830
  O        2.7148150     0.4505790    -0.2056670
  O       -1.6716310    -0.8002260    -0.9984850
  C        0.4315910     1.0135520     0.3497470
  C       -0.9088122     0.4647222     0.8308040
  C        1.5345100    -0.0288940     0.4204030
  C       -1.2151430    -0.9364420     0.3397180
  C        1.0549700    -1.3167000    -0.2286510
  H        0.7123482     1.8884262     0.9555081
  H       -0.8818830     0.4322700     1.9353370
  H        1.7837760    -0.2316310     1.4680400
  H       -1.9939520    -1.3968640     0.9617720
  H        0.8436020    -1.1475360    -1.2899680
  H        1.8059140    -2.1013880    -0.1265130
  H       -0.3930520     2.0121160    -1.0836700
  H       -2.3417080     0.9766970    -0.3400740
  H        2.3997000     0.9352960    -0.9928030
  H       -1.9956420    -1.6762600    -1.2784950
units angstrom
no_reorient  #important for SAPT in psi4, default
symmetry c1  #important for SAPT in psi4, default
}

set PROPERTIES_ORIGIN ["COM"]
properties('MP2/aug-cc-pvtz', properties = ['dipole'])
--------------------------------------------------------------------------

    Molecular point group: c1
  Charge       = 0
  Multiplicity = 1
  Basis Set: AUG-CC-PVTZ
    Blend: AUG-CC-PVTZ
  Basis Set: (AUG-CC-PVTZ AUX)
    Blend: AUG-CC-PVTZ-JKFIT

    Orbital Energies [Eh]
    ---------------------

    Doubly Occupied:

       1A    -20.591712     2A    -20.581051     3A    -20.574635
       4A    -20.570900     5A    -20.558315     6A    -11.354002
       7A    -11.298678     8A    -11.291289     9A    -11.285585
      10A    -11.278300    11A     -1.439298    12A     -1.391290
      13A     -1.375411    14A     -1.353952    15A     -1.347596
      16A     -1.059510    17A     -1.024239    18A     -0.900028
      19A     -0.869302    20A     -0.797988    21A     -0.752830
      22A     -0.727720    23A     -0.712553    24A     -0.695111
      25A     -0.669559    26A     -0.645866    27A     -0.621285
      28A     -0.614553    29A     -0.602352    30A     -0.584145
      31A     -0.571514    32A     -0.556725    33A     -0.542020
      34A     -0.515762    35A     -0.502920    36A     -0.491645
      37A     -0.487821    38A     -0.471863    39A     -0.440518
      40A     -0.417030

  @DF-RHF Final Energy:  -569.67403423220674

   => Energetics <=

    Nuclear Repulsion Energy =            634.0178323361049024
    One-Electron Energy =               -2042.2499917517779977
    Two-Electron Energy =                 838.5581251834663590
    Total Energy =                       -569.6740342322067363
  Basis Set: (AUG-CC-PVTZ AUX)
    Blend: AUG-CC-PVTZ-RI
    Molecular point group: c1

    Geometry (in Angstrom), charge = 0, multiplicity = 1:

       Center              X                  Y                   Z               Mass
    ------------   -----------------  -----------------  -----------------  -----------------
         O           -0.114866012232    -1.799535655117     0.455648231252    15.994914619570
         O            0.358332987768     1.394741344883    -1.023902768748    15.994914619570
         O           -1.955252012232     1.372083344883     0.469858231252    15.994914619570
         O            2.714718987768     0.451336344883    -0.204891768748    15.994914619570
         O           -1.671727012232    -0.799468655117    -0.997709768748    15.994914619570
         C            0.431494987768     1.014309344883     0.350522231252    12.000000000000
         C           -0.908908212232     0.465479544883     0.831579231252    12.000000000000
         C            1.534413987768    -0.028136655117     0.421178231252    12.000000000000
         C           -1.215239012232    -0.935684655117     0.340493231252    12.000000000000
         C            1.054873987768    -1.315942655117    -0.227875768748    12.000000000000
         H            0.712252187768     1.889183544883     0.956283331252     1.007825032230
         H           -0.881979012232     0.433027344883     1.936112231252     1.007825032230
         H            1.783679987768    -0.230873655117     1.468815231252     1.007825032230
         H           -1.994048012232    -1.396106655117     0.962547231252     1.007825032230
         H            0.843505987768    -1.146778655117    -1.289192768748     1.007825032230
         H            1.805817987768    -2.100630655117    -0.125737768748     1.007825032230
         H           -0.393148012232     2.012873344883    -1.082894768748     1.007825032230
         H           -2.341804012232     0.977454344883    -0.339298768748     1.007825032230
         H            2.399603987768     0.936053344883    -0.992027768748     1.007825032230
         H           -1.995738012232    -1.675502655117    -1.277719768748     1.007825032230

  Basis Set: AUG-CC-PVTZ
    Blend: AUG-CC-PVTZ
  Basis Set: (AUG-CC-PVTZ AUX)
    Blend: AUG-CC-PVTZ-JKFIT
	 Reference Energy          =    -569.6740342322067363 [Eh]
	 Singles Energy            =      -0.0000000000000000 [Eh]
	 Same-Spin Energy          =      -0.5547352516724539 [Eh]
	 Opposite-Spin Energy      =      -1.7041452017698950 [Eh]
	 Correlation Energy        =      -2.2588804534423490 [Eh]
	 Total Energy              =    -571.9329146856490524 [Eh]

	 ================> DF-SCS-MP2 Energies <==================
	-----------------------------------------------------------
	 SCS Same-Spin Scale       =       0.3333333333333333 [-]
	 SCS Opposite-Spin Scale   =       1.2000000000000000 [-]
	 SCS Same-Spin Energy      =      -0.1849117505574846 [Eh]
	 SCS Opposite-Spin Energy  =      -2.0449742421238741 [Eh]
	 SCS Correlation Energy    =      -2.2298859926813588 [Eh]
	 SCS Total Energy          =    -571.9039202248881111 [Eh]
	-----------------------------------------------------------

  Dipole Moment: [D]
     X:    -2.1721      Y:    -1.0043      Z:    -0.3057     Total:     2.4125

*** Psi4 exiting successfully. Buy a developer a beer!
