                               Psi4 1.3.2 release

  ==> Input File <==

--------------------------------------------------------------------------
#psi4
#
memory 32 gb

molecule  {
0 1
  O       -0.1147700    -1.8002930     0.4548730
  O        0.3584290     1.3939840    -1.0246780
  O       -1.9551560     1.3713260     0.4690830
  O        2.7148150     0.4505790    -0.2056670
  O       -1.6794420    -0.8741289    -1.0012767
  C        0.4315910     1.0135520     0.3497470
  C       -0.8876964     0.4424487     0.9101864
  C        1.5345100    -0.0288940     0.4204030
  C       -1.2151430    -0.9364420     0.3397180
  C        1.0549700    -1.3167000    -0.2286510
  H        0.7042560     1.8874530     0.9605880
  H       -0.8818830     0.4322700     1.9353370
  H        1.7837760    -0.2316310     1.4680400
  H       -1.9939520    -1.3968640     0.9617720
  H        0.8436020    -1.1475360    -1.2899680
  H        1.8059140    -2.1013880    -0.1265130
  H       -0.3930520     2.0121160    -1.0836700
  H       -2.3417080     0.9766970    -0.3400740
  H        2.3997000     0.9352960    -0.9928030
  H       -1.9956420    -1.6762600    -1.2784950
units angstrom
no_reorient  #important for SAPT in psi4, default
symmetry c1  #important for SAPT in psi4, default
}

set PROPERTIES_ORIGIN ["COM"]
properties('MP2/aug-cc-pvtz', properties = ['dipole'])
--------------------------------------------------------------------------

    Molecular point group: c1
  Charge       = 0
  Multiplicity = 1
  Basis Set: AUG-CC-PVTZ
    Blend: AUG-CC-PVTZ
  Basis Set: (AUG-CC-PVTZ AUX)
    Blend: AUG-CC-PVTZ-JKFIT

    Orbital Energies [Eh]
    ---------------------

    Doubly Occupied:

       1A    -20.583096     2A    -20.578229     3A    -20.574543
       4A    -20.570814     5A    -20.557992     6A    -11.356350
       7A    -11.301580     8A    -11.294549     9A    -11.285616
      10A    -11.277786    11A     -1.442016    12A     -1.390755
      13A     -1.369591    14A     -1.354792    15A     -1.343614
      16A     -1.062506    17A     -1.027712    18A     -0.901599
      19A     -0.874743    20A     -0.807276    21A     -0.753652
      22A     -0.731408    23A     -0.709494    24A     -0.695117
      25A     -0.671119    26A     -0.647999    27A     -0.621376
      28A     -0.613692    29A     -0.605252    30A     -0.585239
      31A     -0.571377    32A     -0.553069    33A     -0.546027
      34A     -0.517951    35A     -0.502150    36A     -0.491231
      37A     -0.489184    38A     -0.470161    39A     -0.440807
      40A     -0.416314

  @DF-RHF Final Energy:  -569.66590815398672

   => Energetics <=

    Nuclear Repulsion Energy =            632.3335386929701372
    One-Electron Energy =               -2038.8233405815033166
    Two-Electron Energy =                 836.8238937345465729
    Total Energy =                       -569.6659081539867202
  Basis Set: (AUG-CC-PVTZ AUX)
    Blend: AUG-CC-PVTZ-RI
    Molecular point group: c1

    Geometry (in Angstrom), charge = 0, multiplicity = 1:

       Center              X                  Y                   Z               Mass
    ------------   -----------------  -----------------  -----------------  -----------------
         O           -0.115667715241    -1.789870169604     0.449563337770    15.994914619570
         O            0.357531284759     1.404406830396    -1.029987662230    15.994914619570
         O           -1.956053715241     1.381748830396     0.463773337770    15.994914619570
         O            2.713917284759     0.461001830396    -0.210976662230    15.994914619570
         O           -1.680339715241    -0.863706069604    -1.006586362230    15.994914619570
         C            0.430693284759     1.023974830396     0.344437337770    12.000000000000
         C           -0.888594115241     0.452871530396     0.904876737770    12.000000000000
         C            1.533612284759    -0.018471169604     0.415093337770    12.000000000000
         C           -1.216040715241    -0.926019169604     0.334408337770    12.000000000000
         C            1.054072284759    -1.306277169604    -0.233960662230    12.000000000000
         H            0.703358284759     1.897875830396     0.955278337770     1.007825032230
         H           -0.882780715241     0.442692830396     1.930027337770     1.007825032230
         H            1.782878284759    -0.221208169604     1.462730337770     1.007825032230
         H           -1.994849715241    -1.386441169604     0.956462337770     1.007825032230
         H            0.842704284759    -1.137113169604    -1.295277662230     1.007825032230
         H            1.805016284759    -2.090965169604    -0.131822662230     1.007825032230
         H           -0.393949715241     2.022538830396    -1.088979662230     1.007825032230
         H           -2.342605715241     0.987119830396    -0.345383662230     1.007825032230
         H            2.398802284759     0.945718830396    -0.998112662230     1.007825032230
         H           -1.996539715241    -1.665837169604    -1.283804662230     1.007825032230

  Basis Set: AUG-CC-PVTZ
    Blend: AUG-CC-PVTZ
  Basis Set: (AUG-CC-PVTZ AUX)
    Blend: AUG-CC-PVTZ-JKFIT
	 Reference Energy          =    -569.6659081539867202 [Eh]
	 Singles Energy            =      -0.0000000000000000 [Eh]
	 Same-Spin Energy          =      -0.5532579674700255 [Eh]
	 Opposite-Spin Energy      =      -1.7018269514561704 [Eh]
	 Correlation Energy        =      -2.2550849189261957 [Eh]
	 Total Energy              =    -571.9209930729128928 [Eh]

	 ================> DF-SCS-MP2 Energies <==================
	-----------------------------------------------------------
	 SCS Same-Spin Scale       =       0.3333333333333333 [-]
	 SCS Opposite-Spin Scale   =       1.2000000000000000 [-]
	 SCS Same-Spin Energy      =      -0.1844193224900085 [Eh]
	 SCS Opposite-Spin Energy  =      -2.0421923417474042 [Eh]
	 SCS Correlation Energy    =      -2.2266116642374127 [Eh]
	 SCS Total Energy          =    -571.8925198182241729 [Eh]
	-----------------------------------------------------------

  Dipole Moment: [D]
     X:    -2.0745      Y:    -0.9166      Z:    -0.1481     Total:     2.2728

*** Psi4 exiting successfully. Buy a developer a beer!
