                               Psi4 1.3.2 release

  ==> Input File <==

--------------------------------------------------------------------------
#psi4
#
memory 32 gb

molecule  {
0 1
  O       -0.1147700    -1.8002930     0.4548730
  O        0.3584290     1.3939840    -1.0246780
  O       -1.9551560     1.3713260     0.4690830
  O        2.7148150     0.4505790    -0.2056670
  O       -1.6716310    -0.8002260    -0.9984850
  C        0.4315910     1.0135520     0.3497470
  C       -1.0850516     0.4036061     0.9043238
  C        1.5345100    -0.0288940     0.4204030
  C       -1.2151430    -0.9364420     0.3397180
  C        1.0549700    -1.3167000    -0.2286510
  H        0.7042560     1.8874530     0.9605880
  H       -0.8818830     0.4322700     1.9353370
  H        1.7837760    -0.2316310     1.4680400
  H       -1.9939520    -1.3968640     0.9617720
  H        0.8436020    -1.1475360    -1.2899680
  H        1.8059140    -2.1013880    -0.1265130
  H       -0.3930520     2.0121160    -1.0836700
  H       -2.3417080     0.9766970    -0.3400740
  H        2.3997000     0.9352960    -0.9928030
  H       -1.9956420    -1.6762600    -1.2784950
units angstrom
no_reorient  #important for SAPT in psi4, default
symmetry c1  #important for SAPT in psi4, default
}

set PROPERTIES_ORIGIN ["COM"]
properties('MP2/aug-cc-pvtz', properties = ['dipole'])
--------------------------------------------------------------------------

    Molecular point group: c1
  Charge       = 0
  Multiplicity = 1
  Basis Set: AUG-CC-PVTZ
    Blend: AUG-CC-PVTZ
  Basis Set: (AUG-CC-PVTZ AUX)
    Blend: AUG-CC-PVTZ-JKFIT

    Orbital Energies [Eh]
    ---------------------

    Doubly Occupied:

       1A    -20.594295     2A    -20.584728     3A    -20.583890
       4A    -20.568358     5A    -20.553479     6A    -11.352275
       7A    -11.300846     8A    -11.287629     9A    -11.279832
      10A    -11.275884    11A     -1.443042    12A     -1.401385
      13A     -1.379543    14A     -1.358273    15A     -1.344440
      16A     -1.040837    17A     -1.031211    18A     -0.899856
      19A     -0.863530    20A     -0.800616    21A     -0.753460
      22A     -0.723985    23A     -0.718382    24A     -0.698424
      25A     -0.662125    26A     -0.647888    27A     -0.624704
      28A     -0.618382    29A     -0.599612    30A     -0.587602
      31A     -0.572898    32A     -0.562891    33A     -0.543507
      34A     -0.521793    35A     -0.506644    36A     -0.494256
      37A     -0.488251    38A     -0.469227    39A     -0.421285
      40A     -0.386224

  @DF-RHF Final Energy:  -569.64369273317607

   => Energetics <=

    Nuclear Repulsion Energy =            632.0798468472230525
    One-Electron Energy =               -2038.3560997926167602
    Two-Electron Energy =                 836.6325602122176406
    Total Energy =                       -569.6436927331760671
  Basis Set: (AUG-CC-PVTZ AUX)
    Blend: AUG-CC-PVTZ-RI
    Molecular point group: c1

    Geometry (in Angstrom), charge = 0, multiplicity = 1:

       Center              X                  Y                   Z               Mass
    ------------   -----------------  -----------------  -----------------  -----------------
         O           -0.100717472582    -1.794641551837     0.449734598772    15.994914619570
         O            0.372481527418     1.399635448163    -1.029816401228    15.994914619570
         O           -1.941103472582     1.376977448163     0.463944598772    15.994914619570
         O            2.728867527418     0.456230448163    -0.210805401228    15.994914619570
         O           -1.657578472582    -0.794574551837    -1.003623401228    15.994914619570
         C            0.445643527418     1.019203448163     0.344608598772    12.000000000000
         C           -1.070999072582     0.409257548163     0.899185398772    12.000000000000
         C            1.548562527418    -0.023242551837     0.415264598772    12.000000000000
         C           -1.201090472582    -0.930790551837     0.334579598772    12.000000000000
         C            1.069022527418    -1.311048551837    -0.233789401228    12.000000000000
         H            0.718308527418     1.893104448163     0.955449598772     1.007825032230
         H           -0.867830472582     0.437921448163     1.930198598772     1.007825032230
         H            1.797828527418    -0.225979551837     1.462901598772     1.007825032230
         H           -1.979899472582    -1.391212551837     0.956633598772     1.007825032230
         H            0.857654527418    -1.141884551837    -1.295106401228     1.007825032230
         H            1.819966527418    -2.095736551837    -0.131651401228     1.007825032230
         H           -0.378999472582     2.017767448163    -1.088808401228     1.007825032230
         H           -2.327655472582     0.982348448163    -0.345212401228     1.007825032230
         H            2.413752527418     0.940947448163    -0.997941401228     1.007825032230
         H           -1.981589472582    -1.670608551837    -1.283633401228     1.007825032230

  Basis Set: AUG-CC-PVTZ
    Blend: AUG-CC-PVTZ
  Basis Set: (AUG-CC-PVTZ AUX)
    Blend: AUG-CC-PVTZ-JKFIT
	 Reference Energy          =    -569.6436927331760671 [Eh]
	 Singles Energy            =      -0.0000000000000000 [Eh]
	 Same-Spin Energy          =      -0.5557824219219744 [Eh]
	 Opposite-Spin Energy      =      -1.7056680441604237 [Eh]
	 Correlation Energy        =      -2.2614504660823980 [Eh]
	 Total Energy              =    -571.9051431992584185 [Eh]

	 ================> DF-SCS-MP2 Energies <==================
	-----------------------------------------------------------
	 SCS Same-Spin Scale       =       0.3333333333333333 [-]
	 SCS Opposite-Spin Scale   =       1.2000000000000000 [-]
	 SCS Same-Spin Energy      =      -0.1852608073073248 [Eh]
	 SCS Opposite-Spin Energy  =      -2.0468016529925084 [Eh]
	 SCS Correlation Energy    =      -2.2320624602998334 [Eh]
	 SCS Total Energy          =    -571.8757551934759249 [Eh]
	-----------------------------------------------------------

  Dipole Moment: [D]
     X:    -2.5616      Y:    -0.8853      Z:    -0.2819     Total:     2.7249

*** Psi4 exiting successfully. Buy a developer a beer!
