                               Psi4 1.3.2 release

  ==> Input File <==

--------------------------------------------------------------------------
#psi4
#
memory 32 gb

molecule  {
0 1
  O       -0.1519884    -1.7968140     0.3894921
  O        0.3584290     1.3939840    -1.0246780
  O       -1.9551560     1.3713260     0.4690830
  O        2.7148150     0.4505790    -0.2056670
  O       -1.6716310    -0.8002260    -0.9984850
  C        0.4315910     1.0135520     0.3497470
  C       -0.9093320     0.4742750     0.8400700
  C        1.5345100    -0.0288940     0.4204030
  C       -1.2151430    -0.9364420     0.3397180
  C        1.0549700    -1.3167000    -0.2286510
  H        0.7042560     1.8874530     0.9605880
  H       -0.8818830     0.4322700     1.9353370
  H        1.7837760    -0.2316310     1.4680400
  H       -1.9939520    -1.3968640     0.9617720
  H        0.7898166    -1.1650182    -1.2804937
  H        1.8059140    -2.1013880    -0.1265130
  H       -0.3930520     2.0121160    -1.0836700
  H       -2.3417080     0.9766970    -0.3400740
  H        2.3997000     0.9352960    -0.9928030
  H       -1.9956420    -1.6762600    -1.2784950
units angstrom
no_reorient  #important for SAPT in psi4, default
symmetry c1  #important for SAPT in psi4, default
}

set PROPERTIES_ORIGIN ["COM"]
properties('MP2/aug-cc-pvtz', properties = ['dipole'])
--------------------------------------------------------------------------

    Molecular point group: c1
  Charge       = 0
  Multiplicity = 1
  Basis Set: AUG-CC-PVTZ
    Blend: AUG-CC-PVTZ
  Basis Set: (AUG-CC-PVTZ AUX)
    Blend: AUG-CC-PVTZ-JKFIT

    Orbital Energies [Eh]
    ---------------------

    Doubly Occupied:

       1A    -20.585109     2A    -20.577206     3A    -20.574264
       4A    -20.571212     5A    -20.559833     6A    -11.350409
       7A    -11.298018     8A    -11.291555     9A    -11.288065
      10A    -11.279772    11A     -1.445519    12A     -1.392673
      13A     -1.375977    14A     -1.351838    15A     -1.348300
      16A     -1.060253    17A     -1.025267    18A     -0.898009
      19A     -0.873768    20A     -0.798334    21A     -0.750530
      22A     -0.727398    23A     -0.716284    24A     -0.696472
      25A     -0.670519    26A     -0.647037    27A     -0.621413
      28A     -0.615187    29A     -0.604125    30A     -0.586404
      31A     -0.572376    32A     -0.557271    33A     -0.543491
      34A     -0.516252    35A     -0.503478    36A     -0.489630
      37A     -0.485917    38A     -0.465988    39A     -0.440941
      40A     -0.416992

  @DF-RHF Final Energy:  -569.67394657797809

   => Energetics <=

    Nuclear Repulsion Energy =            634.8258849779726916
    One-Electron Energy =               -2043.8534913661674182
    Two-Electron Energy =                 839.3536598102166408
    Total Energy =                       -569.6739465779780858
  Basis Set: (AUG-CC-PVTZ AUX)
    Blend: AUG-CC-PVTZ-RI
    Molecular point group: c1

    Geometry (in Angstrom), charge = 0, multiplicity = 1:

       Center              X                  Y                   Z               Mass
    ------------   -----------------  -----------------  -----------------  -----------------
         O           -0.147659940173    -1.797067499768     0.396397851193    15.994914619570
         O            0.362757459827     1.393730500232    -1.017772248807    15.994914619570
         O           -1.950827540173     1.371072500232     0.475988751193    15.994914619570
         O            2.719143459827     0.450325500232    -0.198761248807    15.994914619570
         O           -1.667302540173    -0.800479499768    -0.991579248807    15.994914619570
         C            0.435919459827     1.013298500232     0.356652751193    12.000000000000
         C           -0.905003540173     0.474021500232     0.846975751193    12.000000000000
         C            1.538838459827    -0.029147499768     0.427308751193    12.000000000000
         C           -1.210814540173    -0.936695499768     0.346623751193    12.000000000000
         C            1.059298459827    -1.316953499768    -0.221745248807    12.000000000000
         H            0.708584459827     1.887199500232     0.967493751193     1.007825032230
         H           -0.877554540173     0.432016500232     1.942242751193     1.007825032230
         H            1.788104459827    -0.231884499768     1.474945751193     1.007825032230
         H           -1.989623540173    -1.397117499768     0.968677751193     1.007825032230
         H            0.794145059827    -1.165271699768    -1.273587948807     1.007825032230
         H            1.810242459827    -2.101641499768    -0.119607248807     1.007825032230
         H           -0.388723540173     2.011862500232    -1.076764248807     1.007825032230
         H           -2.337379540173     0.976443500232    -0.333168248807     1.007825032230
         H            2.404028459827     0.935042500232    -0.985897248807     1.007825032230
         H           -1.991313540173    -1.676513499768    -1.271589248807     1.007825032230

  Basis Set: AUG-CC-PVTZ
    Blend: AUG-CC-PVTZ
  Basis Set: (AUG-CC-PVTZ AUX)
    Blend: AUG-CC-PVTZ-JKFIT
	 Reference Energy          =    -569.6739465779780858 [Eh]
	 Singles Energy            =      -0.0000000000000000 [Eh]
	 Same-Spin Energy          =      -0.5543424439949404 [Eh]
	 Opposite-Spin Energy      =      -1.7027405414012011 [Eh]
	 Correlation Energy        =      -2.2570829853961416 [Eh]
	 Total Energy              =    -571.9310295633741816 [Eh]

	 ================> DF-SCS-MP2 Energies <==================
	-----------------------------------------------------------
	 SCS Same-Spin Scale       =       0.3333333333333333 [-]
	 SCS Opposite-Spin Scale   =       1.2000000000000000 [-]
	 SCS Same-Spin Energy      =      -0.1847808146649801 [Eh]
	 SCS Opposite-Spin Energy  =      -2.0432886496814411 [Eh]
	 SCS Correlation Energy    =      -2.2280694643464214 [Eh]
	 SCS Total Energy          =    -571.9020160423244761 [Eh]
	-----------------------------------------------------------

  Dipole Moment: [D]
     X:    -2.0118      Y:    -1.0014      Z:    -0.1497     Total:     2.2523

*** Psi4 exiting successfully. Buy a developer a beer!
