                               Psi4 1.3.2 release

  ==> Input File <==

--------------------------------------------------------------------------
#psi4
#
memory 32 gb

molecule  {
0 1
  O       -0.1147700    -1.8002930     0.4548730
  O        0.3584290     1.3939840    -1.0246780
  O       -1.9551560     1.3713260     0.4690830
  O        2.7148150     0.4505790    -0.2056670
  O       -1.6716310    -0.8002260    -0.9984850
  C        0.4336958     1.0021676     0.3431629
  C       -0.9093320     0.4742750     0.8400700
  C        1.5345100    -0.0288940     0.4204030
  C       -1.2035237    -0.9365797     0.3331823
  C        1.0549700    -1.3167000    -0.2286510
  H        0.7042560     1.8874530     0.9605880
  H       -0.8818830     0.4322700     1.9353370
  H        1.7837760    -0.2316310     1.4680400
  H       -1.9939520    -1.3968640     0.9617720
  H        0.8436020    -1.1475360    -1.2899680
  H        1.8059140    -2.1013880    -0.1265130
  H       -0.3930520     2.0121160    -1.0836700
  H       -2.3417080     0.9766970    -0.3400740
  H        2.3997000     0.9352960    -0.9928030
  H       -1.9956420    -1.6762600    -1.2784950
units angstrom
no_reorient  #important for SAPT in psi4, default
symmetry c1  #important for SAPT in psi4, default
}

set PROPERTIES_ORIGIN ["COM"]
properties('MP2/aug-cc-pvtz', properties = ['dipole'])
--------------------------------------------------------------------------

    Molecular point group: c1
  Charge       = 0
  Multiplicity = 1
  Basis Set: AUG-CC-PVTZ
    Blend: AUG-CC-PVTZ
  Basis Set: (AUG-CC-PVTZ AUX)
    Blend: AUG-CC-PVTZ-JKFIT

    Orbital Energies [Eh]
    ---------------------

    Doubly Occupied:

       1A    -20.591461     2A    -20.582227     3A    -20.574998
       4A    -20.571443     5A    -20.558768     6A    -11.353699
       7A    -11.298252     8A    -11.291319     9A    -11.285807
      10A    -11.278693    11A     -1.441050    12A     -1.392616
      13A     -1.376808    14A     -1.355397    15A     -1.348436
      16A     -1.060707    17A     -1.023362    18A     -0.898020
      19A     -0.870423    20A     -0.799521    21A     -0.751837
      22A     -0.727163    23A     -0.713243    24A     -0.696818
      25A     -0.670905    26A     -0.646245    27A     -0.621549
      28A     -0.615326    29A     -0.602999    30A     -0.585175
      31A     -0.571252    32A     -0.556426    33A     -0.542932
      34A     -0.517071    35A     -0.501591    36A     -0.491113
      37A     -0.488534    38A     -0.472819    39A     -0.440792
      40A     -0.414450

  @DF-RHF Final Energy:  -569.67411134312727

   => Energetics <=

    Nuclear Repulsion Energy =            634.2807321604378785
    One-Electron Energy =               -2042.7471952239436632
    Two-Electron Energy =                 838.7923517203784058
    Total Energy =                       -569.6741113431272652
  Basis Set: (AUG-CC-PVTZ AUX)
    Blend: AUG-CC-PVTZ-RI
    Molecular point group: c1

    Geometry (in Angstrom), charge = 0, multiplicity = 1:

       Center              X                  Y                   Z               Mass
    ------------   -----------------  -----------------  -----------------  -----------------
         O           -0.115867633360    -1.799371630111     0.455922307732    15.994914619570
         O            0.357331366640     1.394905369889    -1.023628692268    15.994914619570
         O           -1.956253633360     1.372247369889     0.470132307732    15.994914619570
         O            2.713717366640     0.451500369889    -0.204617692268    15.994914619570
         O           -1.672728633360    -0.799304630111    -0.997435692268    15.994914619570
         C            0.432598166640     1.003088969889     0.344212207732    12.000000000000
         C           -0.910429633360     0.475196369889     0.841119307732    12.000000000000
         C            1.533412366640    -0.027972630111     0.421452307732    12.000000000000
         C           -1.204621333360    -0.935658330111     0.334231607732    12.000000000000
         C            1.053872366640    -1.315778630111    -0.227601692268    12.000000000000
         H            0.703158366640     1.888374369889     0.961637307732     1.007825032230
         H           -0.882980633360     0.433191369889     1.936386307732     1.007825032230
         H            1.782678366640    -0.230709630111     1.469089307732     1.007825032230
         H           -1.995049633360    -1.395942630111     0.962821307732     1.007825032230
         H            0.842504366640    -1.146614630111    -1.288918692268     1.007825032230
         H            1.804816366640    -2.100466630111    -0.125463692268     1.007825032230
         H           -0.394149633360     2.013037369889    -1.082620692268     1.007825032230
         H           -2.342805633360     0.977618369889    -0.339024692268     1.007825032230
         H            2.398602366640     0.936217369889    -0.991753692268     1.007825032230
         H           -1.996739633360    -1.675338630111    -1.277445692268     1.007825032230

  Basis Set: AUG-CC-PVTZ
    Blend: AUG-CC-PVTZ
  Basis Set: (AUG-CC-PVTZ AUX)
    Blend: AUG-CC-PVTZ-JKFIT
	 Reference Energy          =    -569.6741113431272652 [Eh]
	 Singles Energy            =      -0.0000000000000000 [Eh]
	 Same-Spin Energy          =      -0.5547439431957684 [Eh]
	 Opposite-Spin Energy      =      -1.7038741862491178 [Eh]
	 Correlation Energy        =      -2.2586181294448862 [Eh]
	 Total Energy              =    -571.9327294725721913 [Eh]

	 ================> DF-SCS-MP2 Energies <==================
	-----------------------------------------------------------
	 SCS Same-Spin Scale       =       0.3333333333333333 [-]
	 SCS Opposite-Spin Scale   =       1.2000000000000000 [-]
	 SCS Same-Spin Energy      =      -0.1849146477319228 [Eh]
	 SCS Opposite-Spin Energy  =      -2.0446490234989412 [Eh]
	 SCS Correlation Energy    =      -2.2295636712308640 [Eh]
	 SCS Total Energy          =    -571.9036750143581003 [Eh]
	-----------------------------------------------------------

  Dipole Moment: [D]
     X:    -2.1436      Y:    -1.0154      Z:    -0.3285     Total:     2.3946

*** Psi4 exiting successfully. Buy a developer a beer!
