                               Psi4 1.3.2 release

  ==> Input File <==

--------------------------------------------------------------------------
#psi4
#
memory 32 gb

molecule  {
0 1
  O       -0.1147700    -1.8002930     0.4548730
  O        0.3584290     1.3939840    -1.0246780
  O       -1.9551560     1.3713260     0.4690830
  O        2.7205098     0.4399120    -0.2029775
  O       -1.6716310    -0.8002260    -0.9984850
  C        0.4234705     1.0053153     0.3562266
  C       -0.9093320     0.4742750     0.8400700
  C        1.5345100    -0.0288940     0.4204030
  C       -1.2151430    -0.9364420     0.3397180
  C        1.0549700    -1.3167000    -0.2286510
  H        0.7042560     1.8874530     0.9605880
  H       -0.8818830     0.4322700     1.9353370
  H        1.7837760    -0.2316310     1.4680400
  H       -1.9939520    -1.3968640     0.9617720
  H        0.8436020    -1.1475360    -1.2899680
  H        1.8059140    -2.1013880    -0.1265130
  H       -0.3930520     2.0121160    -1.0836700
  H       -2.3417080     0.9766970    -0.3400740
  H        2.3997000     0.9352960    -0.9928030
  H       -1.9956420    -1.6762600    -1.2784950
units angstrom
no_reorient  #important for SAPT in psi4, default
symmetry c1  #important for SAPT in psi4, default
}

set PROPERTIES_ORIGIN ["COM"]
properties('MP2/aug-cc-pvtz', properties = ['dipole'])
--------------------------------------------------------------------------

    Molecular point group: c1
  Charge       = 0
  Multiplicity = 1
  Basis Set: AUG-CC-PVTZ
    Blend: AUG-CC-PVTZ
  Basis Set: (AUG-CC-PVTZ AUX)
    Blend: AUG-CC-PVTZ-JKFIT

    Orbital Energies [Eh]
    ---------------------

    Doubly Occupied:

       1A    -20.591746     2A    -20.580762     3A    -20.575108
       4A    -20.570711     5A    -20.559718     6A    -11.354091
       7A    -11.298725     8A    -11.291716     9A    -11.285793
      10A    -11.277891    11A     -1.438883    12A     -1.389981
      13A     -1.375362    14A     -1.353948    15A     -1.346152
      16A     -1.061058    17A     -1.023260    18A     -0.898494
      19A     -0.870774    20A     -0.797638    21A     -0.752336
      22A     -0.726962    23A     -0.712070    24A     -0.696087
      25A     -0.668858    26A     -0.645363    27A     -0.621120
      28A     -0.613209    29A     -0.603177    30A     -0.584336
      31A     -0.572000    32A     -0.556133    33A     -0.542064
      34A     -0.515784    35A     -0.502670    36A     -0.490839
      37A     -0.487611    38A     -0.471498    39A     -0.443501
      40A     -0.415527

  @DF-RHF Final Energy:  -569.67326012649210

   => Energetics <=

    Nuclear Repulsion Energy =            633.7947741667996979
    One-Electron Energy =               -2041.8101566562850167
    Two-Electron Energy =                 838.3421223629932229
    Total Energy =                       -569.6732601264920959
  Basis Set: (AUG-CC-PVTZ AUX)
    Blend: AUG-CC-PVTZ-RI
    Molecular point group: c1

    Geometry (in Angstrom), charge = 0, multiplicity = 1:

       Center              X                  Y                   Z               Mass
    ------------   -----------------  -----------------  -----------------  -----------------
         O           -0.114727719053    -1.798497318310     0.454068219841    15.994914619570
         O            0.358471280947     1.395779681690    -1.025482780159    15.994914619570
         O           -1.955113719053     1.373121681690     0.468278219841    15.994914619570
         O            2.720552080947     0.441707681690    -0.203782280159    15.994914619570
         O           -1.671588719053    -0.798430318310    -0.999289780159    15.994914619570
         C            0.423512780947     1.007110981690     0.355421819841    12.000000000000
         C           -0.909289719053     0.476070681690     0.839265219841    12.000000000000
         C            1.534552280947    -0.027098318310     0.419598219841    12.000000000000
         C           -1.215100719053    -0.934646318310     0.338913219841    12.000000000000
         C            1.055012280947    -1.314904318310    -0.229455780159    12.000000000000
         H            0.704298280947     1.889248681690     0.959783219841     1.007825032230
         H           -0.881840719053     0.434065681690     1.934532219841     1.007825032230
         H            1.783818280947    -0.229835318310     1.467235219841     1.007825032230
         H           -1.993909719053    -1.395068318310     0.960967219841     1.007825032230
         H            0.843644280947    -1.145740318310    -1.290772780159     1.007825032230
         H            1.805956280947    -2.099592318310    -0.127317780159     1.007825032230
         H           -0.393009719053     2.013911681690    -1.084474780159     1.007825032230
         H           -2.341665719053     0.978492681690    -0.340878780159     1.007825032230
         H            2.399742280947     0.937091681690    -0.993607780159     1.007825032230
         H           -1.995599719053    -1.674464318310    -1.279299780159     1.007825032230

  Basis Set: AUG-CC-PVTZ
    Blend: AUG-CC-PVTZ
  Basis Set: (AUG-CC-PVTZ AUX)
    Blend: AUG-CC-PVTZ-JKFIT
	 Reference Energy          =    -569.6732601264920959 [Eh]
	 Singles Energy            =      -0.0000000000000000 [Eh]
	 Same-Spin Energy          =      -0.5548694065407441 [Eh]
	 Opposite-Spin Energy      =      -1.7044930293378568 [Eh]
	 Correlation Energy        =      -2.2593624358786011 [Eh]
	 Total Energy              =    -571.9326225623707387 [Eh]

	 ================> DF-SCS-MP2 Energies <==================
	-----------------------------------------------------------
	 SCS Same-Spin Scale       =       0.3333333333333333 [-]
	 SCS Opposite-Spin Scale   =       1.2000000000000000 [-]
	 SCS Same-Spin Energy      =      -0.1849564688469147 [Eh]
	 SCS Opposite-Spin Energy  =      -2.0453916352054282 [Eh]
	 SCS Correlation Energy    =      -2.2303481040523430 [Eh]
	 SCS Total Energy          =    -571.9036082305444779 [Eh]
	-----------------------------------------------------------

  Dipole Moment: [D]
     X:    -2.1963      Y:    -0.9865      Z:    -0.2855     Total:     2.4246

*** Psi4 exiting successfully. Buy a developer a beer!
