                               Psi4 1.4a3.dev225

  ==> Input File <==

--------------------------------------------------------------------------
#psi4
#
memory 32 gb

molecule  {
0 1
  O       -0.2343850     1.7978400    -0.4145210
  O        0.4791390    -1.3900560     0.9851260
  O       -1.8902550    -1.4798720    -0.4079610
  O        2.7489250    -0.2990660     0.0843650
  O       -1.6766260     0.6849030     1.0797040
  C        0.4758930    -0.9871420    -0.3839460
  C       -0.9153110    -0.5160320    -0.8112700
  C        1.5148540     0.1205520    -0.4811210
  C       -1.2794180     0.8705190    -0.2725550
  C        0.9914930     1.3693070     0.2124490
  H        0.7732420    -1.8350180    -1.0199460
  H       -0.9358024    -0.4567979    -1.8563467
  H        1.7061480     0.3550680    -1.5342930
  H       -2.1075740     1.2945610    -0.8542440
  H        0.8333730     1.1741050     1.2776920
  H        1.6908660     2.1982840     0.0933200
  H       -0.2684360    -2.0097880     1.0741120
  H       -2.2907410    -1.1048270     0.4011470
  H        2.5001980    -0.8049050     0.8819700
  H       -2.0397460     1.5332780     1.3914430
units angstrom
no_reorient  #important for SAPT in psi4, default
symmetry c1  #important for SAPT in psi4, default
}

set PROPERTIES_ORIGIN ["COM"]
properties('MP2/aug-cc-pvtz', properties = ['dipole'])
--------------------------------------------------------------------------

    Molecular point group: c1
  Charge       = 0
  Multiplicity = 1
  Basis Set: AUG-CC-PVTZ
    Blend: AUG-CC-PVTZ
  Basis Set: (AUG-CC-PVTZ AUX)
    Blend: AUG-CC-PVTZ-JKFIT

    Orbital Energies [Eh]
    ---------------------

    Doubly Occupied:

       1A    -20.591778     2A    -20.581222     3A    -20.574524
       4A    -20.569696     5A    -20.558624     6A    -11.354560
       7A    -11.293592     8A    -11.290825     9A    -11.286278
      10A    -11.278849    11A     -1.437967    12A     -1.390642
      13A     -1.375241    14A     -1.353788    15A     -1.347239
      16A     -1.059342    17A     -1.023774    18A     -0.898575
      19A     -0.872580    20A     -0.800109    21A     -0.752643
      22A     -0.727236    23A     -0.712323    24A     -0.695744
      25A     -0.668762    26A     -0.649092    27A     -0.620780
      28A     -0.614465    29A     -0.602835    30A     -0.585238
      31A     -0.573049    32A     -0.556689    33A     -0.543191
      34A     -0.517128    35A     -0.502891    36A     -0.490414
      37A     -0.488496    38A     -0.471150    39A     -0.441333
      40A     -0.415885

  @DF-RHF Final Energy:  -569.67378169383232

   => Energetics <=

    Nuclear Repulsion Energy =            633.4600655711425361
    One-Electron Energy =               -2041.1305915741672834
    Two-Electron Energy =                 837.9967443091925361
    Total Energy =                       -569.6737816938323249
  Basis Set: (AUG-CC-PVTZ AUX)
    Blend: AUG-CC-PVTZ-RI
    Molecular point group: c1

    Geometry (in Angstrom), charge = 0, multiplicity = 1:

       Center              X                  Y                   Z               Mass
    ------------   -----------------  -----------------  -----------------  -----------------
         O           -0.235333059463     1.800128704377    -0.416100868239    15.994914619570
         O            0.478190940537    -1.387767295623     0.983546131761    15.994914619570
         O           -1.891203059463    -1.477583295623    -0.409540868239    15.994914619570
         O            2.747976940537    -0.296777295623     0.082785131761    15.994914619570
         O           -1.677574059463     0.687191704377     1.078124131761    15.994914619570
         C            0.474944940537    -0.984853295623    -0.385525868239    12.000000000000
         C           -0.916259059463    -0.513743295623    -0.812849868239    12.000000000000
         C            1.513905940537     0.122840704377    -0.482700868239    12.000000000000
         C           -1.280366059463     0.872807704377    -0.274134868239    12.000000000000
         C            0.990544940537     1.371595704377     0.210869131761    12.000000000000
         H            0.772293940537    -1.832729295623    -1.021525868239     1.007825032230
         H           -0.936750459463    -0.454509195623    -1.857926568239     1.007825032230
         H            1.705199940537     0.357356704377    -1.535872868239     1.007825032230
         H           -2.108522059463     1.296849704377    -0.855823868239     1.007825032230
         H            0.832424940537     1.176393704377     1.276112131761     1.007825032230
         H            1.689917940537     2.200572704377     0.091740131761     1.007825032230
         H           -0.269384059463    -2.007499295623     1.072532131761     1.007825032230
         H           -2.291689059463    -1.102538295623     0.399567131761     1.007825032230
         H            2.499249940537    -0.802616295623     0.880390131761     1.007825032230
         H           -2.040694059463     1.535566704377     1.389863131761     1.007825032230

  Basis Set: AUG-CC-PVTZ
    Blend: AUG-CC-PVTZ
  Basis Set: (AUG-CC-PVTZ AUX)
    Blend: AUG-CC-PVTZ-JKFIT
	 Reference Energy          =    -569.6737816938323249 [Eh]
	 Singles Energy            =      -0.0000000000000000 [Eh]
	 Same-Spin Energy          =      -0.5544555572040026 [Eh]
	 Opposite-Spin Energy      =      -1.7036031678483721 [Eh]
	 Correlation Energy        =      -2.2580587250523747 [Eh]
	 Total Energy              =    -571.9318404188846898 [Eh]

	 ================> DF-SCS-MP2 Energies <==================
	-----------------------------------------------------------
	 SCS Same-Spin Scale       =       0.3333333333333333 [-]
	 SCS Opposite-Spin Scale   =       1.2000000000000000 [-]
	 SCS Same-Spin Energy      =      -0.1848185190680009 [Eh]
	 SCS Opposite-Spin Energy  =      -2.0443238014180465 [Eh]
	 SCS Correlation Energy    =      -2.2291423204860474 [Eh]
	 SCS Total Energy          =    -571.9029240143183870 [Eh]
	-----------------------------------------------------------

  Dipole Moment: [D]
     X:    -2.2875      Y:     0.9732      Z:     0.3783     Total:     2.5146

*** Psi4 exiting successfully. Buy a developer a beer!
