                               Psi4 1.3.2 release

  ==> Input File <==

--------------------------------------------------------------------------
#psi4
#
memory 32 gb

molecule  {
0 1
  O       -0.1147700    -1.8002930     0.4548730
  O        0.3584290     1.3939840    -1.0246780
  O       -1.9551560     1.3713260     0.4690830
  O        2.7148150     0.4505790    -0.2056670
  O       -1.6716310    -0.8002260    -0.9984850
  C        0.4168241     1.0809661     0.3900180
  C       -0.9093320     0.4742750     0.8400700
  C        1.5345100    -0.0288940     0.4204030
  C       -1.2843390    -0.9333605     0.3797146
  C        1.0549700    -1.3167000    -0.2286510
  H        0.7042560     1.8874530     0.9605880
  H       -0.8818830     0.4322700     1.9353370
  H        1.7837760    -0.2316310     1.4680400
  H       -1.9939520    -1.3968640     0.9617720
  H        0.8436020    -1.1475360    -1.2899680
  H        1.8059140    -2.1013880    -0.1265130
  H       -0.3930520     2.0121160    -1.0836700
  H       -2.3417080     0.9766970    -0.3400740
  H        2.3997000     0.9352960    -0.9928030
  H       -1.9956420    -1.6762600    -1.2784950
units angstrom
no_reorient  #important for SAPT in psi4, default
symmetry c1  #important for SAPT in psi4, default
}

set PROPERTIES_ORIGIN ["COM"]
properties('MP2/aug-cc-pvtz', properties = ['dipole'])
--------------------------------------------------------------------------

    Molecular point group: c1
  Charge       = 0
  Multiplicity = 1
  Basis Set: AUG-CC-PVTZ
    Blend: AUG-CC-PVTZ
  Basis Set: (AUG-CC-PVTZ AUX)
    Blend: AUG-CC-PVTZ-JKFIT

    Orbital Energies [Eh]
    ---------------------

    Doubly Occupied:

       1A    -20.592809     2A    -20.572861     3A    -20.572258
       4A    -20.570265     5A    -20.555598     6A    -11.356567
       7A    -11.300679     8A    -11.290509     9A    -11.285349
      10A    -11.275300    11A     -1.426869    12A     -1.385095
      13A     -1.370372    14A     -1.344143    15A     -1.342660
      16A     -1.051919    17A     -1.021100    18A     -0.906453
      19A     -0.866833    20A     -0.792666    21A     -0.760775
      22A     -0.730198    23A     -0.704550    24A     -0.689271
      25A     -0.664905    26A     -0.646355    27A     -0.618302
      28A     -0.606665    29A     -0.602706    30A     -0.582602
      31A     -0.575110    32A     -0.555492    33A     -0.540956
      34A     -0.512839    35A     -0.510222    36A     -0.485242
      37A     -0.481591    38A     -0.465859    39A     -0.438751
      40A     -0.417822

  @DF-RHF Final Energy:  -569.65781666861642

   => Energetics <=

    Nuclear Repulsion Energy =            631.0986001038654649
    One-Electron Energy =               -2036.5717976067467134
    Two-Electron Energy =                 835.8153808342648290
    Total Energy =                       -569.6578166686164195
  Basis Set: (AUG-CC-PVTZ AUX)
    Blend: AUG-CC-PVTZ-RI
    Molecular point group: c1

    Geometry (in Angstrom), charge = 0, multiplicity = 1:

       Center              X                  Y                   Z               Mass
    ------------   -----------------  -----------------  -----------------  -----------------
         O           -0.108055424477    -1.805930736281     0.448453945762    15.994914619570
         O            0.365143575523     1.388346263719    -1.031097054238    15.994914619570
         O           -1.948441424477     1.365688263719     0.462663945762    15.994914619570
         O            2.721529575523     0.444941263719    -0.212086054238    15.994914619570
         O           -1.664916424477    -0.805863736281    -1.004904054238    15.994914619570
         C            0.423538675523     1.075328363719     0.383598945762    12.000000000000
         C           -0.902617424477     0.468637263719     0.833650945762    12.000000000000
         C            1.541224575523    -0.034531736281     0.413983945762    12.000000000000
         C           -1.277624424477    -0.938998236281     0.373295545762    12.000000000000
         C            1.061684575523    -1.322337736281    -0.235070054238    12.000000000000
         H            0.710970575523     1.881815263719     0.954168945762     1.007825032230
         H           -0.875168424477     0.426632263719     1.928917945762     1.007825032230
         H            1.790490575523    -0.237268736281     1.461620945762     1.007825032230
         H           -1.987237424477    -1.402501736281     0.955352945762     1.007825032230
         H            0.850316575523    -1.153173736281    -1.296387054238     1.007825032230
         H            1.812628575523    -2.107025736281    -0.132932054238     1.007825032230
         H           -0.386337424477     2.006478263719    -1.090089054238     1.007825032230
         H           -2.334993424477     0.971059263719    -0.346493054238     1.007825032230
         H            2.406414575523     0.929658263719    -0.999222054238     1.007825032230
         H           -1.988927424477    -1.681897736281    -1.284914054238     1.007825032230

  Basis Set: AUG-CC-PVTZ
    Blend: AUG-CC-PVTZ
  Basis Set: (AUG-CC-PVTZ AUX)
    Blend: AUG-CC-PVTZ-JKFIT
	 Reference Energy          =    -569.6578166686164195 [Eh]
	 Singles Energy            =      -0.0000000000000000 [Eh]
	 Same-Spin Energy          =      -0.5545078892774109 [Eh]
	 Opposite-Spin Energy      =      -1.7056251625017318 [Eh]
	 Correlation Energy        =      -2.2601330517791425 [Eh]
	 Total Energy              =    -571.9179497203955407 [Eh]

	 ================> DF-SCS-MP2 Energies <==================
	-----------------------------------------------------------
	 SCS Same-Spin Scale       =       0.3333333333333333 [-]
	 SCS Opposite-Spin Scale   =       1.2000000000000000 [-]
	 SCS Same-Spin Energy      =      -0.1848359630924703 [Eh]
	 SCS Opposite-Spin Energy  =      -2.0467501950020779 [Eh]
	 SCS Correlation Energy    =      -2.2315861580945482 [Eh]
	 SCS Total Energy          =    -571.8894028267109206 [Eh]
	-----------------------------------------------------------

  Dipole Moment: [D]
     X:    -2.3963      Y:    -0.8698      Z:    -0.1423     Total:     2.5533

*** Psi4 exiting successfully. Buy a developer a beer!
