                               Psi4 1.3.2 release

  ==> Input File <==

--------------------------------------------------------------------------
#psi4
#
memory 32 gb

molecule  {
0 1
  O       -0.1147700    -1.8002930     0.4548730
  O        0.3584290     1.3939840    -1.0246780
  O       -1.9551560     1.3713260     0.4690830
  O        2.7148150     0.4505790    -0.2056670
  O       -1.6716310    -0.8002260    -0.9984850
  C        0.4315910     1.0135520     0.3497470
  C       -0.9093320     0.4742750     0.8400700
  C        1.6176594     0.0048836     0.3762980
  C       -1.2151430    -0.9364420     0.3397180
  C        1.0549700    -1.3167000    -0.2286510
  H        0.7042560     1.8874530     0.9605880
  H       -0.8818830     0.4322700     1.9353370
  H        1.7837760    -0.2316310     1.4680400
  H       -1.9939520    -1.3968640     0.9617720
  H        0.8436020    -1.1475360    -1.2899680
  H        1.8059140    -2.1013880    -0.1265130
  H       -0.3930520     2.0121160    -1.0836700
  H       -2.3417080     0.9766970    -0.3400740
  H        2.3997000     0.9352960    -0.9928030
  H       -1.9956420    -1.6762600    -1.2784950
units angstrom
no_reorient  #important for SAPT in psi4, default
symmetry c1  #important for SAPT in psi4, default
}

set PROPERTIES_ORIGIN ["COM"]
properties('MP2/aug-cc-pvtz', properties = ['dipole'])
--------------------------------------------------------------------------

    Molecular point group: c1
  Charge       = 0
  Multiplicity = 1
  Basis Set: AUG-CC-PVTZ
    Blend: AUG-CC-PVTZ
  Basis Set: (AUG-CC-PVTZ AUX)
    Blend: AUG-CC-PVTZ-JKFIT

    Orbital Energies [Eh]
    ---------------------

    Doubly Occupied:

       1A    -20.590111     2A    -20.580534     3A    -20.574128
       4A    -20.569754     5A    -20.569176     6A    -11.352213
       7A    -11.297688     8A    -11.288836     9A    -11.288269
      10A    -11.274647    11A     -1.437417    12A     -1.414414
      13A     -1.383849    14A     -1.360884    15A     -1.351245
      16A     -1.048368    17A     -1.016019    18A     -0.893850
      19A     -0.869606    20A     -0.803155    21A     -0.752765
      22A     -0.726953    23A     -0.710588    24A     -0.699936
      25A     -0.676033    26A     -0.649349    27A     -0.629341
      28A     -0.616783    29A     -0.601778    30A     -0.590892
      31A     -0.573596    32A     -0.563924    33A     -0.543394
      34A     -0.509746    35A     -0.502870    36A     -0.490695
      37A     -0.486658    38A     -0.459135    39A     -0.438689
      40A     -0.402404

  @DF-RHF Final Energy:  -569.66531631296584

   => Energetics <=

    Nuclear Repulsion Energy =            633.4483437488938762
    One-Electron Energy =               -2041.0479303652991803
    Two-Electron Energy =                 837.9342703034394617
    Total Energy =                       -569.6653163129658424
  Basis Set: (AUG-CC-PVTZ AUX)
    Blend: AUG-CC-PVTZ-RI
    Molecular point group: c1

    Geometry (in Angstrom), charge = 0, multiplicity = 1:

       Center              X                  Y                   Z               Mass
    ------------   -----------------  -----------------  -----------------  -----------------
         O           -0.121419702165    -1.802994330355     0.458400251109    15.994914619570
         O            0.351779297835     1.391282669645    -1.021150748891    15.994914619570
         O           -1.961805702165     1.368624669645     0.472610251109    15.994914619570
         O            2.708165297835     0.447877669645    -0.202139748891    15.994914619570
         O           -1.678280702165    -0.802927330355    -0.994957748891    15.994914619570
         C            0.424941297835     1.010850669645     0.353274251109    12.000000000000
         C           -0.915981702165     0.471573669645     0.843597251109    12.000000000000
         C            1.611009697835     0.002182269645     0.379825251109    12.000000000000
         C           -1.221792702165    -0.939143330355     0.343245251109    12.000000000000
         C            1.048320297835    -1.319401330355    -0.225123748891    12.000000000000
         H            0.697606297835     1.884751669645     0.964115251109     1.007825032230
         H           -0.888532702165     0.429568669645     1.938864251109     1.007825032230
         H            1.777126297835    -0.234332330355     1.471567251109     1.007825032230
         H           -2.000601702165    -1.399565330355     0.965299251109     1.007825032230
         H            0.836952297835    -1.150237330355    -1.286440748891     1.007825032230
         H            1.799264297835    -2.104089330355    -0.122985748891     1.007825032230
         H           -0.399701702165     2.009414669645    -1.080142748891     1.007825032230
         H           -2.348357702165     0.973995669645    -0.336546748891     1.007825032230
         H            2.393050297835     0.932594669645    -0.989275748891     1.007825032230
         H           -2.002291702165    -1.678961330355    -1.274967748891     1.007825032230

  Basis Set: AUG-CC-PVTZ
    Blend: AUG-CC-PVTZ
  Basis Set: (AUG-CC-PVTZ AUX)
    Blend: AUG-CC-PVTZ-JKFIT
	 Reference Energy          =    -569.6653163129658424 [Eh]
	 Singles Energy            =      -0.0000000000000000 [Eh]
	 Same-Spin Energy          =      -0.5547197119609587 [Eh]
	 Opposite-Spin Energy      =      -1.7031041921754098 [Eh]
	 Correlation Energy        =      -2.2578239041363686 [Eh]
	 Total Energy              =    -571.9231402171021728 [Eh]

	 ================> DF-SCS-MP2 Energies <==================
	-----------------------------------------------------------
	 SCS Same-Spin Scale       =       0.3333333333333333 [-]
	 SCS Opposite-Spin Scale   =       1.2000000000000000 [-]
	 SCS Same-Spin Energy      =      -0.1849065706536529 [Eh]
	 SCS Opposite-Spin Energy  =      -2.0437250306104917 [Eh]
	 SCS Correlation Energy    =      -2.2286316012641447 [Eh]
	 SCS Total Energy          =    -571.8939479142300115 [Eh]
	-----------------------------------------------------------

  Dipole Moment: [D]
     X:    -1.8745      Y:    -0.8295      Z:    -0.4440     Total:     2.0974

*** Psi4 exiting successfully. Buy a developer a beer!
