                               Psi4 1.3.2 release

  ==> Input File <==

--------------------------------------------------------------------------
#psi4
#
memory 32 gb

molecule  {
0 1
  O       -0.1147700    -1.8002930     0.4548730
  O        0.3584290     1.3939840    -1.0246780
  O       -1.9551560     1.3713260     0.4690830
  O        2.7261143     0.4292094    -0.2002405
  O       -1.6716310    -0.8002260    -0.9984850
  C        0.4154346     0.9969998     0.3627111
  C       -0.9093320     0.4742750     0.8400700
  C        1.5345100    -0.0288940     0.4204030
  C       -1.2151430    -0.9364420     0.3397180
  C        1.0549700    -1.3167000    -0.2286510
  H        0.7042560     1.8874530     0.9605880
  H       -0.8818830     0.4322700     1.9353370
  H        1.7837760    -0.2316310     1.4680400
  H       -1.9939520    -1.3968640     0.9617720
  H        0.8436020    -1.1475360    -1.2899680
  H        1.8059140    -2.1013880    -0.1265130
  H       -0.3930520     2.0121160    -1.0836700
  H       -2.3417080     0.9766970    -0.3400740
  H        2.3997000     0.9352960    -0.9928030
  H       -1.9956420    -1.6762600    -1.2784950
units angstrom
no_reorient  #important for SAPT in psi4, default
symmetry c1  #important for SAPT in psi4, default
}

set PROPERTIES_ORIGIN ["COM"]
properties('MP2/aug-cc-pvtz', properties = ['dipole'])
--------------------------------------------------------------------------

    Molecular point group: c1
  Charge       = 0
  Multiplicity = 1
  Basis Set: AUG-CC-PVTZ
    Blend: AUG-CC-PVTZ
  Basis Set: (AUG-CC-PVTZ AUX)
    Blend: AUG-CC-PVTZ-JKFIT

    Orbital Energies [Eh]
    ---------------------

    Doubly Occupied:

       1A    -20.591889     2A    -20.580770     3A    -20.575573
       4A    -20.570191     5A    -20.561166     6A    -11.354305
       7A    -11.299017     8A    -11.292430     9A    -11.285961
      10A    -11.277628    11A     -1.439047    12A     -1.388689
      13A     -1.374856    14A     -1.353914    15A     -1.344539
      16A     -1.063166    17A     -1.023496    18A     -0.898304
      19A     -0.871537    20A     -0.796915    21A     -0.752387
      22A     -0.726286    23A     -0.712170    24A     -0.696202
      25A     -0.668008    26A     -0.644475    27A     -0.621163
      28A     -0.612308    29A     -0.603474    30A     -0.583989
      31A     -0.572238    32A     -0.556228    33A     -0.541402
      34A     -0.515225    35A     -0.502710    36A     -0.490604
      37A     -0.487560    38A     -0.471319    39A     -0.446278
      40A     -0.415148

  @DF-RHF Final Energy:  -569.67132652364535

   => Energetics <=

    Nuclear Repulsion Energy =            633.7689849247652774
    One-Electron Energy =               -2041.7554940760662703
    Two-Electron Energy =                 838.3151826276557586
    Total Energy =                       -569.6713265236453481
  Basis Set: (AUG-CC-PVTZ AUX)
    Blend: AUG-CC-PVTZ-RI
    Molecular point group: c1

    Geometry (in Angstrom), charge = 0, multiplicity = 1:

       Center              X                  Y                   Z               Mass
    ------------   -----------------  -----------------  -----------------  -----------------
         O           -0.114682486308    -1.796691466430     0.453257891328    15.994914619570
         O            0.358516513692     1.397585533570    -1.026293108672    15.994914619570
         O           -1.955068486308     1.374927533570     0.467467891328    15.994914619570
         O            2.726201813692     0.432810933570    -0.201855608672    15.994914619570
         O           -1.671543486308    -0.796624466430    -1.000100108672    15.994914619570
         C            0.415522113692     1.000601333570     0.361095991328    12.000000000000
         C           -0.909244486308     0.477876533570     0.838454891328    12.000000000000
         C            1.534597513692    -0.025292466430     0.418787891328    12.000000000000
         C           -1.215055486308    -0.932840466430     0.338102891328    12.000000000000
         C            1.055057513692    -1.313098466430    -0.230266108672    12.000000000000
         H            0.704343513692     1.891054533570     0.958972891328     1.007825032230
         H           -0.881795486308     0.435871533570     1.933721891328     1.007825032230
         H            1.783863513692    -0.228029466430     1.466424891328     1.007825032230
         H           -1.993864486308    -1.393262466430     0.960156891328     1.007825032230
         H            0.843689513692    -1.143934466430    -1.291583108672     1.007825032230
         H            1.806001513692    -2.097786466430    -0.128128108672     1.007825032230
         H           -0.392964486308     2.015717533570    -1.085285108672     1.007825032230
         H           -2.341620486308     0.980298533570    -0.341689108672     1.007825032230
         H            2.399787513692     0.938897533570    -0.994418108672     1.007825032230
         H           -1.995554486308    -1.672658466430    -1.280110108672     1.007825032230

  Basis Set: AUG-CC-PVTZ
    Blend: AUG-CC-PVTZ
  Basis Set: (AUG-CC-PVTZ AUX)
    Blend: AUG-CC-PVTZ-JKFIT
	 Reference Energy          =    -569.6713265236453481 [Eh]
	 Singles Energy            =      -0.0000000000000000 [Eh]
	 Same-Spin Energy          =      -0.5551371430118197 [Eh]
	 Opposite-Spin Energy      =      -1.7051026962959459 [Eh]
	 Correlation Energy        =      -2.2602398393077658 [Eh]
	 Total Energy              =    -571.9315663629531628 [Eh]

	 ================> DF-SCS-MP2 Energies <==================
	-----------------------------------------------------------
	 SCS Same-Spin Scale       =       0.3333333333333333 [-]
	 SCS Opposite-Spin Scale   =       1.2000000000000000 [-]
	 SCS Same-Spin Energy      =      -0.1850457143372732 [Eh]
	 SCS Opposite-Spin Energy  =      -2.0461232355551351 [Eh]
	 SCS Correlation Energy    =      -2.2311689498924085 [Eh]
	 SCS Total Energy          =    -571.9024954735377833 [Eh]
	-----------------------------------------------------------

  Dipole Moment: [D]
     X:    -2.2100      Y:    -0.9795      Z:    -0.2719     Total:     2.4325

*** Psi4 exiting successfully. Buy a developer a beer!
