                               Psi4 1.3.2 release

  ==> Input File <==

--------------------------------------------------------------------------
#psi4
#
memory 32 gb

molecule  {
0 1
  O       -0.1147700    -1.8002930     0.4548730
  O        0.3584290     1.3939840    -1.0246780
  O       -1.9551560     1.3713260     0.4690830
  O        2.7148150     0.4505790    -0.2056670
  O       -1.6716310    -0.8002260    -0.9984850
  C        0.4315910     1.0135520     0.3497470
  C       -0.9149221     0.4861131     0.8376214
  C        1.5431040    -0.0200466     0.4155410
  C       -1.2151430    -0.9364420     0.3397180
  C        1.0549700    -1.3167000    -0.2286510
  H        0.7042560     1.8874530     0.9605880
  H       -0.8818830     0.4322700     1.9353370
  H        1.7837760    -0.2316310     1.4680400
  H       -1.9939520    -1.3968640     0.9617720
  H        0.8436020    -1.1475360    -1.2899680
  H        1.8059140    -2.1013880    -0.1265130
  H       -0.3930520     2.0121160    -1.0836700
  H       -2.3417080     0.9766970    -0.3400740
  H        2.3997000     0.9352960    -0.9928030
  H       -1.9956420    -1.6762600    -1.2784950
units angstrom
no_reorient  #important for SAPT in psi4, default
symmetry c1  #important for SAPT in psi4, default
}

set PROPERTIES_ORIGIN ["COM"]
properties('MP2/aug-cc-pvtz', properties = ['dipole'])
--------------------------------------------------------------------------

    Molecular point group: c1
  Charge       = 0
  Multiplicity = 1
  Basis Set: AUG-CC-PVTZ
    Blend: AUG-CC-PVTZ
  Basis Set: (AUG-CC-PVTZ AUX)
    Blend: AUG-CC-PVTZ-JKFIT

    Orbital Energies [Eh]
    ---------------------

    Doubly Occupied:

       1A    -20.591150     2A    -20.580533     3A    -20.575802
       4A    -20.570943     5A    -20.559648     6A    -11.353461
       7A    -11.298491     8A    -11.290243     9A    -11.285815
      10A    -11.277608    11A     -1.438356    12A     -1.393366
      13A     -1.379062    14A     -1.354610    15A     -1.350767
      16A     -1.057150    17A     -1.020524    18A     -0.897165
      19A     -0.870549    20A     -0.798684    21A     -0.752123
      22A     -0.727250    23A     -0.711703    24A     -0.698232
      25A     -0.670942    26A     -0.646874    27A     -0.621075
      28A     -0.614340    29A     -0.603586    30A     -0.586089
      31A     -0.572364    32A     -0.556695    33A     -0.543690
      34A     -0.515467    35A     -0.502425    36A     -0.490818
      37A     -0.486721    38A     -0.470524    39A     -0.440522
      40A     -0.413053

  @DF-RHF Final Energy:  -569.67469801749746

   => Energetics <=

    Nuclear Repulsion Energy =            633.7616089265420669
    One-Electron Energy =               -2041.7357740981915413
    Two-Electron Energy =                 838.2994671541520120
    Total Energy =                       -569.6746980174974624
  Basis Set: (AUG-CC-PVTZ AUX)
    Blend: AUG-CC-PVTZ-RI
    Molecular point group: c1

    Geometry (in Angstrom), charge = 0, multiplicity = 1:

       Center              X                  Y                   Z               Mass
    ------------   -----------------  -----------------  -----------------  -----------------
         O           -0.115010319268    -1.801947331062     0.455457735334    15.994914619570
         O            0.358188680732     1.392329668938    -1.024093264666    15.994914619570
         O           -1.955396319268     1.369671668938     0.469667735334    15.994914619570
         O            2.714574680732     0.448924668938    -0.205082264666    15.994914619570
         O           -1.671871319268    -0.801880331062    -0.997900264666    15.994914619570
         C            0.431350680732     1.011897668938     0.350331735334    12.000000000000
         C           -0.915162419268     0.484458768938     0.838206135334    12.000000000000
         C            1.542863680732    -0.021700931062     0.416125735334    12.000000000000
         C           -1.215383319268    -0.938096331062     0.340302735334    12.000000000000
         C            1.054729680732    -1.318354331062    -0.228066264666    12.000000000000
         H            0.704015680732     1.885798668938     0.961172735334     1.007825032230
         H           -0.882123319268     0.430615668938     1.935921735334     1.007825032230
         H            1.783535680732    -0.233285331062     1.468624735334     1.007825032230
         H           -1.994192319268    -1.398518331062     0.962356735334     1.007825032230
         H            0.843361680732    -1.149190331062    -1.289383264666     1.007825032230
         H            1.805673680732    -2.103042331062    -0.125928264666     1.007825032230
         H           -0.393292319268     2.010461668938    -1.083085264666     1.007825032230
         H           -2.341948319268     0.975042668938    -0.339489264666     1.007825032230
         H            2.399459680732     0.933641668938    -0.992218264666     1.007825032230
         H           -1.995882319268    -1.677914331062    -1.277910264666     1.007825032230

  Basis Set: AUG-CC-PVTZ
    Blend: AUG-CC-PVTZ
  Basis Set: (AUG-CC-PVTZ AUX)
    Blend: AUG-CC-PVTZ-JKFIT
	 Reference Energy          =    -569.6746980174974624 [Eh]
	 Singles Energy            =      -0.0000000000000000 [Eh]
	 Same-Spin Energy          =      -0.5545603877620936 [Eh]
	 Opposite-Spin Energy      =      -1.7035745919421332 [Eh]
	 Correlation Energy        =      -2.2581349797042267 [Eh]
	 Total Energy              =    -571.9328329972016718 [Eh]

	 ================> DF-SCS-MP2 Energies <==================
	-----------------------------------------------------------
	 SCS Same-Spin Scale       =       0.3333333333333333 [-]
	 SCS Opposite-Spin Scale   =       1.2000000000000000 [-]
	 SCS Same-Spin Energy      =      -0.1848534625873645 [Eh]
	 SCS Opposite-Spin Energy  =      -2.0442895103305596 [Eh]
	 SCS Correlation Energy    =      -2.2291429729179240 [Eh]
	 SCS Total Energy          =    -571.9038409904153468 [Eh]
	-----------------------------------------------------------

  Dipole Moment: [D]
     X:    -2.1742      Y:    -0.9490      Z:    -0.3240     Total:     2.3944

*** Psi4 exiting successfully. Buy a developer a beer!
