                               Psi4 1.3.2 release

  ==> Input File <==

--------------------------------------------------------------------------
#psi4
#
memory 32 gb

molecule  {
0 1
  O       -0.1147700    -1.8002930     0.4548730
  O        0.3584290     1.3939840    -1.0246780
  O       -1.9551560     1.3713260     0.4690830
  O        2.7148150     0.4505790    -0.2056670
  O       -1.6730203    -0.8125227    -0.9992053
  C        0.4315910     1.0135520     0.3497470
  C       -0.9056662     0.4692369     0.8518565
  C        1.5345100    -0.0288940     0.4204030
  C       -1.2151430    -0.9364420     0.3397180
  C        1.0549700    -1.3167000    -0.2286510
  H        0.7042560     1.8874530     0.9605880
  H       -0.8818830     0.4322700     1.9353370
  H        1.7837760    -0.2316310     1.4680400
  H       -1.9939520    -1.3968640     0.9617720
  H        0.8436020    -1.1475360    -1.2899680
  H        1.8059140    -2.1013880    -0.1265130
  H       -0.3930520     2.0121160    -1.0836700
  H       -2.3417080     0.9766970    -0.3400740
  H        2.3997000     0.9352960    -0.9928030
  H       -1.9956420    -1.6762600    -1.2784950
units angstrom
no_reorient  #important for SAPT in psi4, default
symmetry c1  #important for SAPT in psi4, default
}

set PROPERTIES_ORIGIN ["COM"]
properties('MP2/aug-cc-pvtz', properties = ['dipole'])
--------------------------------------------------------------------------

    Molecular point group: c1
  Charge       = 0
  Multiplicity = 1
  Basis Set: AUG-CC-PVTZ
    Blend: AUG-CC-PVTZ
  Basis Set: (AUG-CC-PVTZ AUX)
    Blend: AUG-CC-PVTZ-JKFIT

    Orbital Energies [Eh]
    ---------------------

    Doubly Occupied:

       1A    -20.590219     2A    -20.580297     3A    -20.574000
       4A    -20.571753     5A    -20.558206     6A    -11.354156
       7A    -11.298766     8A    -11.291551     9A    -11.285635
      10A    -11.278072    11A     -1.438983    12A     -1.391068
      13A     -1.374195    14A     -1.354362    15A     -1.347404
      16A     -1.059608    17A     -1.023736    18A     -0.899144
      19A     -0.870518    20A     -0.799664    21A     -0.752213
      22A     -0.728483    23A     -0.711540    24A     -0.695759
      25A     -0.669777    26A     -0.646558    27A     -0.621066
      28A     -0.613865    29A     -0.603233    30A     -0.584399
      31A     -0.571802    32A     -0.555898    33A     -0.543100
      34A     -0.516842    35A     -0.502527    36A     -0.490970
      37A     -0.488446    38A     -0.471428    39A     -0.440830
      40A     -0.415944

  @DF-RHF Final Energy:  -569.67524147971426

   => Energetics <=

    Nuclear Repulsion Energy =            633.5666204713470506
    One-Electron Energy =               -2041.3516821743289711
    Two-Electron Energy =                 838.1098202232676613
    Total Energy =                       -569.6752414797142592
  Basis Set: (AUG-CC-PVTZ AUX)
    Blend: AUG-CC-PVTZ-RI
    Molecular point group: c1

    Geometry (in Angstrom), charge = 0, multiplicity = 1:

       Center              X                  Y                   Z               Mass
    ------------   -----------------  -----------------  -----------------  -----------------
         O           -0.114915159880    -1.798579397989     0.454007285699    15.994914619570
         O            0.358283840120     1.395697602011    -1.025543714301    15.994914619570
         O           -1.955301159880     1.373039602011     0.468217285699    15.994914619570
         O            2.714669840120     0.452292602011    -0.206532714301    15.994914619570
         O           -1.673165459880    -0.810809097989    -1.000071014301    15.994914619570
         C            0.431445840120     1.015265602011     0.348881285699    12.000000000000
         C           -0.905811359880     0.470950502011     0.850990785699    12.000000000000
         C            1.534364840120    -0.027180397989     0.419537285699    12.000000000000
         C           -1.215288159880    -0.934728397989     0.338852285699    12.000000000000
         C            1.054824840120    -1.314986397989    -0.229516714301    12.000000000000
         H            0.704110840120     1.889166602011     0.959722285699     1.007825032230
         H           -0.882028159880     0.433983602011     1.934471285699     1.007825032230
         H            1.783630840120    -0.229917397989     1.467174285699     1.007825032230
         H           -1.994097159880    -1.395150397989     0.960906285699     1.007825032230
         H            0.843456840120    -1.145822397989    -1.290833714301     1.007825032230
         H            1.805768840120    -2.099674397989    -0.127378714301     1.007825032230
         H           -0.393197159880     2.013829602011    -1.084535714301     1.007825032230
         H           -2.341853159880     0.978410602011    -0.340939714301     1.007825032230
         H            2.399554840120     0.937009602011    -0.993668714301     1.007825032230
         H           -1.995787159880    -1.674546397989    -1.279360714301     1.007825032230

  Basis Set: AUG-CC-PVTZ
    Blend: AUG-CC-PVTZ
  Basis Set: (AUG-CC-PVTZ AUX)
    Blend: AUG-CC-PVTZ-JKFIT
	 Reference Energy          =    -569.6752414797142592 [Eh]
	 Singles Energy            =      -0.0000000000000000 [Eh]
	 Same-Spin Energy          =      -0.5543529901978265 [Eh]
	 Opposite-Spin Energy      =      -1.7034654815168500 [Eh]
	 Correlation Energy        =      -2.2578184717146765 [Eh]
	 Total Energy              =    -571.9330599514289588 [Eh]

	 ================> DF-SCS-MP2 Energies <==================
	-----------------------------------------------------------
	 SCS Same-Spin Scale       =       0.3333333333333333 [-]
	 SCS Opposite-Spin Scale   =       1.2000000000000000 [-]
	 SCS Same-Spin Energy      =      -0.1847843300659421 [Eh]
	 SCS Opposite-Spin Energy  =      -2.0441585778202200 [Eh]
	 SCS Correlation Energy    =      -2.2289429078861622 [Eh]
	 SCS Total Energy          =    -571.9041843876003668 [Eh]
	-----------------------------------------------------------

  Dipole Moment: [D]
     X:    -2.1644      Y:    -0.9816      Z:    -0.2724     Total:     2.3921

*** Psi4 exiting successfully. Buy a developer a beer!
