                               Psi4 1.4a3.dev225

  ==> Input File <==

--------------------------------------------------------------------------
#psi4
#
memory 32 gb

molecule  {
0 1
  O       -0.2343850     1.7978400    -0.4145210
  O        0.4791390    -1.3900560     0.9851260
  O       -1.8902550    -1.4798720    -0.4079610
  O        2.7489250    -0.2990660     0.0843650
  O       -1.6766260     0.6849030     1.0797040
  C        0.4758930    -0.9871420    -0.3839460
  C       -0.9153110    -0.5160320    -0.8112700
  C        1.5322250     0.1146454    -0.4731611
  C       -1.2794180     0.8705190    -0.2725550
  C        0.9914930     1.3693070     0.2124490
  H        0.7732420    -1.8350180    -1.0199460
  H       -0.9367810    -0.4539690    -1.9062570
  H        1.7061480     0.3550680    -1.5342930
  H       -2.1075740     1.2945610    -0.8542440
  H        0.8333730     1.1741050     1.2776920
  H        1.6908660     2.1982840     0.0933200
  H       -0.2684360    -2.0097880     1.0741120
  H       -2.2907410    -1.1048270     0.4011470
  H        2.5001980    -0.8049050     0.8819700
  H       -2.0397460     1.5332780     1.3914430
units angstrom
no_reorient  #important for SAPT in psi4, default
symmetry c1  #important for SAPT in psi4, default
}

set PROPERTIES_ORIGIN ["COM"]
properties('MP2/aug-cc-pvtz', properties = ['dipole'])
--------------------------------------------------------------------------

    Molecular point group: c1
  Charge       = 0
  Multiplicity = 1
  Basis Set: AUG-CC-PVTZ
    Blend: AUG-CC-PVTZ
  Basis Set: (AUG-CC-PVTZ AUX)
    Blend: AUG-CC-PVTZ-JKFIT

    Orbital Energies [Eh]
    ---------------------

    Doubly Occupied:

       1A    -20.591754     2A    -20.581177     3A    -20.575154
       4A    -20.569734     5A    -20.560794     6A    -11.354569
       7A    -11.299539     8A    -11.290729     9A    -11.286549
      10A    -11.278198    11A     -1.437742    12A     -1.392210
      13A     -1.377643    14A     -1.354890    15A     -1.350511
      16A     -1.055670    17A     -1.021451    18A     -0.897574
      19A     -0.870086    20A     -0.798477    21A     -0.752176
      22A     -0.726775    23A     -0.711960    24A     -0.696431
      25A     -0.669147    26A     -0.648176    27A     -0.621476
      28A     -0.614741    29A     -0.601561    30A     -0.585342
      31A     -0.573455    32A     -0.558387    33A     -0.543101
      34A     -0.514368    35A     -0.503120    36A     -0.490565
      37A     -0.487761    38A     -0.469155    39A     -0.440798
      40A     -0.413886

  @DF-RHF Final Energy:  -569.67447331269045

   => Energetics <=

    Nuclear Repulsion Energy =            633.0607688821041847
    One-Electron Energy =               -2040.3368191030313028
    Two-Electron Energy =                 837.6015769082366660
    Total Energy =                       -569.6744733126904521
  Basis Set: (AUG-CC-PVTZ AUX)
    Blend: AUG-CC-PVTZ-RI
    Molecular point group: c1

    Geometry (in Angstrom), charge = 0, multiplicity = 1:

       Center              X                  Y                   Z               Mass
    ------------   -----------------  -----------------  -----------------  -----------------
         O           -0.236715677515     1.800582065815    -0.416402215120    15.994914619570
         O            0.476808322485    -1.387313934185     0.983244784880    15.994914619570
         O           -1.892585677515    -1.477129934185    -0.409842215120    15.994914619570
         O            2.746594322485    -0.296323934185     0.082483784880    15.994914619570
         O           -1.678956677515     0.687645065815     1.077822784880    15.994914619570
         C            0.473562322485    -0.984399934185    -0.385827215120    12.000000000000
         C           -0.917641677515    -0.513289934185    -0.813151215120    12.000000000000
         C            1.529894322485     0.117387465815    -0.475042315120    12.000000000000
         C           -1.281748677515     0.873261065815    -0.274436215120    12.000000000000
         C            0.989162322485     1.372049065815     0.210567784880    12.000000000000
         H            0.770911322485    -1.832275934185    -1.021827215120     1.007825032230
         H           -0.939111677515    -0.451226934185    -1.908138215120     1.007825032230
         H            1.703817322485     0.357810065815    -1.536174215120     1.007825032230
         H           -2.109904677515     1.297303065815    -0.856125215120     1.007825032230
         H            0.831042322485     1.176847065815     1.275810784880     1.007825032230
         H            1.688535322485     2.201026065815     0.091438784880     1.007825032230
         H           -0.270766677515    -2.007045934185     1.072230784880     1.007825032230
         H           -2.293071677515    -1.102084934185     0.399265784880     1.007825032230
         H            2.497867322485    -0.802162934185     0.880088784880     1.007825032230
         H           -2.042076677515     1.536020065815     1.389561784880     1.007825032230

  Basis Set: AUG-CC-PVTZ
    Blend: AUG-CC-PVTZ
  Basis Set: (AUG-CC-PVTZ AUX)
    Blend: AUG-CC-PVTZ-JKFIT
	 Reference Energy          =    -569.6744733126904521 [Eh]
	 Singles Energy            =      -0.0000000000000000 [Eh]
	 Same-Spin Energy          =      -0.5544665443445309 [Eh]
	 Opposite-Spin Energy      =      -1.7036865075601777 [Eh]
	 Correlation Energy        =      -2.2581530519047086 [Eh]
	 Total Energy              =    -571.9326263645951940 [Eh]

	 ================> DF-SCS-MP2 Energies <==================
	-----------------------------------------------------------
	 SCS Same-Spin Scale       =       0.3333333333333333 [-]
	 SCS Opposite-Spin Scale   =       1.2000000000000000 [-]
	 SCS Same-Spin Energy      =      -0.1848221814481770 [Eh]
	 SCS Opposite-Spin Energy  =      -2.0444238090722133 [Eh]
	 SCS Correlation Energy    =      -2.2292459905203903 [Eh]
	 SCS Total Energy          =    -571.9037193032108917 [Eh]
	-----------------------------------------------------------

  Dipole Moment: [D]
     X:    -2.2341      Y:     0.9381      Z:     0.4208     Total:     2.4593

*** Psi4 exiting successfully. Buy a developer a beer!
