                               Psi4 1.3.2 release

  ==> Input File <==

--------------------------------------------------------------------------
#psi4
#
memory 32 gb

molecule  {
0 1
  O       -0.1147700    -1.8002930     0.4548730
  O        0.3584290     1.3939840    -1.0246780
  O       -1.9551560     1.3713260     0.4690830
  O        2.7148150     0.4505790    -0.2056670
  O       -1.7360206    -0.8310110    -0.9775876
  C        0.4315910     1.0135520     0.3497470
  C       -0.9093320     0.4742750     0.8400700
  C        1.5345100    -0.0288940     0.4204030
  C       -1.2151430    -0.9364420     0.3397180
  C        1.0549700    -1.3167000    -0.2286510
  H        0.7042560     1.8874530     0.9605880
  H       -0.8818830     0.4322700     1.9353370
  H        1.7837760    -0.2316310     1.4680400
  H       -2.0275984    -1.3992465     0.9152275
  H        0.8436020    -1.1475360    -1.2899680
  H        1.8059140    -2.1013880    -0.1265130
  H       -0.3930520     2.0121160    -1.0836700
  H       -2.3417080     0.9766970    -0.3400740
  H        2.3997000     0.9352960    -0.9928030
  H       -1.9956420    -1.6762600    -1.2784950
units angstrom
no_reorient  #important for SAPT in psi4, default
symmetry c1  #important for SAPT in psi4, default
}

set PROPERTIES_ORIGIN ["COM"]
properties('MP2/aug-cc-pvtz', properties = ['dipole'])
--------------------------------------------------------------------------

    Molecular point group: c1
  Charge       = 0
  Multiplicity = 1
  Basis Set: AUG-CC-PVTZ
    Blend: AUG-CC-PVTZ
  Basis Set: (AUG-CC-PVTZ AUX)
    Blend: AUG-CC-PVTZ-JKFIT

    Orbital Energies [Eh]
    ---------------------

    Doubly Occupied:

       1A    -20.584383     2A    -20.582887     3A    -20.575118
       4A    -20.572633     5A    -20.559304     6A    -11.354187
       7A    -11.300351     8A    -11.292302     9A    -11.286866
      10A    -11.279956    11A     -1.440494    12A     -1.392956
      13A     -1.377389    14A     -1.358808    15A     -1.348832
      16A     -1.060353    17A     -1.024449    18A     -0.901933
      19A     -0.871871    20A     -0.801651    21A     -0.752582
      22A     -0.732727    23A     -0.712682    24A     -0.697035
      25A     -0.670911    26A     -0.648604    27A     -0.622048
      28A     -0.615392    29A     -0.604658    30A     -0.587628
      31A     -0.570290    32A     -0.557864    33A     -0.543847
      34A     -0.517592    35A     -0.499807    36A     -0.491511
      37A     -0.489443    38A     -0.472346    39A     -0.441039
      40A     -0.417485

  @DF-RHF Final Energy:  -569.67493130524508

   => Energetics <=

    Nuclear Repulsion Energy =            632.9338515089896191
    One-Electron Energy =               -2039.9931354026025474
    Two-Electron Energy =                 837.3843525883678467
    Total Energy =                       -569.6749313052450816
  Basis Set: (AUG-CC-PVTZ AUX)
    Blend: AUG-CC-PVTZ-RI
    Molecular point group: c1

    Geometry (in Angstrom), charge = 0, multiplicity = 1:

       Center              X                  Y                   Z               Mass
    ------------   -----------------  -----------------  -----------------  -----------------
         O           -0.107680482925    -1.796995537601     0.452958144803    15.994914619570
         O            0.365518517075     1.397281462399    -1.026592855197    15.994914619570
         O           -1.948066482925     1.374623462399     0.467168144803    15.994914619570
         O            2.721904517075     0.453876462399    -0.207581855197    15.994914619570
         O           -1.728931082925    -0.827713537601    -0.979502455197    15.994914619570
         C            0.438680517075     1.016849462399     0.347832144803    12.000000000000
         C           -0.902242482925     0.477572462399     0.838155144803    12.000000000000
         C            1.541599517075    -0.025596537601     0.418488144803    12.000000000000
         C           -1.208053482925    -0.933144537601     0.337803144803    12.000000000000
         C            1.062059517075    -1.313402537601    -0.230565855197    12.000000000000
         H            0.711345517075     1.890750462399     0.958673144803     1.007825032230
         H           -0.874793482925     0.435567462399     1.933422144803     1.007825032230
         H            1.790865517075    -0.228333537601     1.466125144803     1.007825032230
         H           -2.020508882925    -1.395949037601     0.913312644803     1.007825032230
         H            0.850691517075    -1.144238537601    -1.291882855197     1.007825032230
         H            1.813003517075    -2.098090537601    -0.128427855197     1.007825032230
         H           -0.385962482925     2.015413462399    -1.085584855197     1.007825032230
         H           -2.334618482925     0.979994462399    -0.341988855197     1.007825032230
         H            2.406789517075     0.938593462399    -0.994717855197     1.007825032230
         H           -1.988552482925    -1.672962537601    -1.280409855197     1.007825032230

  Basis Set: AUG-CC-PVTZ
    Blend: AUG-CC-PVTZ
  Basis Set: (AUG-CC-PVTZ AUX)
    Blend: AUG-CC-PVTZ-JKFIT
	 Reference Energy          =    -569.6749313052450816 [Eh]
	 Singles Energy            =      -0.0000000000000000 [Eh]
	 Same-Spin Energy          =      -0.5538002462994174 [Eh]
	 Opposite-Spin Energy      =      -1.7021118006867786 [Eh]
	 Correlation Energy        =      -2.2559120469861957 [Eh]
	 Total Energy              =    -571.9308433522312498 [Eh]

	 ================> DF-SCS-MP2 Energies <==================
	-----------------------------------------------------------
	 SCS Same-Spin Scale       =       0.3333333333333333 [-]
	 SCS Opposite-Spin Scale   =       1.2000000000000000 [-]
	 SCS Same-Spin Energy      =      -0.1846000820998058 [Eh]
	 SCS Opposite-Spin Energy  =      -2.0425341608241343 [Eh]
	 SCS Correlation Energy    =      -2.2271342429239400 [Eh]
	 SCS Total Energy          =    -571.9020655481690483 [Eh]
	-----------------------------------------------------------

  Dipole Moment: [D]
     X:    -2.0067      Y:    -0.9372      Z:    -0.3097     Total:     2.2363

*** Psi4 exiting successfully. Buy a developer a beer!
