                               Psi4 1.3.2 release

  ==> Input File <==

--------------------------------------------------------------------------
#psi4
#
memory 32 gb

molecule  {
0 1
  O       -0.1147700    -1.8002930     0.4548730
  O        0.3584290     1.3939840    -1.0246780
  O       -1.9551560     1.3713260     0.4690830
  O        2.7148150     0.4505790    -0.2056670
  O       -1.6716310    -0.8002260    -0.9984850
  C        0.4315910     1.0135520     0.3497470
  C       -0.9093320     0.4742750     0.8400700
  C        1.5345100    -0.0288940     0.4204030
  C       -1.2151430    -0.9364420     0.3397180
  C        1.0549700    -1.3167000    -0.2286510
  H        0.7042560     1.8874530     0.9605880
  H       -0.8818830     0.4322700     1.9353370
  H        1.7837760    -0.2316310     1.4680400
  H       -1.9939520    -1.3968640     0.9617720
  H        0.8436020    -1.1475360    -1.2899680
  H        1.8059140    -2.1013880    -0.1265130
  H       -0.3930520     2.0121160    -1.0836700
  H       -2.3811626     0.9364180    -0.4226630
  H        2.3997000     0.9352960    -0.9928030
  H       -1.9956420    -1.6762600    -1.2784950
units angstrom
no_reorient  #important for SAPT in psi4, default
symmetry c1  #important for SAPT in psi4, default
}

set PROPERTIES_ORIGIN ["COM"]
properties('MP2/aug-cc-pvtz', properties = ['dipole'])
--------------------------------------------------------------------------

    Molecular point group: c1
  Charge       = 0
  Multiplicity = 1
  Basis Set: AUG-CC-PVTZ
    Blend: AUG-CC-PVTZ
  Basis Set: (AUG-CC-PVTZ AUX)
    Blend: AUG-CC-PVTZ-JKFIT

    Orbital Energies [Eh]
    ---------------------

    Doubly Occupied:

       1A    -20.593846     2A    -20.580719     3A    -20.578590
       4A    -20.570333     5A    -20.557825     6A    -11.353752
       7A    -11.296769     8A    -11.290064     9A    -11.285135
      10A    -11.278027    11A     -1.438521    12A     -1.388687
      13A     -1.368660    14A     -1.351426    15A     -1.340656
      16A     -1.056411    17A     -1.021256    18A     -0.898234
      19A     -0.865778    20A     -0.795898    21A     -0.751550
      22A     -0.727183    23A     -0.711279    24A     -0.686605
      25A     -0.668653    26A     -0.641965    27A     -0.621126
      28A     -0.612517    29A     -0.600960    30A     -0.583004
      31A     -0.567074    32A     -0.553774    33A     -0.541045
      34A     -0.514684    35A     -0.503110    36A     -0.489911
      37A     -0.484787    38A     -0.471359    39A     -0.438566
      40A     -0.414992

  @DF-RHF Final Energy:  -569.66100246006204

   => Energetics <=

    Nuclear Repulsion Energy =            633.3421909010094168
    One-Electron Energy =               -2041.0169253215171921
    Two-Electron Energy =                 838.0137319604457389
    Total Energy =                       -569.6610024600620363
  Basis Set: (AUG-CC-PVTZ AUX)
    Blend: AUG-CC-PVTZ-RI
    Molecular point group: c1

    Geometry (in Angstrom), charge = 0, multiplicity = 1:

       Center              X                  Y                   Z               Mass
    ------------   -----------------  -----------------  -----------------  -----------------
         O           -0.114505096295    -1.800022540992     0.455427799620    15.994914619570
         O            0.358693903705     1.394254459008    -1.024123200380    15.994914619570
         O           -1.954891096295     1.371596459008     0.469637799620    15.994914619570
         O            2.715079903705     0.450849459008    -0.205112200380    15.994914619570
         O           -1.671366096295    -0.799955540992    -0.997930200380    15.994914619570
         C            0.431855903705     1.013822459008     0.350301799620    12.000000000000
         C           -0.909067096295     0.474545459008     0.840624799620    12.000000000000
         C            1.534774903705    -0.028623540992     0.420957799620    12.000000000000
         C           -1.214878096295    -0.936171540992     0.340272799620    12.000000000000
         C            1.055234903705    -1.316429540992    -0.228096200380    12.000000000000
         H            0.704520903705     1.887723459008     0.961142799620     1.007825032230
         H           -0.881618096295     0.432540459008     1.935891799620     1.007825032230
         H            1.784040903705    -0.231360540992     1.468594799620     1.007825032230
         H           -1.993687096295    -1.396593540992     0.962326799620     1.007825032230
         H            0.843866903705    -1.147265540992    -1.289413200380     1.007825032230
         H            1.806178903705    -2.101117540992    -0.125958200380     1.007825032230
         H           -0.392787096295     2.012386459008    -1.083115200380     1.007825032230
         H           -2.380897696295     0.936688459008    -0.422108200380     1.007825032230
         H            2.399964903705     0.935566459008    -0.992248200380     1.007825032230
         H           -1.995377096295    -1.675989540992    -1.277940200380     1.007825032230

  Basis Set: AUG-CC-PVTZ
    Blend: AUG-CC-PVTZ
  Basis Set: (AUG-CC-PVTZ AUX)
    Blend: AUG-CC-PVTZ-JKFIT
	 Reference Energy          =    -569.6610024600620363 [Eh]
	 Singles Energy            =      -0.0000000000000000 [Eh]
	 Same-Spin Energy          =      -0.5560809645826480 [Eh]
	 Opposite-Spin Energy      =      -1.7072504366602050 [Eh]
	 Correlation Energy        =      -2.2633314012428531 [Eh]
	 Total Energy              =    -571.9243338613049445 [Eh]

	 ================> DF-SCS-MP2 Energies <==================
	-----------------------------------------------------------
	 SCS Same-Spin Scale       =       0.3333333333333333 [-]
	 SCS Opposite-Spin Scale   =       1.2000000000000000 [-]
	 SCS Same-Spin Energy      =      -0.1853603215275493 [Eh]
	 SCS Opposite-Spin Energy  =      -2.0487005239922458 [Eh]
	 SCS Correlation Energy    =      -2.2340608455197950 [Eh]
	 SCS Total Energy          =    -571.8950633055818571 [Eh]
	-----------------------------------------------------------

  Dipole Moment: [D]
     X:    -2.2409      Y:    -1.0730      Z:    -0.4049     Total:     2.5173

*** Psi4 exiting successfully. Buy a developer a beer!
