                               Psi4 1.3.2 release

  ==> Input File <==

--------------------------------------------------------------------------
#psi4
#
memory 32 gb

molecule  {
0 1
  O       -0.1147700    -1.8002930     0.4548730
  O        0.3584290     1.3939840    -1.0246780
  O       -1.9551560     1.3713260     0.4690830
  O        2.7268932     0.4482927    -0.1841572
  O       -1.6716310    -0.8002260    -0.9984850
  C        0.4315910     1.0135520     0.3497470
  C       -0.9093320     0.4742750     0.8400700
  C        1.5345100    -0.0288940     0.4204030
  C       -1.2151430    -0.9364420     0.3397180
  C        1.0549700    -1.3167000    -0.2286510
  H        0.7042560     1.8874530     0.9605880
  H       -0.8818830     0.4322700     1.9353370
  H        1.8017237    -0.2259319     1.4646980
  H       -1.9939520    -1.3968640     0.9617720
  H        0.8436020    -1.1475360    -1.2899680
  H        1.8059140    -2.1013880    -0.1265130
  H       -0.3930520     2.0121160    -1.0836700
  H       -2.3417080     0.9766970    -0.3400740
  H        2.3997000     0.9352960    -0.9928030
  H       -1.9956420    -1.6762600    -1.2784950
units angstrom
no_reorient  #important for SAPT in psi4, default
symmetry c1  #important for SAPT in psi4, default
}

set PROPERTIES_ORIGIN ["COM"]
properties('MP2/aug-cc-pvtz', properties = ['dipole'])
--------------------------------------------------------------------------

    Molecular point group: c1
  Charge       = 0
  Multiplicity = 1
  Basis Set: AUG-CC-PVTZ
    Blend: AUG-CC-PVTZ
  Basis Set: (AUG-CC-PVTZ AUX)
    Blend: AUG-CC-PVTZ-JKFIT

    Orbital Energies [Eh]
    ---------------------

    Doubly Occupied:

       1A    -20.591739     2A    -20.580939     3A    -20.574801
       4A    -20.571748     5A    -20.560394     6A    -11.353989
       7A    -11.298541     8A    -11.291310     9A    -11.285039
      10A    -11.278442    11A     -1.438840    12A     -1.391183
      13A     -1.374875    14A     -1.353808    15A     -1.345966
      16A     -1.058464    17A     -1.022626    18A     -0.898774
      19A     -0.869151    20A     -0.797778    21A     -0.752488
      22A     -0.727591    23A     -0.711942    24A     -0.695838
      25A     -0.667936    26A     -0.644185    27A     -0.621362
      28A     -0.614288    29A     -0.602963    30A     -0.582807
      31A     -0.572118    32A     -0.556000    33A     -0.542485
      34A     -0.515982    35A     -0.502732    36A     -0.491335
      37A     -0.487739    38A     -0.471817    39A     -0.440634
      40A     -0.415956

  @DF-RHF Final Energy:  -569.67236076756183

   => Energetics <=

    Nuclear Repulsion Energy =            633.4807924973482613
    One-Electron Energy =               -2041.1930921893244886
    Two-Electron Energy =                 838.0399389244142867
    Total Energy =                       -569.6723607675618268
  Basis Set: (AUG-CC-PVTZ AUX)
    Blend: AUG-CC-PVTZ-RI
    Molecular point group: c1

    Geometry (in Angstrom), charge = 0, multiplicity = 1:

       Center              X                  Y                   Z               Mass
    ------------   -----------------  -----------------  -----------------  -----------------
         O           -0.116178115482    -1.800087642778     0.452602697665    15.994914619570
         O            0.357020884518     1.394189357222    -1.026948302335    15.994914619570
         O           -1.956564115482     1.371531357222     0.466812697665    15.994914619570
         O            2.725485084518     0.448498057222    -0.186427502335    15.994914619570
         O           -1.673039115482    -0.800020642778    -1.000755302335    15.994914619570
         C            0.430182884518     1.013757357222     0.347476697665    12.000000000000
         C           -0.910740115482     0.474480357222     0.837799697665    12.000000000000
         C            1.533101884518    -0.028688642778     0.418132697665    12.000000000000
         C           -1.216551115482    -0.936236642778     0.337447697665    12.000000000000
         C            1.053561884518    -1.316494642778    -0.230921302335    12.000000000000
         H            0.702847884518     1.887658357222     0.958317697665     1.007825032230
         H           -0.883291115482     0.432475357222     1.933066697665     1.007825032230
         H            1.800315584518    -0.225726542778     1.462427697665     1.007825032230
         H           -1.995360115482    -1.396658642778     0.959501697665     1.007825032230
         H            0.842193884518    -1.147330642778    -1.292238302335     1.007825032230
         H            1.804505884518    -2.101182642778    -0.128783302335     1.007825032230
         H           -0.394460115482     2.012321357222    -1.085940302335     1.007825032230
         H           -2.343116115482     0.976902357222    -0.342344302335     1.007825032230
         H            2.398291884518     0.935501357222    -0.995073302335     1.007825032230
         H           -1.997050115482    -1.676054642778    -1.280765302335     1.007825032230

  Basis Set: AUG-CC-PVTZ
    Blend: AUG-CC-PVTZ
  Basis Set: (AUG-CC-PVTZ AUX)
    Blend: AUG-CC-PVTZ-JKFIT
	 Reference Energy          =    -569.6723607675618268 [Eh]
	 Singles Energy            =      -0.0000000000000000 [Eh]
	 Same-Spin Energy          =      -0.5549567982919859 [Eh]
	 Opposite-Spin Energy      =      -1.7047637961781468 [Eh]
	 Correlation Energy        =      -2.2597205944701324 [Eh]
	 Total Energy              =    -571.9320813620319086 [Eh]

	 ================> DF-SCS-MP2 Energies <==================
	-----------------------------------------------------------
	 SCS Same-Spin Scale       =       0.3333333333333333 [-]
	 SCS Opposite-Spin Scale   =       1.2000000000000000 [-]
	 SCS Same-Spin Energy      =      -0.1849855994306620 [Eh]
	 SCS Opposite-Spin Energy  =      -2.0457165554137760 [Eh]
	 SCS Correlation Energy    =      -2.2307021548444377 [Eh]
	 SCS Total Energy          =    -571.9030629224063205 [Eh]
	-----------------------------------------------------------

  Dipole Moment: [D]
     X:    -2.1999      Y:    -0.9917      Z:    -0.3343     Total:     2.4361

*** Psi4 exiting successfully. Buy a developer a beer!
