                               Psi4 1.3.2 release

  ==> Input File <==

--------------------------------------------------------------------------
#psi4
#
memory 32 gb

molecule  {
0 1
  O       -0.1135173    -1.7806469     0.4704553
  O        0.3584290     1.3939840    -1.0246780
  O       -1.9551560     1.3713260     0.4690830
  O        2.7148150     0.4505790    -0.2056670
  O       -1.6716310    -0.8002260    -0.9984850
  C        0.4315910     1.0135520     0.3497470
  C       -0.9093320     0.4742750     0.8400700
  C        1.5145270    -0.0304805     0.4377728
  C       -1.2151430    -0.9364420     0.3397180
  C        1.0549700    -1.3167000    -0.2286510
  H        0.7042560     1.8874530     0.9605880
  H       -0.8818830     0.4322700     1.9353370
  H        1.7837760    -0.2316310     1.4680400
  H       -1.9939520    -1.3968640     0.9617720
  H        0.8436020    -1.1475360    -1.2899680
  H        1.8059140    -2.1013880    -0.1265130
  H       -0.3930520     2.0121160    -1.0836700
  H       -2.3417080     0.9766970    -0.3400740
  H        2.3997000     0.9352960    -0.9928030
  H       -1.9956420    -1.6762600    -1.2784950
units angstrom
no_reorient  #important for SAPT in psi4, default
symmetry c1  #important for SAPT in psi4, default
}

set PROPERTIES_ORIGIN ["COM"]
properties('MP2/aug-cc-pvtz', properties = ['dipole'])
--------------------------------------------------------------------------

    Molecular point group: c1
  Charge       = 0
  Multiplicity = 1
  Basis Set: AUG-CC-PVTZ
    Blend: AUG-CC-PVTZ
  Basis Set: (AUG-CC-PVTZ AUX)
    Blend: AUG-CC-PVTZ-JKFIT

    Orbital Energies [Eh]
    ---------------------

    Doubly Occupied:

       1A    -20.592084     2A    -20.580318     3A    -20.573844
       4A    -20.571488     5A    -20.554975     6A    -11.353424
       7A    -11.297470     8A    -11.291251     9A    -11.284960
      10A    -11.279765    11A     -1.440748    12A     -1.390576
      13A     -1.374187    14A     -1.354459    15A     -1.341243
      16A     -1.061432    17A     -1.024705    18A     -0.898958
      19A     -0.870387    20A     -0.798549    21A     -0.753033
      22A     -0.728502    23A     -0.712736    24A     -0.695305
      25A     -0.668472    26A     -0.644838    27A     -0.620686
      28A     -0.614201    29A     -0.602555    30A     -0.585259
      31A     -0.569724    32A     -0.553245    33A     -0.542091
      34A     -0.518093    35A     -0.503459    36A     -0.490297
      37A     -0.486505    38A     -0.475446    39A     -0.440956
      40A     -0.415452

  @DF-RHF Final Energy:  -569.67362839512441

   => Energetics <=

    Nuclear Repulsion Energy =            634.3211462862687995
    One-Electron Energy =               -2042.8781946630085713
    Two-Electron Energy =                 838.8834199816152477
    Total Energy =                       -569.6736283951244104
  Basis Set: (AUG-CC-PVTZ AUX)
    Blend: AUG-CC-PVTZ-RI
    Molecular point group: c1

    Geometry (in Angstrom), charge = 0, multiplicity = 1:

       Center              X                  Y                   Z               Mass
    ------------   -----------------  -----------------  -----------------  -----------------
         O           -0.112052846478    -1.782614278767     0.467405299608    15.994914619570
         O            0.359893453522     1.392016621233    -1.027728000392    15.994914619570
         O           -1.953691546478     1.369358621233     0.466032999608    15.994914619570
         O            2.716279453522     0.448611621233    -0.208717000392    15.994914619570
         O           -1.670166546478    -0.802193378767    -1.001535000392    15.994914619570
         C            0.433055453522     1.011584621233     0.346696999608    12.000000000000
         C           -0.907867546478     0.472307621233     0.837019999608    12.000000000000
         C            1.515991453522    -0.032447878767     0.434722799608    12.000000000000
         C           -1.213678546478    -0.938409378767     0.336667999608    12.000000000000
         C            1.056434453522    -1.318667378767    -0.231701000392    12.000000000000
         H            0.705720453522     1.885485621233     0.957537999608     1.007825032230
         H           -0.880418546478     0.430302621233     1.932286999608     1.007825032230
         H            1.785240453522    -0.233598378767     1.464989999608     1.007825032230
         H           -1.992487546478    -1.398831378767     0.958721999608     1.007825032230
         H            0.845066453522    -1.149503378767    -1.293018000392     1.007825032230
         H            1.807378453522    -2.103355378767    -0.129563000392     1.007825032230
         H           -0.391587546478     2.010148621233    -1.086720000392     1.007825032230
         H           -2.340243546478     0.974729621233    -0.343124000392     1.007825032230
         H            2.401164453522     0.933328621233    -0.995853000392     1.007825032230
         H           -1.994177546478    -1.678227378767    -1.281545000392     1.007825032230

  Basis Set: AUG-CC-PVTZ
    Blend: AUG-CC-PVTZ
  Basis Set: (AUG-CC-PVTZ AUX)
    Blend: AUG-CC-PVTZ-JKFIT
	 Reference Energy          =    -569.6736283951244104 [Eh]
	 Singles Energy            =      -0.0000000000000000 [Eh]
	 Same-Spin Energy          =      -0.5546788918720129 [Eh]
	 Opposite-Spin Energy      =      -1.7040495513645564 [Eh]
	 Correlation Energy        =      -2.2587284432365693 [Eh]
	 Total Energy              =    -571.9323568383609881 [Eh]

	 ================> DF-SCS-MP2 Energies <==================
	-----------------------------------------------------------
	 SCS Same-Spin Scale       =       0.3333333333333333 [-]
	 SCS Opposite-Spin Scale   =       1.2000000000000000 [-]
	 SCS Same-Spin Energy      =      -0.1848929639573376 [Eh]
	 SCS Opposite-Spin Energy  =      -2.0448594616374676 [Eh]
	 SCS Correlation Energy    =      -2.2297524255948051 [Eh]
	 SCS Total Energy          =    -571.9033808207192351 [Eh]
	-----------------------------------------------------------

  Dipole Moment: [D]
     X:    -2.2346      Y:    -1.0875      Z:    -0.2907     Total:     2.5021

*** Psi4 exiting successfully. Buy a developer a beer!
