                               Psi4 1.3.2 release

  ==> Input File <==

--------------------------------------------------------------------------
#psi4
#
memory 32 gb

molecule  {
0 1
  O       -0.1211986    -1.7998050     0.4441015
  O        0.3584290     1.3939840    -1.0246780
  O       -1.9551560     1.3713260     0.4690830
  O        2.7148150     0.4505790    -0.2056670
  O       -1.6716310    -0.8002260    -0.9984850
  C        0.4315910     1.0135520     0.3497470
  C       -0.9093320     0.4742750     0.8400700
  C        1.5345100    -0.0288940     0.4204030
  C       -1.2151430    -0.9364420     0.3397180
  C        1.0549700    -1.3167000    -0.2286510
  H        0.7042560     1.8874530     0.9605880
  H       -0.8818830     0.4322700     1.9353370
  H        1.7837760    -0.2316310     1.4680400
  H       -1.9939520    -1.3968640     0.9617720
  H        0.8345935    -1.1504188    -1.2885904
  H        1.8059140    -2.1013880    -0.1265130
  H       -0.3930520     2.0121160    -1.0836700
  H       -2.3417080     0.9766970    -0.3400740
  H        2.3997000     0.9352960    -0.9928030
  H       -1.9956420    -1.6762600    -1.2784950
units angstrom
no_reorient  #important for SAPT in psi4, default
symmetry c1  #important for SAPT in psi4, default
}

set PROPERTIES_ORIGIN ["COM"]
properties('MP2/aug-cc-pvtz', properties = ['dipole'])
--------------------------------------------------------------------------

    Molecular point group: c1
  Charge       = 0
  Multiplicity = 1
  Basis Set: AUG-CC-PVTZ
    Blend: AUG-CC-PVTZ
  Basis Set: (AUG-CC-PVTZ AUX)
    Blend: AUG-CC-PVTZ-JKFIT

    Orbital Energies [Eh]
    ---------------------

    Doubly Occupied:

       1A    -20.590520     2A    -20.580188     3A    -20.574564
       4A    -20.571222     5A    -20.558534     6A    -11.353263
       7A    -11.298303     8A    -11.291134     9A    -11.286069
      10A    -11.278439    11A     -1.439748    12A     -1.391709
      13A     -1.375802    14A     -1.353655    15A     -1.347875
      16A     -1.059254    17A     -1.023391    18A     -0.898547
      19A     -0.870664    20A     -0.798387    21A     -0.751974
      22A     -0.727626    23A     -0.712703    24A     -0.696136
      25A     -0.669839    26A     -0.646325    27A     -0.620974
      28A     -0.614479    29A     -0.603071    30A     -0.584971
      31A     -0.571904    32A     -0.556255    33A     -0.542943
      34A     -0.516189    35A     -0.502682    36A     -0.490862
      37A     -0.487295    38A     -0.471012    39A     -0.440678
      40A     -0.416030

  @DF-RHF Final Energy:  -569.67491172228927

   => Energetics <=

    Nuclear Repulsion Energy =            633.9921038294432947
    One-Electron Energy =               -2042.2035963005037047
    Two-Electron Energy =                 838.5365807487711436
    Total Energy =                       -569.6749117222892664
  Basis Set: (AUG-CC-PVTZ AUX)
    Blend: AUG-CC-PVTZ-RI
    Molecular point group: c1

    Geometry (in Angstrom), charge = 0, multiplicity = 1:

       Center              X                  Y                   Z               Mass
    ------------   -----------------  -----------------  -----------------  -----------------
         O           -0.120452928491    -1.799837729854     0.445240531089    15.994914619570
         O            0.359174671509     1.393951270146    -1.023538968911    15.994914619570
         O           -1.954410328491     1.371293270146     0.470222031089    15.994914619570
         O            2.715560671509     0.450546270146    -0.204527968911    15.994914619570
         O           -1.670885328491    -0.800258729854    -0.997345968911    15.994914619570
         C            0.432336671509     1.013519270146     0.350886031089    12.000000000000
         C           -0.908586328491     0.474242270146     0.841209031089    12.000000000000
         C            1.535255671509    -0.028926729854     0.421542031089    12.000000000000
         C           -1.214397328491    -0.936474729854     0.340857031089    12.000000000000
         C            1.055715671509    -1.316732729854    -0.227511968911    12.000000000000
         H            0.705001671509     1.887420270146     0.961727031089     1.007825032230
         H           -0.881137328491     0.432237270146     1.936476031089     1.007825032230
         H            1.784521671509    -0.231663729854     1.469179031089     1.007825032230
         H           -1.993206328491    -1.396896729854     0.962911031089     1.007825032230
         H            0.835339171509    -1.150451529854    -1.287451368911     1.007825032230
         H            1.806659671509    -2.101420729854    -0.125373968911     1.007825032230
         H           -0.392306328491     2.012083270146    -1.082530968911     1.007825032230
         H           -2.340962328491     0.976664270146    -0.338934968911     1.007825032230
         H            2.400445671509     0.935263270146    -0.991663968911     1.007825032230
         H           -1.994896328491    -1.676292729854    -1.277355968911     1.007825032230

  Basis Set: AUG-CC-PVTZ
    Blend: AUG-CC-PVTZ
  Basis Set: (AUG-CC-PVTZ AUX)
    Blend: AUG-CC-PVTZ-JKFIT
	 Reference Energy          =    -569.6749117222892664 [Eh]
	 Singles Energy            =      -0.0000000000000000 [Eh]
	 Same-Spin Energy          =      -0.5545593388681408 [Eh]
	 Opposite-Spin Energy      =      -1.7036901428664302 [Eh]
	 Correlation Energy        =      -2.2582494817345711 [Eh]
	 Total Energy              =    -571.9331612040238042 [Eh]

	 ================> DF-SCS-MP2 Energies <==================
	-----------------------------------------------------------
	 SCS Same-Spin Scale       =       0.3333333333333333 [-]
	 SCS Opposite-Spin Scale   =       1.2000000000000000 [-]
	 SCS Same-Spin Energy      =      -0.1848531129560469 [Eh]
	 SCS Opposite-Spin Energy  =      -2.0444281714397161 [Eh]
	 SCS Correlation Energy    =      -2.2292812843957632 [Eh]
	 SCS Total Energy          =    -571.9041930066849773 [Eh]
	-----------------------------------------------------------

  Dipole Moment: [D]
     X:    -2.1525      Y:    -0.9950      Z:    -0.2752     Total:     2.3873

*** Psi4 exiting successfully. Buy a developer a beer!
