                               Psi4 1.3.2 release

  ==> Input File <==

--------------------------------------------------------------------------
#psi4
#
memory 32 gb

molecule  {
0 1
  O       -0.1147700    -1.8002930     0.4548730
  O        0.3584290     1.3939840    -1.0246780
  O       -1.9551560     1.3713260     0.4690830
  O        2.7148150     0.4505790    -0.2056670
  O       -1.6716310    -0.8002260    -0.9984850
  C        0.4221525     1.0586705     0.3764518
  C       -0.9093320     0.4742750     0.8400700
  C        1.5345100    -0.0288940     0.4204030
  C       -1.2613786    -0.9348170     0.3662367
  C        1.0549700    -1.3167000    -0.2286510
  H        0.7042560     1.8874530     0.9605880
  H       -0.8818830     0.4322700     1.9353370
  H        1.7837760    -0.2316310     1.4680400
  H       -1.9939520    -1.3968640     0.9617720
  H        0.8436020    -1.1475360    -1.2899680
  H        1.8059140    -2.1013880    -0.1265130
  H       -0.3930520     2.0121160    -1.0836700
  H       -2.3417080     0.9766970    -0.3400740
  H        2.3997000     0.9352960    -0.9928030
  H       -1.9956420    -1.6762600    -1.2784950
units angstrom
no_reorient  #important for SAPT in psi4, default
symmetry c1  #important for SAPT in psi4, default
}

set PROPERTIES_ORIGIN ["COM"]
properties('MP2/aug-cc-pvtz', properties = ['dipole'])
--------------------------------------------------------------------------

    Molecular point group: c1
  Charge       = 0
  Multiplicity = 1
  Basis Set: AUG-CC-PVTZ
    Blend: AUG-CC-PVTZ
  Basis Set: (AUG-CC-PVTZ AUX)
    Blend: AUG-CC-PVTZ-JKFIT

    Orbital Energies [Eh]
    ---------------------

    Doubly Occupied:

       1A    -20.592338     2A    -20.575031     3A    -20.573383
       4A    -20.570525     5A    -20.556423     6A    -11.355365
       7A    -11.299633     8A    -11.290501     9A    -11.285347
      10A    -11.276193    11A     -1.430459    12A     -1.387196
      13A     -1.371941    14A     -1.347268    15A     -1.344884
      16A     -1.053780    17A     -1.021673    18A     -0.903306
      19A     -0.867908    20A     -0.794321    21A     -0.756834
      22A     -0.729725    23A     -0.706969    24A     -0.691817
      25A     -0.665960    26A     -0.646369    27A     -0.619288
      28A     -0.609031    29A     -0.602728    30A     -0.583035
      31A     -0.574057    32A     -0.555380    33A     -0.541802
      34A     -0.513573    35A     -0.508117    36A     -0.487457
      37A     -0.483909    38A     -0.467418    39A     -0.439715
      40A     -0.418229

  @DF-RHF Final Energy:  -569.66722625790749

   => Energetics <=

    Nuclear Repulsion Energy =            632.0044630231527663
    One-Electron Energy =               -2038.3455984950601305
    Two-Electron Energy =                 836.6739092139998775
    Total Energy =                       -569.6672262579074868
  Basis Set: (AUG-CC-PVTZ AUX)
    Blend: AUG-CC-PVTZ-RI
    Molecular point group: c1

    Geometry (in Angstrom), charge = 0, multiplicity = 1:

       Center              X                  Y                   Z               Mass
    ------------   -----------------  -----------------  -----------------  -----------------
         O           -0.110317731792    -1.804031237201     0.450616712130    15.994914619570
         O            0.362881268208     1.390245762799    -1.028934287870    15.994914619570
         O           -1.950703731792     1.367587762799     0.464826712130    15.994914619570
         O            2.719267268208     0.446840762799    -0.209923287870    15.994914619570
         O           -1.667178731792    -0.803964237201    -1.002741287870    15.994914619570
         C            0.426604768208     1.054932262799     0.372195512130    12.000000000000
         C           -0.904879731792     0.470536762799     0.835813712130    12.000000000000
         C            1.538962268208    -0.032632237201     0.416146712130    12.000000000000
         C           -1.256926331792    -0.938555237201     0.361980412130    12.000000000000
         C            1.059422268208    -1.320438237201    -0.232907287870    12.000000000000
         H            0.708708268208     1.883714762799     0.956331712130     1.007825032230
         H           -0.877430731792     0.428531762799     1.931080712130     1.007825032230
         H            1.788228268208    -0.235369237201     1.463783712130     1.007825032230
         H           -1.989499731792    -1.400602237201     0.957515712130     1.007825032230
         H            0.848054268208    -1.151274237201    -1.294224287870     1.007825032230
         H            1.810366268208    -2.105126237201    -0.130769287870     1.007825032230
         H           -0.388599731792     2.008377762799    -1.087926287870     1.007825032230
         H           -2.337255731792     0.972958762799    -0.344330287870     1.007825032230
         H            2.404152268208     0.931557762799    -0.997059287870     1.007825032230
         H           -1.991189731792    -1.679998237201    -1.282751287870     1.007825032230

  Basis Set: AUG-CC-PVTZ
    Blend: AUG-CC-PVTZ
  Basis Set: (AUG-CC-PVTZ AUX)
    Blend: AUG-CC-PVTZ-JKFIT
	 Reference Energy          =    -569.6672262579074868 [Eh]
	 Singles Energy            =      -0.0000000000000000 [Eh]
	 Same-Spin Energy          =      -0.5544333039888296 [Eh]
	 Opposite-Spin Energy      =      -1.7047932179325991 [Eh]
	 Correlation Energy        =      -2.2592265219214287 [Eh]
	 Total Energy              =    -571.9264527798288782 [Eh]

	 ================> DF-SCS-MP2 Energies <==================
	-----------------------------------------------------------
	 SCS Same-Spin Scale       =       0.3333333333333333 [-]
	 SCS Opposite-Spin Scale   =       1.2000000000000000 [-]
	 SCS Same-Spin Energy      =      -0.1848111013296099 [Eh]
	 SCS Opposite-Spin Energy  =      -2.0457518615191188 [Eh]
	 SCS Correlation Energy    =      -2.2305629628487287 [Eh]
	 SCS Total Energy          =    -571.8977892207561808 [Eh]
	-----------------------------------------------------------

  Dipole Moment: [D]
     X:    -2.3276      Y:    -0.9099      Z:    -0.1917     Total:     2.5065

*** Psi4 exiting successfully. Buy a developer a beer!
