                               Psi4 1.4a3.dev225

  ==> Input File <==

--------------------------------------------------------------------------
#psi4
#
memory 32 gb

molecule  {
0 1
  O       -0.2343850     1.7978400    -0.4145210
  O        0.4791390    -1.3900560     0.9851260
  O       -1.8902550    -1.4798720    -0.4079610
  O        2.7489250    -0.2990660     0.0843650
  O       -1.6766260     0.6849030     1.0797040
  C        0.4758930    -0.9871420    -0.3839460
  C       -0.9153110    -0.5160320    -0.8112700
  C        1.5148540     0.1205520    -0.4811210
  C       -1.2794180     0.8705190    -0.2725550
  C        0.9914930     1.3693070     0.2124490
  H        0.7732420    -1.8350180    -1.0199460
  H       -0.9367810    -0.4539690    -1.9062570
  H        1.6974194     0.3443673    -1.4862378
  H       -2.1075740     1.2945610    -0.8542440
  H        0.8333730     1.1741050     1.2776920
  H        1.6908660     2.1982840     0.0933200
  H       -0.2684360    -2.0097880     1.0741120
  H       -2.2907410    -1.1048270     0.4011470
  H        2.5001980    -0.8049050     0.8819700
  H       -2.0397460     1.5332780     1.3914430
units angstrom
no_reorient  #important for SAPT in psi4, default
symmetry c1  #important for SAPT in psi4, default
}

set PROPERTIES_ORIGIN ["COM"]
properties('MP2/aug-cc-pvtz', properties = ['dipole'])
--------------------------------------------------------------------------

    Molecular point group: c1
  Charge       = 0
  Multiplicity = 1
  Basis Set: AUG-CC-PVTZ
    Blend: AUG-CC-PVTZ
  Basis Set: (AUG-CC-PVTZ AUX)
    Blend: AUG-CC-PVTZ-JKFIT

    Orbital Energies [Eh]
    ---------------------

    Doubly Occupied:

       1A    -20.591999     2A    -20.581219     3A    -20.575216
       4A    -20.569749     5A    -20.557952     6A    -11.354893
       7A    -11.299697     8A    -11.290821     9A    -11.280132
      10A    -11.278355    11A     -1.438094    12A     -1.390692
      13A     -1.375389    14A     -1.353870    15A     -1.347109
      16A     -1.059086    17A     -1.023323    18A     -0.898361
      19A     -0.872731    20A     -0.801358    21A     -0.752964
      22A     -0.726907    23A     -0.712210    24A     -0.695829
      25A     -0.668184    26A     -0.647519    27A     -0.621081
      28A     -0.614519    29A     -0.601753    30A     -0.587636
      31A     -0.572476    32A     -0.556429    33A     -0.543194
      34A     -0.517573    35A     -0.502928    36A     -0.490625
      37A     -0.488114    38A     -0.472165    39A     -0.440845
      40A     -0.415853

  @DF-RHF Final Energy:  -569.67368679252456

   => Energetics <=

    Nuclear Repulsion Energy =            633.4503263716851507
    One-Electron Energy =               -2041.1103297219485739
    Two-Electron Energy =                 837.9863165577388600
    Total Energy =                       -569.6736867925245633
  Basis Set: (AUG-CC-PVTZ AUX)
    Blend: AUG-CC-PVTZ-RI
    Molecular point group: c1

    Geometry (in Angstrom), charge = 0, multiplicity = 1:

       Center              X                  Y                   Z               Mass
    ------------   -----------------  -----------------  -----------------  -----------------
         O           -0.235267861362     1.800181575072    -0.416088408519    15.994914619570
         O            0.478256138638    -1.387714424928     0.983558591481    15.994914619570
         O           -1.891137861362    -1.477530424928    -0.409528408519    15.994914619570
         O            2.748042138638    -0.296724424928     0.082797591481    15.994914619570
         O           -1.677508861362     0.687244575072     1.078136591481    15.994914619570
         C            0.475010138638    -0.984800424928    -0.385513408519    12.000000000000
         C           -0.916193861362    -0.513690424928    -0.812837408519    12.000000000000
         C            1.513971138638     0.122893575072    -0.482688408519    12.000000000000
         C           -1.280300861362     0.872860575072    -0.274122408519    12.000000000000
         C            0.990610138638     1.371648575072     0.210881591481    12.000000000000
         H            0.772359138638    -1.832676424928    -1.021513408519     1.007825032230
         H           -0.937663861362    -0.451627424928    -1.907824408519     1.007825032230
         H            1.696536538638     0.346708875072    -1.487805208519     1.007825032230
         H           -2.108456861362     1.296902575072    -0.855811408519     1.007825032230
         H            0.832490138638     1.176446575072     1.276124591481     1.007825032230
         H            1.689983138638     2.200625575072     0.091752591481     1.007825032230
         H           -0.269318861362    -2.007446424928     1.072544591481     1.007825032230
         H           -2.291623861362    -1.102485424928     0.399579591481     1.007825032230
         H            2.499315138638    -0.802563424928     0.880402591481     1.007825032230
         H           -2.040628861362     1.535619575072     1.389875591481     1.007825032230

  Basis Set: AUG-CC-PVTZ
    Blend: AUG-CC-PVTZ
  Basis Set: (AUG-CC-PVTZ AUX)
    Blend: AUG-CC-PVTZ-JKFIT
	 Reference Energy          =    -569.6736867925245633 [Eh]
	 Singles Energy            =      -0.0000000000000000 [Eh]
	 Same-Spin Energy          =      -0.5544652036272046 [Eh]
	 Opposite-Spin Energy      =      -1.7036338043341501 [Eh]
	 Correlation Energy        =      -2.2580990079613548 [Eh]
	 Total Energy              =    -571.9317858004859545 [Eh]

	 ================> DF-SCS-MP2 Energies <==================
	-----------------------------------------------------------
	 SCS Same-Spin Scale       =       0.3333333333333333 [-]
	 SCS Opposite-Spin Scale   =       1.2000000000000000 [-]
	 SCS Same-Spin Energy      =      -0.1848217345424015 [Eh]
	 SCS Opposite-Spin Energy  =      -2.0443605652009800 [Eh]
	 SCS Correlation Energy    =      -2.2291822997433814 [Eh]
	 SCS Total Energy          =    -571.9028690922679061 [Eh]
	-----------------------------------------------------------

  Dipole Moment: [D]
     X:    -2.2976      Y:     0.9707      Z:     0.3760     Total:     2.5225

*** Psi4 exiting successfully. Buy a developer a beer!
