                               Psi4 1.3.2 release

  ==> Input File <==

--------------------------------------------------------------------------
#psi4
#
memory 32 gb

molecule  {
0 1
  O       -0.1147700    -1.8002930     0.4548730
  O        0.3584290     1.3939840    -1.0246780
  O       -1.9428885     1.3899006     0.4802500
  O        2.7148150     0.4505790    -0.2056670
  O       -1.6716310    -0.8002260    -0.9984850
  C        0.4315910     1.0135520     0.3497470
  C       -0.9093320     0.4742750     0.8400700
  C        1.5345100    -0.0288940     0.4204030
  C       -1.1922609    -0.9449528     0.3504388
  C        1.0549700    -1.3167000    -0.2286510
  H        0.7042560     1.8874530     0.9605880
  H       -0.8818830     0.4322700     1.9353370
  H        1.7837760    -0.2316310     1.4680400
  H       -1.9939520    -1.3968640     0.9617720
  H        0.8436020    -1.1475360    -1.2899680
  H        1.8059140    -2.1013880    -0.1265130
  H       -0.3930520     2.0121160    -1.0836700
  H       -2.3417080     0.9766970    -0.3400740
  H        2.3997000     0.9352960    -0.9928030
  H       -1.9956420    -1.6762600    -1.2784950
units angstrom
no_reorient  #important for SAPT in psi4, default
symmetry c1  #important for SAPT in psi4, default
}

set PROPERTIES_ORIGIN ["COM"]
properties('MP2/aug-cc-pvtz', properties = ['dipole'])
--------------------------------------------------------------------------

    Molecular point group: c1
  Charge       = 0
  Multiplicity = 1
  Basis Set: AUG-CC-PVTZ
    Blend: AUG-CC-PVTZ
  Basis Set: (AUG-CC-PVTZ AUX)
    Blend: AUG-CC-PVTZ-JKFIT

    Orbital Energies [Eh]
    ---------------------

    Doubly Occupied:

       1A    -20.588148     2A    -20.585063     3A    -20.576835
       4A    -20.570804     5A    -20.558866     6A    -11.354744
       7A    -11.297610     8A    -11.290519     9A    -11.286460
      10A    -11.280273    11A     -1.440930    12A     -1.391487
      13A     -1.374645    14A     -1.352457    15A     -1.346978
      16A     -1.059479    17A     -1.024774    18A     -0.898634
      19A     -0.870181    20A     -0.797178    21A     -0.749912
      22A     -0.727306    23A     -0.714774    24A     -0.692519
      25A     -0.669705    26A     -0.644963    27A     -0.621776
      28A     -0.616702    29A     -0.601944    30A     -0.584734
      31A     -0.569112    32A     -0.556996    33A     -0.542943
      34A     -0.515785    35A     -0.503084    36A     -0.492145
      37A     -0.487054    38A     -0.472650    39A     -0.439885
      40A     -0.416767

  @DF-RHF Final Energy:  -569.67179432682337

   => Energetics <=

    Nuclear Repulsion Energy =            633.7889071509216592
    One-Electron Energy =               -2041.7877654329511188
    Two-Electron Energy =                 838.3270639552060857
    Total Energy =                       -569.6717943268233739
  Basis Set: (AUG-CC-PVTZ AUX)
    Blend: AUG-CC-PVTZ-RI
    Molecular point group: c1

    Geometry (in Angstrom), charge = 0, multiplicity = 1:

       Center              X                  Y                   Z               Mass
    ------------   -----------------  -----------------  -----------------  -----------------
         O           -0.117907672381    -1.801592412989     0.452825382256    15.994914619570
         O            0.355291327619     1.392684587011    -1.026725617744    15.994914619570
         O           -1.946026172381     1.388601187011     0.478202382256    15.994914619570
         O            2.711677327619     0.449279587011    -0.207714617744    15.994914619570
         O           -1.674768672381    -0.801525412989    -1.000532617744    15.994914619570
         C            0.428453327619     1.012252587011     0.347699382256    12.000000000000
         C           -0.912469672381     0.472975587011     0.838022382256    12.000000000000
         C            1.531372327619    -0.030193412989     0.418355382256    12.000000000000
         C           -1.195398572381    -0.946252212989     0.348391182256    12.000000000000
         C            1.051832327619    -1.317999412989    -0.230698617744    12.000000000000
         H            0.701118327619     1.886153587011     0.958540382256     1.007825032230
         H           -0.885020672381     0.430970587011     1.933289382256     1.007825032230
         H            1.780638327619    -0.232930412989     1.465992382256     1.007825032230
         H           -1.997089672381    -1.398163412989     0.959724382256     1.007825032230
         H            0.840464327619    -1.148835412989    -1.292015617744     1.007825032230
         H            1.802776327619    -2.102687412989    -0.128560617744     1.007825032230
         H           -0.396189672381     2.010816587011    -1.085717617744     1.007825032230
         H           -2.344845672381     0.975397587011    -0.342121617744     1.007825032230
         H            2.396562327619     0.933996587011    -0.994850617744     1.007825032230
         H           -1.998779672381    -1.677559412989    -1.280542617744     1.007825032230

  Basis Set: AUG-CC-PVTZ
    Blend: AUG-CC-PVTZ
  Basis Set: (AUG-CC-PVTZ AUX)
    Blend: AUG-CC-PVTZ-JKFIT
	 Reference Energy          =    -569.6717943268233739 [Eh]
	 Singles Energy            =      -0.0000000000000000 [Eh]
	 Same-Spin Energy          =      -0.5550469123831827 [Eh]
	 Opposite-Spin Energy      =      -1.7047531929751596 [Eh]
	 Correlation Energy        =      -2.2598001053583423 [Eh]
	 Total Energy              =    -571.9315944321816687 [Eh]

	 ================> DF-SCS-MP2 Energies <==================
	-----------------------------------------------------------
	 SCS Same-Spin Scale       =       0.3333333333333333 [-]
	 SCS Opposite-Spin Scale   =       1.2000000000000000 [-]
	 SCS Same-Spin Energy      =      -0.1850156374610609 [Eh]
	 SCS Opposite-Spin Energy  =      -2.0457038315701914 [Eh]
	 SCS Correlation Energy    =      -2.2307194690312522 [Eh]
	 SCS Total Energy          =    -571.9025137958545884 [Eh]
	-----------------------------------------------------------

  Dipole Moment: [D]
     X:    -2.0800      Y:    -1.0714      Z:    -0.2561     Total:     2.3537

*** Psi4 exiting successfully. Buy a developer a beer!
