                               Psi4 1.3.2 release

  ==> Input File <==

--------------------------------------------------------------------------
#psi4
#
memory 32 gb

molecule  {
0 1
  O       -0.1147700    -1.8002930     0.4548730
  O        0.3584290     1.3939840    -1.0246780
  O       -1.9551560     1.3713260     0.4690830
  O        2.7148150     0.4505790    -0.2056670
  O       -1.6716310    -0.8002260    -0.9984850
  C        0.4315910     1.0135520     0.3497470
  C       -0.8945025     0.5187334     0.8982446
  C        1.5345100    -0.0288940     0.4204030
  C       -1.2151430    -0.9364420     0.3397180
  C        1.0549700    -1.3167000    -0.2286510
  H        0.7042560     1.8874530     0.9605880
  H       -0.8818830     0.4322700     1.9353370
  H        1.7837760    -0.2316310     1.4680400
  H       -1.9939520    -1.3968640     0.9617720
  H        0.8436020    -1.1475360    -1.2899680
  H        1.8059140    -2.1013880    -0.1265130
  H       -0.3930520     2.0121160    -1.0836700
  H       -2.3747605     1.0158844    -0.3417702
  H        2.3997000     0.9352960    -0.9928030
  H       -1.9956420    -1.6762600    -1.2784950
units angstrom
no_reorient  #important for SAPT in psi4, default
symmetry c1  #important for SAPT in psi4, default
}

set PROPERTIES_ORIGIN ["COM"]
properties('MP2/aug-cc-pvtz', properties = ['dipole'])
--------------------------------------------------------------------------

    Molecular point group: c1
  Charge       = 0
  Multiplicity = 1
  Basis Set: AUG-CC-PVTZ
    Blend: AUG-CC-PVTZ
  Basis Set: (AUG-CC-PVTZ AUX)
    Blend: AUG-CC-PVTZ-JKFIT

    Orbital Energies [Eh]
    ---------------------

    Doubly Occupied:

       1A    -20.589701     2A    -20.578354     3A    -20.572515
       4A    -20.571971     5A    -20.558100     6A    -11.353092
       7A    -11.298916     8A    -11.290567     9A    -11.285804
      10A    -11.277053    11A     -1.434308    12A     -1.390741
      13A     -1.372644    14A     -1.351649    15A     -1.347292
      16A     -1.059596    17A     -1.017752    18A     -0.892010
      19A     -0.874643    20A     -0.800355    21A     -0.747991
      22A     -0.727244    23A     -0.708094    24A     -0.699496
      25A     -0.670975    26A     -0.650421    27A     -0.619036
      28A     -0.611514    29A     -0.604651    30A     -0.585482
      31A     -0.570603    32A     -0.550712    33A     -0.545572
      34A     -0.517884    35A     -0.500003    36A     -0.489383
      37A     -0.484069    38A     -0.469354    39A     -0.442838
      40A     -0.408071

  @DF-RHF Final Energy:  -569.66922111649330

   => Energetics <=

    Nuclear Repulsion Energy =            632.5656399817772808
    One-Electron Energy =               -2039.4288094911969438
    Two-Electron Energy =                 837.1939483929262451
    Total Energy =                       -569.6692211164933042
  Basis Set: (AUG-CC-PVTZ AUX)
    Blend: AUG-CC-PVTZ-RI
    Molecular point group: c1

    Geometry (in Angstrom), charge = 0, multiplicity = 1:

       Center              X                  Y                   Z               Mass
    ------------   -----------------  -----------------  -----------------  -----------------
         O           -0.115734038160    -1.804111694486     0.450232156039    15.994914619570
         O            0.357464961840     1.390165305514    -1.029318843961    15.994914619570
         O           -1.956120038160     1.367507305514     0.464442156039    15.994914619570
         O            2.713850961840     0.446760305514    -0.210307843961    15.994914619570
         O           -1.672595038160    -0.804044694486    -1.003125843961    15.994914619570
         C            0.430626961840     1.009733305514     0.345106156039    12.000000000000
         C           -0.895466538160     0.514914705514     0.893603756039    12.000000000000
         C            1.533545961840    -0.032712694486     0.415762156039    12.000000000000
         C           -1.216107038160    -0.940260694486     0.335077156039    12.000000000000
         C            1.054005961840    -1.320518694486    -0.233291843961    12.000000000000
         H            0.703291961840     1.883634305514     0.955947156039     1.007825032230
         H           -0.882847038160     0.428451305514     1.930696156039     1.007825032230
         H            1.782811961840    -0.235449694486     1.463399156039     1.007825032230
         H           -1.994916038160    -1.400682694486     0.957131156039     1.007825032230
         H            0.842637961840    -1.151354694486    -1.294608843961     1.007825032230
         H            1.804949961840    -2.105206694486    -0.131153843961     1.007825032230
         H           -0.394016038160     2.008297305514    -1.088310843961     1.007825032230
         H           -2.375724538160     1.012065705514    -0.346411043961     1.007825032230
         H            2.398735961840     0.931477305514    -0.997443843961     1.007825032230
         H           -1.996606038160    -1.680078694486    -1.283135843961     1.007825032230

  Basis Set: AUG-CC-PVTZ
    Blend: AUG-CC-PVTZ
  Basis Set: (AUG-CC-PVTZ AUX)
    Blend: AUG-CC-PVTZ-JKFIT
	 Reference Energy          =    -569.6692211164933042 [Eh]
	 Singles Energy            =      -0.0000000000000000 [Eh]
	 Same-Spin Energy          =      -0.5541476842378463 [Eh]
	 Opposite-Spin Energy      =      -1.7032738917590033 [Eh]
	 Correlation Energy        =      -2.2574215759968497 [Eh]
	 Total Energy              =    -571.9266426924901907 [Eh]

	 ================> DF-SCS-MP2 Energies <==================
	-----------------------------------------------------------
	 SCS Same-Spin Scale       =       0.3333333333333333 [-]
	 SCS Opposite-Spin Scale   =       1.2000000000000000 [-]
	 SCS Same-Spin Energy      =      -0.1847158947459488 [Eh]
	 SCS Opposite-Spin Energy  =      -2.0439286701108039 [Eh]
	 SCS Correlation Energy    =      -2.2286445648567526 [Eh]
	 SCS Total Energy          =    -571.8978656813500265 [Eh]
	-----------------------------------------------------------

  Dipole Moment: [D]
     X:    -2.2246      Y:    -0.9050      Z:    -0.2539     Total:     2.4150

*** Psi4 exiting successfully. Buy a developer a beer!
