                               Psi4 1.3.2 release

  ==> Input File <==

--------------------------------------------------------------------------
#psi4
#
memory 32 gb

molecule  {
0 1
  O       -0.1147700    -1.8002930     0.4548730
  O        0.3584290     1.3939840    -1.0246780
  O       -1.9551560     1.3713260     0.4690830
  O        2.7148150     0.4505790    -0.2056670
  O       -1.6716310    -0.8002260    -0.9984850
  C        0.4315910     1.0135520     0.3497470
  C       -0.9093320     0.4742750     0.8400700
  C        1.5345100    -0.0288940     0.4204030
  C       -1.2151430    -0.9364420     0.3397180
  C        1.0549700    -1.3167000    -0.2286510
  H        0.7042560     1.8874530     0.9605880
  H       -0.8818830     0.4322700     1.9353370
  H        1.7837760    -0.2316310     1.4680400
  H       -1.9939520    -1.3968640     0.9617720
  H        0.8436020    -1.1475360    -1.2899680
  H        1.8059140    -2.1013880    -0.1265130
  H       -0.3930520     2.0121160    -1.0836700
  H       -2.3417080     0.9766970    -0.3400740
  H        2.3997000     0.9352960    -0.9928030
  H       -1.9291852    -1.4965796    -1.2210631
units angstrom
no_reorient  #important for SAPT in psi4, default
symmetry c1  #important for SAPT in psi4, default
}

set PROPERTIES_ORIGIN ["COM"]
properties('MP2/aug-cc-pvtz', properties = ['dipole'])
--------------------------------------------------------------------------

    Molecular point group: c1
  Charge       = 0
  Multiplicity = 1
  Basis Set: AUG-CC-PVTZ
    Blend: AUG-CC-PVTZ
  Basis Set: (AUG-CC-PVTZ AUX)
    Blend: AUG-CC-PVTZ-JKFIT

    Orbital Energies [Eh]
    ---------------------

    Doubly Occupied:

       1A    -20.582882     2A    -20.575892     3A    -20.572148
       4A    -20.571816     5A    -20.559143     6A    -11.356900
       7A    -11.299660     8A    -11.292136     9A    -11.286705
      10A    -11.279524    11A     -1.473644    12A     -1.397698
      13A     -1.385572    14A     -1.369981    15A     -1.348724
      16A     -1.061188    17A     -1.031009    18A     -0.911364
      19A     -0.874360    20A     -0.814069    21A     -0.766618
      22A     -0.733180    23A     -0.714720    24A     -0.702256
      25A     -0.671931    26A     -0.648316    27A     -0.632835
      28A     -0.615545    29A     -0.605750    30A     -0.587094
      31A     -0.576205    32A     -0.558376    33A     -0.544626
      34A     -0.518398    35A     -0.508888    36A     -0.492680
      37A     -0.490039    38A     -0.474031    39A     -0.442167
      40A     -0.417467

  @DF-RHF Final Energy:  -569.62959559240210

   => Energetics <=

    Nuclear Repulsion Energy =            635.4658131243804746
    One-Electron Energy =               -2044.6997388435495395
    Two-Electron Energy =                 839.6043301267669676
    Total Energy =                       -569.6295955924020973
  Basis Set: (AUG-CC-PVTZ AUX)
    Blend: AUG-CC-PVTZ-RI
    Molecular point group: c1

    Geometry (in Angstrom), charge = 0, multiplicity = 1:

       Center              X                  Y                   Z               Mass
    ------------   -----------------  -----------------  -----------------  -----------------
         O           -0.115216446856    -1.801499891330     0.454487353684    15.994914619570
         O            0.357982553144     1.392777108670    -1.025063646316    15.994914619570
         O           -1.955602446856     1.370119108670     0.468697353684    15.994914619570
         O            2.714368553144     0.449372108670    -0.206052646316    15.994914619570
         O           -1.672077446856    -0.801432891330    -0.998870646316    15.994914619570
         C            0.431144553144     1.012345108670     0.349361353684    12.000000000000
         C           -0.909778446856     0.473068108670     0.839684353684    12.000000000000
         C            1.534063553144    -0.030100891330     0.420017353684    12.000000000000
         C           -1.215589446856    -0.937648891330     0.339332353684    12.000000000000
         C            1.054523553144    -1.317906891330    -0.229036646316    12.000000000000
         H            0.703809553144     1.886246108670     0.960202353684     1.007825032230
         H           -0.882329446856     0.431063108670     1.934951353684     1.007825032230
         H            1.783329553144    -0.232837891330     1.467654353684     1.007825032230
         H           -1.994398446856    -1.398070891330     0.961386353684     1.007825032230
         H            0.843155553144    -1.148742891330    -1.290353646316     1.007825032230
         H            1.805467553144    -2.102594891330    -0.126898646316     1.007825032230
         H           -0.393498446856     2.010909108670    -1.084055646316     1.007825032230
         H           -2.342154446856     0.975490108670    -0.340459646316     1.007825032230
         H            2.399253553144     0.934089108670    -0.993188646316     1.007825032230
         H           -1.929631646856    -1.497786491330    -1.221448746316     1.007825032230

  Basis Set: AUG-CC-PVTZ
    Blend: AUG-CC-PVTZ
  Basis Set: (AUG-CC-PVTZ AUX)
    Blend: AUG-CC-PVTZ-JKFIT
	 Reference Energy          =    -569.6295955924020973 [Eh]
	 Singles Energy            =      -0.0000000000000000 [Eh]
	 Same-Spin Energy          =      -0.5522324099068557 [Eh]
	 Opposite-Spin Energy      =      -1.6982998499036088 [Eh]
	 Correlation Energy        =      -2.2505322598104645 [Eh]
	 Total Energy              =    -571.8801278522125813 [Eh]

	 ================> DF-SCS-MP2 Energies <==================
	-----------------------------------------------------------
	 SCS Same-Spin Scale       =       0.3333333333333333 [-]
	 SCS Opposite-Spin Scale   =       1.2000000000000000 [-]
	 SCS Same-Spin Energy      =      -0.1840774699689519 [Eh]
	 SCS Opposite-Spin Energy  =      -2.0379598198843305 [Eh]
	 SCS Correlation Energy    =      -2.2220372898532825 [Eh]
	 SCS Total Energy          =    -571.8516328822553305 [Eh]
	-----------------------------------------------------------

  Dipole Moment: [D]
     X:    -2.0778      Y:    -0.8198      Z:    -0.1847     Total:     2.2413

*** Psi4 exiting successfully. Buy a developer a beer!
