                               Psi4 1.3.2 release

  ==> Input File <==

--------------------------------------------------------------------------
#psi4
#
memory 32 gb

molecule  {
0 1
  O       -0.1147700    -1.8002930     0.4548730
  O        0.3584290     1.3939840    -1.0246780
  O       -1.9551560     1.3713260     0.4690830
  O        2.7148150     0.4505790    -0.2056670
  O       -1.6716310    -0.8002260    -0.9984850
  C        0.4315910     1.0135520     0.3497470
  C       -0.9093320     0.4742750     0.8400700
  C        1.5389896    -0.0548591     0.4664435
  C       -1.2151430    -0.9364420     0.3397180
  C        1.0549700    -1.3167000    -0.2286510
  H        0.7042560     1.8874530     0.9605880
  H       -0.8818830     0.4322700     1.9353370
  H        1.7837760    -0.2316310     1.4680400
  H       -1.9939520    -1.3968640     0.9617720
  H        0.8335871    -1.1842953    -1.2931440
  H        1.8059140    -2.1013880    -0.1265130
  H       -0.3930520     2.0121160    -1.0836700
  H       -2.3417080     0.9766970    -0.3400740
  H        2.3997000     0.9352960    -0.9928030
  H       -1.9956420    -1.6762600    -1.2784950
units angstrom
no_reorient  #important for SAPT in psi4, default
symmetry c1  #important for SAPT in psi4, default
}

set PROPERTIES_ORIGIN ["COM"]
properties('MP2/aug-cc-pvtz', properties = ['dipole'])
--------------------------------------------------------------------------

    Molecular point group: c1
  Charge       = 0
  Multiplicity = 1
  Basis Set: AUG-CC-PVTZ
    Blend: AUG-CC-PVTZ
  Basis Set: (AUG-CC-PVTZ AUX)
    Blend: AUG-CC-PVTZ-JKFIT

    Orbital Energies [Eh]
    ---------------------

    Doubly Occupied:

       1A    -20.591578     2A    -20.579928     3A    -20.573842
       4A    -20.571424     5A    -20.554226     6A    -11.353631
       7A    -11.297575     8A    -11.292207     9A    -11.286051
      10A    -11.279230    11A     -1.438563    12A     -1.389263
      13A     -1.372697    14A     -1.353208    15A     -1.340325
      16A     -1.057734    17A     -1.023772    18A     -0.896810
      19A     -0.871653    20A     -0.801073    21A     -0.752356
      22A     -0.725918    23A     -0.710542    24A     -0.694437
      25A     -0.668361    26A     -0.646454    27A     -0.620429
      28A     -0.612607    29A     -0.602803    30A     -0.590077
      31A     -0.570503    32A     -0.550926    33A     -0.542871
      34A     -0.518066    35A     -0.502030    36A     -0.490475
      37A     -0.486492    38A     -0.473081    39A     -0.437125
      40A     -0.416543

  @DF-RHF Final Energy:  -569.67120874569287

   => Energetics <=

    Nuclear Repulsion Energy =            633.1154976822767821
    One-Electron Energy =               -2040.4996456268875136
    Two-Electron Energy =                 837.7129391989178657
    Total Energy =                       -569.6712087456928657
  Basis Set: (AUG-CC-PVTZ AUX)
    Blend: AUG-CC-PVTZ-RI
    Molecular point group: c1

    Geometry (in Angstrom), charge = 0, multiplicity = 1:

       Center              X                  Y                   Z               Mass
    ------------   -----------------  -----------------  -----------------  -----------------
         O           -0.115061068950    -1.797969704189     0.451212481342    15.994914619570
         O            0.358137931050     1.396307295811    -1.028338518658    15.994914619570
         O           -1.955447068950     1.373649295811     0.465422481342    15.994914619570
         O            2.714523931050     0.452902295811    -0.209327518658    15.994914619570
         O           -1.671922068950    -0.797902704189    -1.002145518658    15.994914619570
         C            0.431299931050     1.015875295811     0.346086481342    12.000000000000
         C           -0.909623068950     0.476598295811     0.836409481342    12.000000000000
         C            1.538698531050    -0.052535804189     0.462782981342    12.000000000000
         C           -1.215434068950    -0.934118704189     0.336057481342    12.000000000000
         C            1.054678931050    -1.314376704189    -0.232311518658    12.000000000000
         H            0.703964931050     1.889776295811     0.956927481342     1.007825032230
         H           -0.882174068950     0.434593295811     1.931676481342     1.007825032230
         H            1.783484931050    -0.229307704189     1.464379481342     1.007825032230
         H           -1.994243068950    -1.394540704189     0.958111481342     1.007825032230
         H            0.833296031050    -1.181972004189    -1.296804518658     1.007825032230
         H            1.805622931050    -2.099064704189    -0.130173518658     1.007825032230
         H           -0.393343068950     2.014439295811    -1.087330518658     1.007825032230
         H           -2.341999068950     0.979020295811    -0.343734518658     1.007825032230
         H            2.399408931050     0.937619295811    -0.996463518658     1.007825032230
         H           -1.995933068950    -1.673936704189    -1.282155518658     1.007825032230

  Basis Set: AUG-CC-PVTZ
    Blend: AUG-CC-PVTZ
  Basis Set: (AUG-CC-PVTZ AUX)
    Blend: AUG-CC-PVTZ-JKFIT
	 Reference Energy          =    -569.6712087456928657 [Eh]
	 Singles Energy            =      -0.0000000000000000 [Eh]
	 Same-Spin Energy          =      -0.5543778895581835 [Eh]
	 Opposite-Spin Energy      =      -1.7039128771221372 [Eh]
	 Correlation Energy        =      -2.2582907666803207 [Eh]
	 Total Energy              =    -571.9294995123732406 [Eh]

	 ================> DF-SCS-MP2 Energies <==================
	-----------------------------------------------------------
	 SCS Same-Spin Scale       =       0.3333333333333333 [-]
	 SCS Opposite-Spin Scale   =       1.2000000000000000 [-]
	 SCS Same-Spin Energy      =      -0.1847926298527278 [Eh]
	 SCS Opposite-Spin Energy  =      -2.0446954525465646 [Eh]
	 SCS Correlation Energy    =      -2.2294880823992926 [Eh]
	 SCS Total Energy          =    -571.9006968280921228 [Eh]
	-----------------------------------------------------------

  Dipole Moment: [D]
     X:    -2.2073      Y:    -1.0639      Z:    -0.2350     Total:     2.4616

*** Psi4 exiting successfully. Buy a developer a beer!
