                               Psi4 1.3.2 release

  ==> Input File <==

--------------------------------------------------------------------------
#psi4
#
memory 32 gb

molecule  {
0 1
  O       -0.1147700    -1.8002930     0.4548730
  O        0.3584290     1.3939840    -1.0246780
  O       -1.9551560     1.3713260     0.4690830
  O        2.7148150     0.4505790    -0.2056670
  O       -1.6716310    -0.8002260    -0.9984850
  C        0.4315910     1.0135520     0.3497470
  C       -0.9093320     0.4742750     0.8400700
  C        1.5332986    -0.0226467     0.4087671
  C       -1.2151430    -0.9364420     0.3397180
  C        1.0549700    -1.3167000    -0.2286510
  H        0.7042560     1.8874530     0.9605880
  H       -0.8818830     0.4322700     1.9353370
  H        1.7837760    -0.2316310     1.4680400
  H       -1.9939520    -1.3968640     0.9617720
  H        0.8461464    -1.1383766    -1.2889718
  H        1.8059140    -2.1013880    -0.1265130
  H       -0.3930520     2.0121160    -1.0836700
  H       -2.3417080     0.9766970    -0.3400740
  H        2.3997000     0.9352960    -0.9928030
  H       -1.9956420    -1.6762600    -1.2784950
units angstrom
no_reorient  #important for SAPT in psi4, default
symmetry c1  #important for SAPT in psi4, default
}

set PROPERTIES_ORIGIN ["COM"]
properties('MP2/aug-cc-pvtz', properties = ['dipole'])
--------------------------------------------------------------------------

    Molecular point group: c1
  Charge       = 0
  Multiplicity = 1
  Basis Set: AUG-CC-PVTZ
    Blend: AUG-CC-PVTZ
  Basis Set: (AUG-CC-PVTZ AUX)
    Blend: AUG-CC-PVTZ-JKFIT

    Orbital Energies [Eh]
    ---------------------

    Doubly Occupied:

       1A    -20.591616     2A    -20.580982     3A    -20.574848
       4A    -20.571193     5A    -20.559299     6A    -11.353945
       7A    -11.298602     8A    -11.290833     9A    -11.285713
      10A    -11.277976    11A     -1.438795    12A     -1.392298
      13A     -1.376615    14A     -1.354306    15A     -1.349211
      16A     -1.059447    17A     -1.022861    18A     -0.899223
      19A     -0.869828    20A     -0.797778    21A     -0.752307
      22A     -0.728130    23A     -0.712373    24A     -0.696543
      25A     -0.670021    26A     -0.646107    27A     -0.621382
      28A     -0.614480    29A     -0.603045    30A     -0.583591
      31A     -0.572207    32A     -0.557357    33A     -0.542934
      34A     -0.515433    35A     -0.502803    36A     -0.491428
      37A     -0.487623    38A     -0.470854    39A     -0.441405
      40A     -0.415510

  @DF-RHF Final Energy:  -569.67417030743911

   => Energetics <=

    Nuclear Repulsion Energy =            634.0012864825633869
    One-Electron Energy =               -2042.2091166302038800
    Two-Electron Energy =                 838.5336598402012669
    Total Energy =                       -569.6741703074391125
  Basis Set: (AUG-CC-PVTZ AUX)
    Blend: AUG-CC-PVTZ-RI
    Molecular point group: c1

    Geometry (in Angstrom), charge = 0, multiplicity = 1:

       Center              X                  Y                   Z               Mass
    ------------   -----------------  -----------------  -----------------  -----------------
         O           -0.114690303364    -1.800854200498     0.455796946577    15.994914619570
         O            0.358508696636     1.393422799502    -1.023754053423    15.994914619570
         O           -1.955076303364     1.370764799502     0.470006946577    15.994914619570
         O            2.714894696636     0.450017799502    -0.204743053423    15.994914619570
         O           -1.671551303364    -0.800787200498    -0.997561053423    15.994914619570
         C            0.431670696636     1.012990799502     0.350670946577    12.000000000000
         C           -0.909252303364     0.473713799502     0.840993946577    12.000000000000
         C            1.533378296636    -0.023207900498     0.409691046577    12.000000000000
         C           -1.215063303364    -0.937003200498     0.340641946577    12.000000000000
         C            1.055049696636    -1.317261200498    -0.227727053423    12.000000000000
         H            0.704335696636     1.886891799502     0.961511946577     1.007825032230
         H           -0.881803303364     0.431708799502     1.936260946577     1.007825032230
         H            1.783855696636    -0.232192200498     1.468963946577     1.007825032230
         H           -1.993872303364    -1.397425200498     0.962695946577     1.007825032230
         H            0.846226096636    -1.138937800498    -1.288047853423     1.007825032230
         H            1.805993696636    -2.101949200498    -0.125589053423     1.007825032230
         H           -0.392972303364     2.011554799502    -1.082746053423     1.007825032230
         H           -2.341628303364     0.976135799502    -0.339150053423     1.007825032230
         H            2.399779696636     0.934734799502    -0.991879053423     1.007825032230
         H           -1.995562303364    -1.676821200498    -1.277571053423     1.007825032230

  Basis Set: AUG-CC-PVTZ
    Blend: AUG-CC-PVTZ
  Basis Set: (AUG-CC-PVTZ AUX)
    Blend: AUG-CC-PVTZ-JKFIT
	 Reference Energy          =    -569.6741703074391125 [Eh]
	 Singles Energy            =      -0.0000000000000000 [Eh]
	 Same-Spin Energy          =      -0.5547185725752979 [Eh]
	 Opposite-Spin Energy      =      -1.7040089806016212 [Eh]
	 Correlation Energy        =      -2.2587275531769189 [Eh]
	 Total Energy              =    -571.9328978606159808 [Eh]

	 ================> DF-SCS-MP2 Energies <==================
	-----------------------------------------------------------
	 SCS Same-Spin Scale       =       0.3333333333333333 [-]
	 SCS Opposite-Spin Scale   =       1.2000000000000000 [-]
	 SCS Same-Spin Energy      =      -0.1849061908584326 [Eh]
	 SCS Opposite-Spin Energy  =      -2.0448107767219454 [Eh]
	 SCS Correlation Energy    =      -2.2297169675803783 [Eh]
	 SCS Total Energy          =    -571.9038872750195424 [Eh]
	-----------------------------------------------------------

  Dipole Moment: [D]
     X:    -2.1763      Y:    -0.9763      Z:    -0.3173     Total:     2.4063

*** Psi4 exiting successfully. Buy a developer a beer!
