                               Psi4 1.3.2 release

  ==> Input File <==

--------------------------------------------------------------------------
#psi4
#
memory 32 gb

molecule  {
0 1
  O       -0.1147700    -1.8002930     0.4548730
  O        0.3584290     1.3939840    -1.0246780
  O       -1.9551560     1.3713260     0.4690830
  O        2.7148150     0.4505790    -0.2056670
  O       -1.6716310    -0.8002260    -0.9984850
  C        0.4315910     1.0135520     0.3497470
  C       -0.9097497     0.4838689     0.8492987
  C        1.5345100    -0.0288940     0.4204030
  C       -1.2151430    -0.9364420     0.3397180
  C        1.0549700    -1.3167000    -0.2286510
  H        0.6961431     1.8864133     0.9656214
  H       -0.8818830     0.4322700     1.9353370
  H        1.7837760    -0.2316310     1.4680400
  H       -1.9939520    -1.3968640     0.9617720
  H        0.8436020    -1.1475360    -1.2899680
  H        1.8059140    -2.1013880    -0.1265130
  H       -0.3930520     2.0121160    -1.0836700
  H       -2.3417080     0.9766970    -0.3400740
  H        2.3997000     0.9352960    -0.9928030
  H       -1.9956420    -1.6762600    -1.2784950
units angstrom
no_reorient  #important for SAPT in psi4, default
symmetry c1  #important for SAPT in psi4, default
}

set PROPERTIES_ORIGIN ["COM"]
properties('MP2/aug-cc-pvtz', properties = ['dipole'])
--------------------------------------------------------------------------

    Molecular point group: c1
  Charge       = 0
  Multiplicity = 1
  Basis Set: AUG-CC-PVTZ
    Blend: AUG-CC-PVTZ
  Basis Set: (AUG-CC-PVTZ AUX)
    Blend: AUG-CC-PVTZ-JKFIT

    Orbital Energies [Eh]
    ---------------------

    Doubly Occupied:

       1A    -20.591477     2A    -20.580452     3A    -20.574647
       4A    -20.571553     5A    -20.558223     6A    -11.353707
       7A    -11.298142     8A    -11.290847     9A    -11.285739
      10A    -11.278019    11A     -1.438168    12A     -1.391760
      13A     -1.376033    14A     -1.353942    15A     -1.347903
      16A     -1.058692    17A     -1.021788    18A     -0.897392
      19A     -0.870781    20A     -0.798778    21A     -0.751742
      22A     -0.727642    23A     -0.711401    24A     -0.697008
      25A     -0.669905    26A     -0.646716    27A     -0.620844
      28A     -0.613744    29A     -0.603350    30A     -0.585141
      31A     -0.571919    32A     -0.555372    33A     -0.543608
      34A     -0.516654    35A     -0.502327    36A     -0.490659
      37A     -0.487267    38A     -0.471399    39A     -0.440689
      40A     -0.414514

  @DF-RHF Final Energy:  -569.67467930284727

   => Energetics <=

    Nuclear Repulsion Energy =            633.6327265345909154
    One-Electron Energy =               -2041.4949232138988009
    Two-Electron Energy =                 838.1875173764607325
    Total Energy =                       -569.6746793028472666
  Basis Set: (AUG-CC-PVTZ AUX)
    Blend: AUG-CC-PVTZ-RI
    Molecular point group: c1

    Geometry (in Angstrom), charge = 0, multiplicity = 1:

       Center              X                  Y                   Z               Mass
    ------------   -----------------  -----------------  -----------------  -----------------
         O           -0.114682197593    -1.801053332318     0.454101250452    15.994914619570
         O            0.358516802407     1.393223667682    -1.025449749548    15.994914619570
         O           -1.955068197593     1.370565667682     0.468311250452    15.994914619570
         O            2.714902802407     0.449818667682    -0.206438749548    15.994914619570
         O           -1.671543197593    -0.800986332318    -0.999256749548    15.994914619570
         C            0.431678802407     1.012791667682     0.348975250452    12.000000000000
         C           -0.909661897593     0.483108567682     0.848526950452    12.000000000000
         C            1.534597802407    -0.029654332318     0.419631250452    12.000000000000
         C           -1.215055197593    -0.937202332318     0.338946250452    12.000000000000
         C            1.055057802407    -1.317460332318    -0.229422749548    12.000000000000
         H            0.696230902407     1.885652967682     0.964849650452     1.007825032230
         H           -0.881795197593     0.431509667682     1.934565250452     1.007825032230
         H            1.783863802407    -0.232391332318     1.467268250452     1.007825032230
         H           -1.993864197593    -1.397624332318     0.961000250452     1.007825032230
         H            0.843689802407    -1.148296332318    -1.290739749548     1.007825032230
         H            1.806001802407    -2.102148332318    -0.127284749548     1.007825032230
         H           -0.392964197593     2.011355667682    -1.084441749548     1.007825032230
         H           -2.341620197593     0.975936667682    -0.340845749548     1.007825032230
         H            2.399787802407     0.934535667682    -0.993574749548     1.007825032230
         H           -1.995554197593    -1.677020332318    -1.279266749548     1.007825032230

  Basis Set: AUG-CC-PVTZ
    Blend: AUG-CC-PVTZ
  Basis Set: (AUG-CC-PVTZ AUX)
    Blend: AUG-CC-PVTZ-JKFIT
	 Reference Energy          =    -569.6746793028472666 [Eh]
	 Singles Energy            =      -0.0000000000000000 [Eh]
	 Same-Spin Energy          =      -0.5545337214562412 [Eh]
	 Opposite-Spin Energy      =      -1.7037451545178417 [Eh]
	 Correlation Energy        =      -2.2582788759740828 [Eh]
	 Total Energy              =    -571.9329581788213090 [Eh]

	 ================> DF-SCS-MP2 Energies <==================
	-----------------------------------------------------------
	 SCS Same-Spin Scale       =       0.3333333333333333 [-]
	 SCS Opposite-Spin Scale   =       1.2000000000000000 [-]
	 SCS Same-Spin Energy      =      -0.1848445738187471 [Eh]
	 SCS Opposite-Spin Energy  =      -2.0444941854214100 [Eh]
	 SCS Correlation Energy    =      -2.2293387592401572 [Eh]
	 SCS Total Energy          =    -571.9040180620874025 [Eh]
	-----------------------------------------------------------

  Dipole Moment: [D]
     X:    -2.1910      Y:    -0.9831      Z:    -0.2933     Total:     2.4193

*** Psi4 exiting successfully. Buy a developer a beer!
