                               Psi4 1.3.2 release

  ==> Input File <==

--------------------------------------------------------------------------
#psi4
#
memory 32 gb

molecule  {
0 1
  O       -0.1147700    -1.8002930     0.4548730
  O        0.4303314     1.4141059    -1.0209026
  O       -1.9551560     1.3713260     0.4690830
  O        2.7148150     0.4505790    -0.2056670
  O       -1.6716310    -0.8002260    -0.9984850
  C        0.4315910     1.0135520     0.3497470
  C       -0.8761742     0.4630536     0.9118970
  C        1.5345100    -0.0288940     0.4204030
  C       -1.2151430    -0.9364420     0.3397180
  C        1.0549700    -1.3167000    -0.2286510
  H        0.7042560     1.8874530     0.9605880
  H       -0.8818830     0.4322700     1.9353370
  H        1.7837760    -0.2316310     1.4680400
  H       -1.9939520    -1.3968640     0.9617720
  H        0.8436020    -1.1475360    -1.2899680
  H        1.8059140    -2.1013880    -0.1265130
  H       -0.3930520     2.0121160    -1.0836700
  H       -2.3417080     0.9766970    -0.3400740
  H        2.3997000     0.9352960    -0.9928030
  H       -1.9956420    -1.6762600    -1.2784950
units angstrom
no_reorient  #important for SAPT in psi4, default
symmetry c1  #important for SAPT in psi4, default
}

set PROPERTIES_ORIGIN ["COM"]
properties('MP2/aug-cc-pvtz', properties = ['dipole'])
--------------------------------------------------------------------------

    Molecular point group: c1
  Charge       = 0
  Multiplicity = 1
  Basis Set: AUG-CC-PVTZ
    Blend: AUG-CC-PVTZ
  Basis Set: (AUG-CC-PVTZ AUX)
    Blend: AUG-CC-PVTZ-JKFIT

    Orbital Energies [Eh]
    ---------------------

    Doubly Occupied:

       1A    -20.594383     2A    -20.579957     3A    -20.578804
       4A    -20.569985     5A    -20.555782     6A    -11.356435
       7A    -11.300763     8A    -11.292125     9A    -11.284133
      10A    -11.277932    11A     -1.437617    12A     -1.386442
      13A     -1.367917    14A     -1.350213    15A     -1.339839
      16A     -1.061297    17A     -1.023601    18A     -0.895554
      19A     -0.873309    20A     -0.798710    21A     -0.750333
      22A     -0.728774    23A     -0.710607    24A     -0.691431
      25A     -0.664777    26A     -0.647913    27A     -0.620980
      28A     -0.614062    29A     -0.598375    30A     -0.584713
      31A     -0.571956    32A     -0.552214    33A     -0.547497
      34A     -0.516826    35A     -0.502951    36A     -0.489135
      37A     -0.488376    38A     -0.469902    39A     -0.443563
      40A     -0.412721

  @DF-RHF Final Energy:  -569.66038110262184

   => Energetics <=

    Nuclear Repulsion Energy =            632.1836713707130002
    One-Electron Energy =               -2038.6243004756140635
    Two-Electron Energy =                 836.7802480022792224
    Total Energy =                       -569.6603811026218409
  Basis Set: (AUG-CC-PVTZ AUX)
    Blend: AUG-CC-PVTZ-RI
    Molecular point group: c1

    Geometry (in Angstrom), charge = 0, multiplicity = 1:

       Center              X                  Y                   Z               Mass
    ------------   -----------------  -----------------  -----------------  -----------------
         O           -0.125086234632    -1.801540576120     0.448726516436    15.994914619570
         O            0.420015165368     1.412858323880    -1.027049083564    15.994914619570
         O           -1.965472234632     1.370078423880     0.462936516436    15.994914619570
         O            2.704498765368     0.449331423880    -0.211813483564    15.994914619570
         O           -1.681947234632    -0.801473576120    -1.004631483564    15.994914619570
         C            0.421274765368     1.012304423880     0.343600516436    12.000000000000
         C           -0.886490434632     0.461806023880     0.905750516436    12.000000000000
         C            1.524193765368    -0.030141576120     0.414256516436    12.000000000000
         C           -1.225459234632    -0.937689576120     0.333571516436    12.000000000000
         C            1.044653765368    -1.317947576120    -0.234797483564    12.000000000000
         H            0.693939765368     1.886205423880     0.954441516436     1.007825032230
         H           -0.892199234632     0.431022423880     1.929190516436     1.007825032230
         H            1.773459765368    -0.232878576120     1.461893516436     1.007825032230
         H           -2.004268234632    -1.398111576120     0.955625516436     1.007825032230
         H            0.833285765368    -1.148783576120    -1.296114483564     1.007825032230
         H            1.795597765368    -2.102635576120    -0.132659483564     1.007825032230
         H           -0.403368234632     2.010868423880    -1.089816483564     1.007825032230
         H           -2.352024234632     0.975449423880    -0.346220483564     1.007825032230
         H            2.389383765368     0.934048423880    -0.998949483564     1.007825032230
         H           -2.005958234632    -1.677507576120    -1.284641483564     1.007825032230

  Basis Set: AUG-CC-PVTZ
    Blend: AUG-CC-PVTZ
  Basis Set: (AUG-CC-PVTZ AUX)
    Blend: AUG-CC-PVTZ-JKFIT
	 Reference Energy          =    -569.6603811026218409 [Eh]
	 Singles Energy            =      -0.0000000000000000 [Eh]
	 Same-Spin Energy          =      -0.5553071002429604 [Eh]
	 Opposite-Spin Energy      =      -1.7062232611466577 [Eh]
	 Correlation Energy        =      -2.2615303613896183 [Eh]
	 Total Energy              =    -571.9219114640114867 [Eh]

	 ================> DF-SCS-MP2 Energies <==================
	-----------------------------------------------------------
	 SCS Same-Spin Scale       =       0.3333333333333333 [-]
	 SCS Opposite-Spin Scale   =       1.2000000000000000 [-]
	 SCS Same-Spin Energy      =      -0.1851023667476535 [Eh]
	 SCS Opposite-Spin Energy  =      -2.0474679133759892 [Eh]
	 SCS Correlation Energy    =      -2.2325702801236424 [Eh]
	 SCS Total Energy          =    -571.8929513827455366 [Eh]
	-----------------------------------------------------------

  Dipole Moment: [D]
     X:    -2.2540      Y:    -1.1180      Z:    -0.2284     Total:     2.5263

*** Psi4 exiting successfully. Buy a developer a beer!
