                               Psi4 1.4a3.dev225

  ==> Input File <==

--------------------------------------------------------------------------
#psi4
#
memory 32 gb

molecule  {
0 1
  O       -0.2343850     1.7978400    -0.4145210
  O        0.4791390    -1.3900560     0.9851260
  O       -1.8902550    -1.4798720    -0.4079610
  O        2.7489250    -0.2990660     0.0843650
  O       -1.6766260     0.6849030     1.0797040
  C        0.4758930    -0.9871420    -0.3839460
  C       -0.9016663    -0.5025427    -0.8169145
  C        1.5148540     0.1205520    -0.4811210
  C       -1.2794180     0.8705190    -0.2725550
  C        0.9914930     1.3693070     0.2124490
  H        0.7732420    -1.8350180    -1.0199460
  H       -0.9367810    -0.4539690    -1.9062570
  H        1.7061480     0.3550680    -1.5342930
  H       -2.1075740     1.2945610    -0.8542440
  H        0.8333730     1.1741050     1.2776920
  H        1.6908660     2.1982840     0.0933200
  H       -0.2684360    -2.0097880     1.0741120
  H       -2.2907410    -1.1048270     0.4011470
  H        2.5001980    -0.8049050     0.8819700
  H       -2.0397460     1.5332780     1.3914430
units angstrom
no_reorient  #important for SAPT in psi4, default
symmetry c1  #important for SAPT in psi4, default
}

set PROPERTIES_ORIGIN ["COM"]
properties('MP2/aug-cc-pvtz', properties = ['dipole'])
--------------------------------------------------------------------------

    Molecular point group: c1
  Charge       = 0
  Multiplicity = 1
  Basis Set: AUG-CC-PVTZ
    Blend: AUG-CC-PVTZ
  Basis Set: (AUG-CC-PVTZ AUX)
    Blend: AUG-CC-PVTZ-JKFIT

    Orbital Energies [Eh]
    ---------------------

    Doubly Occupied:

       1A    -20.592344     2A    -20.581121     3A    -20.573146
       4A    -20.570488     5A    -20.558752     6A    -11.355335
       7A    -11.299739     8A    -11.291840     9A    -11.286455
      10A    -11.279146    11A     -1.438074    12A     -1.389774
      13A     -1.372387    14A     -1.352831    15A     -1.346271
      16A     -1.060218    17A     -1.023977    18A     -0.899538
      19A     -0.870109    20A     -0.798094    21A     -0.752203
      22A     -0.727716    23A     -0.712031    24A     -0.693386
      25A     -0.667825    26A     -0.646904    27A     -0.621044
      28A     -0.614854    29A     -0.600586    30A     -0.582704
      31A     -0.572423    32A     -0.556770    33A     -0.542275
      34A     -0.515562    35A     -0.503137    36A     -0.491064
      37A     -0.488298    38A     -0.471425    39A     -0.442809
      40A     -0.416936

  @DF-RHF Final Energy:  -569.67372789795957

   => Energetics <=

    Nuclear Repulsion Energy =            633.1871677319651326
    One-Electron Energy =               -2040.6026043437902899
    Two-Electron Energy =                 837.7417087138654779
    Total Energy =                       -569.6737278979595658
  Basis Set: (AUG-CC-PVTZ AUX)
    Blend: AUG-CC-PVTZ-RI
    Molecular point group: c1

    Geometry (in Angstrom), charge = 0, multiplicity = 1:

       Center              X                  Y                   Z               Mass
    ------------   -----------------  -----------------  -----------------  -----------------
         O           -0.236417678458     1.799030940053    -0.415314246255    15.994914619570
         O            0.477106321542    -1.388865059947     0.984332753745    15.994914619570
         O           -1.892287678458    -1.478681059947    -0.408754246255    15.994914619570
         O            2.746892321542    -0.297875059947     0.083571753745    15.994914619570
         O           -1.678658678458     0.686093940053     1.078910753745    15.994914619570
         C            0.473860321542    -0.985951059947    -0.384739246255    12.000000000000
         C           -0.903698978458    -0.501351759947    -0.817707746255    12.000000000000
         C            1.512821321542     0.121742940053    -0.481914246255    12.000000000000
         C           -1.281450678458     0.871709940053    -0.273348246255    12.000000000000
         C            0.989460321542     1.370497940053     0.211655753745    12.000000000000
         H            0.771209321542    -1.833827059947    -1.020739246255     1.007825032230
         H           -0.938813678458    -0.452778059947    -1.907050246255     1.007825032230
         H            1.704115321542     0.356258940053    -1.535086246255     1.007825032230
         H           -2.109606678458     1.295751940053    -0.855037246255     1.007825032230
         H            0.831340321542     1.175295940053     1.276898753745     1.007825032230
         H            1.688833321542     2.199474940053     0.092526753745     1.007825032230
         H           -0.270468678458    -2.008597059947     1.073318753745     1.007825032230
         H           -2.292773678458    -1.103636059947     0.400353753745     1.007825032230
         H            2.498165321542    -0.803714059947     0.881176753745     1.007825032230
         H           -2.041778678458     1.534468940053     1.390649753745     1.007825032230

  Basis Set: AUG-CC-PVTZ
    Blend: AUG-CC-PVTZ
  Basis Set: (AUG-CC-PVTZ AUX)
    Blend: AUG-CC-PVTZ-JKFIT
	 Reference Energy          =    -569.6737278979595658 [Eh]
	 Singles Energy            =      -0.0000000000000000 [Eh]
	 Same-Spin Energy          =      -0.5545979059021311 [Eh]
	 Opposite-Spin Energy      =      -1.7043034178986618 [Eh]
	 Correlation Energy        =      -2.2589013238007931 [Eh]
	 Total Energy              =    -571.9326292217604077 [Eh]

	 ================> DF-SCS-MP2 Energies <==================
	-----------------------------------------------------------
	 SCS Same-Spin Scale       =       0.3333333333333333 [-]
	 SCS Opposite-Spin Scale   =       1.2000000000000000 [-]
	 SCS Same-Spin Energy      =      -0.1848659686340437 [Eh]
	 SCS Opposite-Spin Energy  =      -2.0451641014783939 [Eh]
	 SCS Correlation Energy    =      -2.2300300701124374 [Eh]
	 SCS Total Energy          =    -571.9037579680720000 [Eh]
	-----------------------------------------------------------

  Dipole Moment: [D]
     X:    -2.2481      Y:     1.0010      Z:     0.3808     Total:     2.4902

*** Psi4 exiting successfully. Buy a developer a beer!
