                               Psi4 1.3.2 release

  ==> Input File <==

--------------------------------------------------------------------------
#psi4
#
memory 32 gb

molecule  {
0 1
  O       -0.1147700    -1.8002930     0.4548730
  O        0.3584290     1.3939840    -1.0246780
  O       -1.9551560     1.3713260     0.4690830
  O        2.7499564     0.4432847    -0.1405918
  O       -1.6716310    -0.8002260    -0.9984850
  C        0.4315910     1.0135520     0.3497470
  C       -0.9093320     0.4742750     0.8400700
  C        1.5345100    -0.0288940     0.4204030
  C       -1.2151430    -0.9364420     0.3397180
  C        1.0549700    -1.3167000    -0.2286510
  H        0.7042560     1.8874530     0.9605880
  H       -0.8818830     0.4322700     1.9353370
  H        1.8373695    -0.2143555     1.4570607
  H       -1.9939520    -1.3968640     0.9617720
  H        0.8436020    -1.1475360    -1.2899680
  H        1.8059140    -2.1013880    -0.1265130
  H       -0.3930520     2.0121160    -1.0836700
  H       -2.3417080     0.9766970    -0.3400740
  H        2.3997000     0.9352960    -0.9928030
  H       -1.9956420    -1.6762600    -1.2784950
units angstrom
no_reorient  #important for SAPT in psi4, default
symmetry c1  #important for SAPT in psi4, default
}

set PROPERTIES_ORIGIN ["COM"]
properties('MP2/aug-cc-pvtz', properties = ['dipole'])
--------------------------------------------------------------------------

    Molecular point group: c1
  Charge       = 0
  Multiplicity = 1
  Basis Set: AUG-CC-PVTZ
    Blend: AUG-CC-PVTZ
  Basis Set: (AUG-CC-PVTZ AUX)
    Blend: AUG-CC-PVTZ-JKFIT

    Orbital Energies [Eh]
    ---------------------

    Doubly Occupied:

       1A    -20.592024     2A    -20.581325     3A    -20.575132
       4A    -20.572784     5A    -20.564444     6A    -11.354234
       7A    -11.298861     8A    -11.291845     9A    -11.283974
      10A    -11.279028    11A     -1.439090    12A     -1.390952
      13A     -1.373695    14A     -1.353854    15A     -1.341981
      16A     -1.057457    17A     -1.021977    18A     -0.898949
      19A     -0.867640    20A     -0.796606    21A     -0.752898
      22A     -0.727580    23A     -0.711989    24A     -0.695655
      25A     -0.665547    26A     -0.639987    27A     -0.621924
      28A     -0.614602    29A     -0.603144    30A     -0.578806
      31A     -0.572783    32A     -0.555952    33A     -0.541638
      34A     -0.514782    35A     -0.502963    36A     -0.491963
      37A     -0.487679    38A     -0.471728    39A     -0.440699
      40A     -0.416218

  @DF-RHF Final Energy:  -569.66440993644846

   => Energetics <=

    Nuclear Repulsion Energy =            632.8274097486740857
    One-Electron Energy =               -2039.8948613883146663
    Two-Electron Energy =                 837.4030417031922298
    Total Energy =                       -569.6644099364484646
  Basis Set: (AUG-CC-PVTZ AUX)
    Blend: AUG-CC-PVTZ-RI
    Molecular point group: c1

    Geometry (in Angstrom), charge = 0, multiplicity = 1:

       Center              X                  Y                   Z               Mass
    ------------   -----------------  -----------------  -----------------  -----------------
         O           -0.118875956383    -1.799631566410     0.448010129691    15.994914619570
         O            0.354323043617     1.394645433590    -1.031540870309    15.994914619570
         O           -1.959261956383     1.371987433590     0.462220129691    15.994914619570
         O            2.745850443617     0.443946133590    -0.147454670309    15.994914619570
         O           -1.675736956383    -0.799564566410    -1.005347870309    15.994914619570
         C            0.427485043617     1.014213433590     0.342884129691    12.000000000000
         C           -0.913437956383     0.474936433590     0.833207129691    12.000000000000
         C            1.530404043617    -0.028232566410     0.413540129691    12.000000000000
         C           -1.219248956383    -0.935780566410     0.332855129691    12.000000000000
         C            1.050864043617    -1.316038566410    -0.235513870309    12.000000000000
         H            0.700150043617     1.888114433590     0.953725129691     1.007825032230
         H           -0.885988956383     0.432931433590     1.928474129691     1.007825032230
         H            1.833263543617    -0.213694066410     1.450197829691     1.007825032230
         H           -1.998057956383    -1.396202566410     0.954909129691     1.007825032230
         H            0.839496043617    -1.146874566410    -1.296830870309     1.007825032230
         H            1.801808043617    -2.100726566410    -0.133375870309     1.007825032230
         H           -0.397157956383     2.012777433590    -1.090532870309     1.007825032230
         H           -2.345813956383     0.977358433590    -0.346936870309     1.007825032230
         H            2.395594043617     0.935957433590    -0.999665870309     1.007825032230
         H           -1.999747956383    -1.675598566410    -1.285357870309     1.007825032230

  Basis Set: AUG-CC-PVTZ
    Blend: AUG-CC-PVTZ
  Basis Set: (AUG-CC-PVTZ AUX)
    Blend: AUG-CC-PVTZ-JKFIT
	 Reference Energy          =    -569.6644099364484646 [Eh]
	 Singles Energy            =      -0.0000000000000000 [Eh]
	 Same-Spin Energy          =      -0.5556913618605275 [Eh]
	 Opposite-Spin Energy      =      -1.7066207062315217 [Eh]
	 Correlation Energy        =      -2.2623120680920490 [Eh]
	 Total Energy              =    -571.9267220045404656 [Eh]

	 ================> DF-SCS-MP2 Energies <==================
	-----------------------------------------------------------
	 SCS Same-Spin Scale       =       0.3333333333333333 [-]
	 SCS Opposite-Spin Scale   =       1.2000000000000000 [-]
	 SCS Same-Spin Energy      =      -0.1852304539535091 [Eh]
	 SCS Opposite-Spin Energy  =      -2.0479448474778259 [Eh]
	 SCS Correlation Energy    =      -2.2331753014313351 [Eh]
	 SCS Total Energy          =    -571.8975852378797526 [Eh]
	-----------------------------------------------------------

  Dipole Moment: [D]
     X:    -2.2353      Y:    -0.9874      Z:    -0.4014     Total:     2.4764

*** Psi4 exiting successfully. Buy a developer a beer!
