                               Psi4 1.3.2 release

  ==> Input File <==

--------------------------------------------------------------------------
#psi4
#
memory 32 gb

molecule  {
0 1
  O       -0.1147700    -1.8002930     0.4548730
  O        0.3645397     1.4172957    -1.0183248
  O       -1.9551560     1.3713260     0.4690830
  O        2.7148150     0.4505790    -0.2056670
  O       -1.6716310    -0.8002260    -0.9984850
  C        0.4315910     1.0135520     0.3497470
  C       -0.9093320     0.4742750     0.8400700
  C        1.5345100    -0.0288940     0.4204030
  C       -1.2151430    -0.9364420     0.3397180
  C        1.0549700    -1.3167000    -0.2286510
  H        0.7048639     1.8981808     0.9446669
  H       -0.8818830     0.4322700     1.9353370
  H        1.7837760    -0.2316310     1.4680400
  H       -1.9939520    -1.3968640     0.9617720
  H        0.8436020    -1.1475360    -1.2899680
  H        1.8059140    -2.1013880    -0.1265130
  H       -0.3930520     2.0121160    -1.0836700
  H       -2.3417080     0.9766970    -0.3400740
  H        2.3997000     0.9352960    -0.9928030
  H       -1.9956420    -1.6762600    -1.2784950
units angstrom
no_reorient  #important for SAPT in psi4, default
symmetry c1  #important for SAPT in psi4, default
}

set PROPERTIES_ORIGIN ["COM"]
properties('MP2/aug-cc-pvtz', properties = ['dipole'])
--------------------------------------------------------------------------

    Molecular point group: c1
  Charge       = 0
  Multiplicity = 1
  Basis Set: AUG-CC-PVTZ
    Blend: AUG-CC-PVTZ
  Basis Set: (AUG-CC-PVTZ AUX)
    Blend: AUG-CC-PVTZ-JKFIT

    Orbital Energies [Eh]
    ---------------------

    Doubly Occupied:

       1A    -20.592162     2A    -20.581182     3A    -20.574831
       4A    -20.569401     5A    -20.558340     6A    -11.354339
       7A    -11.298942     8A    -11.290975     9A    -11.286088
      10A    -11.278647    11A     -1.439154    12A     -1.392101
      13A     -1.375994    14A     -1.354375    15A     -1.348440
      16A     -1.059498    17A     -1.023394    18A     -0.899160
      19A     -0.870284    20A     -0.799447    21A     -0.752912
      22A     -0.727499    23A     -0.712789    24A     -0.696545
      25A     -0.669386    26A     -0.646618    27A     -0.621377
      28A     -0.615897    29A     -0.602889    30A     -0.585222
      31A     -0.572049    32A     -0.556259    33A     -0.542452
      34A     -0.516501    35A     -0.502926    36A     -0.490772
      37A     -0.487878    38A     -0.471673    39A     -0.441242
      40A     -0.415876

  @DF-RHF Final Energy:  -569.67527937248633

   => Energetics <=

    Nuclear Repulsion Energy =            633.5332575319786201
    One-Electron Energy =               -2041.2660404917799042
    Two-Electron Energy =                 838.0575035873148408
    Total Energy =                       -569.6752793724863295
  Basis Set: (AUG-CC-PVTZ AUX)
    Blend: AUG-CC-PVTZ-RI
    Molecular point group: c1

    Geometry (in Angstrom), charge = 0, multiplicity = 1:

       Center              X                  Y                   Z               Mass
    ------------   -----------------  -----------------  -----------------  -----------------
         O           -0.115425546254    -1.802850042476     0.454302805993    15.994914619570
         O            0.363884153746     1.414738657524    -1.018894994007    15.994914619570
         O           -1.955811546254     1.368768957524     0.468512805993    15.994914619570
         O            2.714159453746     0.448021957524    -0.206237194007    15.994914619570
         O           -1.672286546254    -0.802783042476    -0.999055194007    15.994914619570
         C            0.430935453746     1.010994957524     0.349176805993    12.000000000000
         C           -0.909987546254     0.471717957524     0.839499805993    12.000000000000
         C            1.533854453746    -0.031451042476     0.419832805993    12.000000000000
         C           -1.215798546254    -0.938999042476     0.339147805993    12.000000000000
         C            1.054314453746    -1.319257042476    -0.229221194007    12.000000000000
         H            0.704208353746     1.895623757524     0.944096705993     1.007825032230
         H           -0.882538546254     0.429712957524     1.934766805993     1.007825032230
         H            1.783120453746    -0.234188042476     1.467469805993     1.007825032230
         H           -1.994607546254    -1.399421042476     0.961201805993     1.007825032230
         H            0.842946453746    -1.150093042476    -1.290538194007     1.007825032230
         H            1.805258453746    -2.103945042476    -0.127083194007     1.007825032230
         H           -0.393707546254     2.009558957524    -1.084240194007     1.007825032230
         H           -2.342363546254     0.974139957524    -0.340644194007     1.007825032230
         H            2.399044453746     0.932738957524    -0.993373194007     1.007825032230
         H           -1.996297546254    -1.678817042476    -1.279065194007     1.007825032230

  Basis Set: AUG-CC-PVTZ
    Blend: AUG-CC-PVTZ
  Basis Set: (AUG-CC-PVTZ AUX)
    Blend: AUG-CC-PVTZ-JKFIT
	 Reference Energy          =    -569.6752793724863295 [Eh]
	 Singles Energy            =      -0.0000000000000000 [Eh]
	 Same-Spin Energy          =      -0.5543909666759729 [Eh]
	 Opposite-Spin Energy      =      -1.7034414283805859 [Eh]
	 Correlation Energy        =      -2.2578323950565586 [Eh]
	 Total Energy              =    -571.9331117675428686 [Eh]

	 ================> DF-SCS-MP2 Energies <==================
	-----------------------------------------------------------
	 SCS Same-Spin Scale       =       0.3333333333333333 [-]
	 SCS Opposite-Spin Scale   =       1.2000000000000000 [-]
	 SCS Same-Spin Energy      =      -0.1847969888919909 [Eh]
	 SCS Opposite-Spin Energy  =      -2.0441297140567030 [Eh]
	 SCS Correlation Energy    =      -2.2289267029486939 [Eh]
	 SCS Total Energy          =    -571.9042060754350132 [Eh]
	-----------------------------------------------------------

  Dipole Moment: [D]
     X:    -2.2009      Y:    -1.0510      Z:    -0.2990     Total:     2.4572

*** Psi4 exiting successfully. Buy a developer a beer!
