                               Psi4 1.3.2 release

  ==> Input File <==

--------------------------------------------------------------------------
#psi4
#
memory 32 gb

molecule  {
0 1
  O       -0.1147700    -1.8002930     0.4548730
  O        0.3584290     1.3939840    -1.0246780
  O       -1.9551560     1.3713260     0.4690830
  O        2.7148150     0.4505790    -0.2056670
  O       -1.6716310    -0.8002260    -0.9984850
  C        0.4315910     1.0135520     0.3497470
  C       -0.9093320     0.4742750     0.8400700
  C        1.5345100    -0.0288940     0.4204030
  C       -1.1951258    -0.8441020     0.3724691
  C        1.0549700    -1.3167000    -0.2286510
  H        0.7042560     1.8874530     0.9605880
  H       -0.8818830     0.4322700     1.9353370
  H        1.7837760    -0.2316310     1.4680400
  H       -1.9939520    -1.3968640     0.9617720
  H        0.8436020    -1.1475360    -1.2899680
  H        1.8059140    -2.1013880    -0.1265130
  H       -0.3930520     2.0121160    -1.0836700
  H       -2.3417080     0.9766970    -0.3400740
  H        2.3997000     0.9352960    -0.9928030
  H       -1.9956420    -1.6762600    -1.2784950
units angstrom
no_reorient  #important for SAPT in psi4, default
symmetry c1  #important for SAPT in psi4, default
}

set PROPERTIES_ORIGIN ["COM"]
properties('MP2/aug-cc-pvtz', properties = ['dipole'])
--------------------------------------------------------------------------

    Molecular point group: c1
  Charge       = 0
  Multiplicity = 1
  Basis Set: AUG-CC-PVTZ
    Blend: AUG-CC-PVTZ
  Basis Set: (AUG-CC-PVTZ AUX)
    Blend: AUG-CC-PVTZ-JKFIT

    Orbital Energies [Eh]
    ---------------------

    Doubly Occupied:

       1A    -20.585276     2A    -20.580319     3A    -20.579379
       4A    -20.573525     5A    -20.558889     6A    -11.357764
       7A    -11.299913     8A    -11.294287     9A    -11.286536
      10A    -11.275639    11A     -1.429642    12A     -1.391213
      13A     -1.377186    14A     -1.349481    15A     -1.343123
      16A     -1.072659    17A     -1.029070    18A     -0.907413
      19A     -0.867077    20A     -0.799962    21A     -0.749673
      22A     -0.729030    23A     -0.708482    24A     -0.696846
      25A     -0.669734    26A     -0.647319    27A     -0.616078
      28A     -0.613765    29A     -0.605152    30A     -0.580636
      31A     -0.563984    32A     -0.562673    33A     -0.543737
      34A     -0.520821    35A     -0.501227    36A     -0.494383
      37A     -0.486888    38A     -0.468413    39A     -0.441014
      40A     -0.421657

  @DF-RHF Final Energy:  -569.65994735520724

   => Energetics <=

    Nuclear Repulsion Energy =            634.7309402252325299
    One-Electron Energy =               -2043.6220399970823109
    Two-Electron Energy =                 839.2311524166426580
    Total Energy =                       -569.6599473552072368
  Basis Set: (AUG-CC-PVTZ AUX)
    Blend: AUG-CC-PVTZ-RI
    Molecular point group: c1

    Geometry (in Angstrom), charge = 0, multiplicity = 1:

       Center              X                  Y                   Z               Mass
    ------------   -----------------  -----------------  -----------------  -----------------
         O           -0.116370904130    -1.807677673087     0.452253927575    15.994914619570
         O            0.356828095870     1.386599326913    -1.027297072425    15.994914619570
         O           -1.956756904130     1.363941326913     0.466463927575    15.994914619570
         O            2.713214095870     0.443194326913    -0.208286072425    15.994914619570
         O           -1.673231904130    -0.807610673087    -1.001104072425    15.994914619570
         C            0.429990095870     1.006167326913     0.347127927575    12.000000000000
         C           -0.910932904130     0.466890326913     0.837450927575    12.000000000000
         C            1.532909095870    -0.036278673087     0.417783927575    12.000000000000
         C           -1.196726704130    -0.851486673087     0.369850027575    12.000000000000
         C            1.053369095870    -1.324084673087    -0.231270072425    12.000000000000
         H            0.702655095870     1.880068326913     0.957968927575     1.007825032230
         H           -0.883483904130     0.424885326913     1.932717927575     1.007825032230
         H            1.782175095870    -0.239015673087     1.465420927575     1.007825032230
         H           -1.995552904130    -1.404248673087     0.959152927575     1.007825032230
         H            0.842001095870    -1.154920673087    -1.292587072425     1.007825032230
         H            1.804313095870    -2.108772673087    -0.129132072425     1.007825032230
         H           -0.394652904130     2.004731326913    -1.086289072425     1.007825032230
         H           -2.343308904130     0.969312326913    -0.342693072425     1.007825032230
         H            2.398099095870     0.927911326913    -0.995422072425     1.007825032230
         H           -1.997242904130    -1.683644673087    -1.281114072425     1.007825032230

  Basis Set: AUG-CC-PVTZ
    Blend: AUG-CC-PVTZ
  Basis Set: (AUG-CC-PVTZ AUX)
    Blend: AUG-CC-PVTZ-JKFIT
	 Reference Energy          =    -569.6599473552072368 [Eh]
	 Singles Energy            =      -0.0000000000000000 [Eh]
	 Same-Spin Energy          =      -0.5558368560553264 [Eh]
	 Opposite-Spin Energy      =      -1.7064400897514478 [Eh]
	 Correlation Energy        =      -2.2622769458067742 [Eh]
	 Total Energy              =    -571.9222243010140119 [Eh]

	 ================> DF-SCS-MP2 Energies <==================
	-----------------------------------------------------------
	 SCS Same-Spin Scale       =       0.3333333333333333 [-]
	 SCS Opposite-Spin Scale   =       1.2000000000000000 [-]
	 SCS Same-Spin Energy      =      -0.1852789520184421 [Eh]
	 SCS Opposite-Spin Energy  =      -2.0477281077017371 [Eh]
	 SCS Correlation Energy    =      -2.2330070597201792 [Eh]
	 SCS Total Energy          =    -571.8929544149274307 [Eh]
	-----------------------------------------------------------

  Dipole Moment: [D]
     X:    -2.1375      Y:    -0.7322      Z:    -0.1503     Total:     2.2644

*** Psi4 exiting successfully. Buy a developer a beer!
