                               Psi4 1.4a3.dev225

  ==> Input File <==

--------------------------------------------------------------------------
#psi4
#
memory 32 gb

molecule  {
0 1
  O       -0.2343850     1.7978400    -0.4145210
  O        0.4791390    -1.3900560     0.9851260
  O       -1.8902550    -1.4798720    -0.4079610
  O        2.7489250    -0.2990660     0.0843650
  O       -1.6766260     0.6849030     1.0797040
  C        0.4758930    -0.9871420    -0.3839460
  C       -0.9153110    -0.5160320    -0.8112700
  C        1.5148540     0.1205520    -0.4811210
  C       -1.2794180     0.8705190    -0.2725550
  C        0.9914930     1.3693070     0.2124490
  H        0.7732420    -1.8350180    -1.0199460
  H       -0.9367810    -0.4539690    -1.9062570
  H        1.7061480     0.3550680    -1.5342930
  H       -2.1453109     1.3138835    -0.8807500
  H        0.8333730     1.1741050     1.2776920
  H        1.6908660     2.1982840     0.0933200
  H       -0.2684360    -2.0097880     1.0741120
  H       -2.2907410    -1.1048270     0.4011470
  H        2.5001980    -0.8049050     0.8819700
  H       -2.0397460     1.5332780     1.3914430
units angstrom
no_reorient  #important for SAPT in psi4, default
symmetry c1  #important for SAPT in psi4, default
}

set PROPERTIES_ORIGIN ["COM"]
properties('MP2/aug-cc-pvtz', properties = ['dipole'])
--------------------------------------------------------------------------

    Molecular point group: c1
  Charge       = 0
  Multiplicity = 1
  Basis Set: AUG-CC-PVTZ
    Blend: AUG-CC-PVTZ
  Basis Set: (AUG-CC-PVTZ AUX)
    Blend: AUG-CC-PVTZ-JKFIT

    Orbital Energies [Eh]
    ---------------------

    Doubly Occupied:

       1A    -20.592855     2A    -20.581854     3A    -20.575294
       4A    -20.570287     5A    -20.558890     6A    -11.360789
       7A    -11.300118     8A    -11.291551     9A    -11.286531
      10A    -11.279277    11A     -1.438324    12A     -1.391149
      13A     -1.375741    14A     -1.354408    15A     -1.347658
      16A     -1.058220    17A     -1.021198    18A     -0.897875
      19A     -0.868506    20A     -0.798335    21A     -0.748976
      22A     -0.726357    23A     -0.711172    24A     -0.695469
      25A     -0.668160    26A     -0.647112    27A     -0.621073
      28A     -0.614830    29A     -0.601763    30A     -0.584628
      31A     -0.570926    32A     -0.556920    33A     -0.543110
      34A     -0.515863    35A     -0.500899    36A     -0.490185
      37A     -0.487939    38A     -0.471116    39A     -0.440756
      40A     -0.416040

  @DF-RHF Final Energy:  -569.67207538667139

   => Energetics <=

    Nuclear Repulsion Energy =            632.8400314605705717
    One-Electron Energy =               -2039.8999074748483054
    Two-Electron Energy =                 837.3878006276063388
    Total Energy =                       -569.6720753866713949
  Basis Set: (AUG-CC-PVTZ AUX)
    Blend: AUG-CC-PVTZ-RI
    Molecular point group: c1

    Geometry (in Angstrom), charge = 0, multiplicity = 1:

       Center              X                  Y                   Z               Mass
    ------------   -----------------  -----------------  -----------------  -----------------
         O           -0.235073028035     1.799979925201    -0.415587620582    15.994914619570
         O            0.478450971965    -1.387916074799     0.984059379418    15.994914619570
         O           -1.890943028035    -1.477732074799    -0.409027620582    15.994914619570
         O            2.748236971965    -0.296926074799     0.083298379418    15.994914619570
         O           -1.677314028035     0.687042925201     1.078637379418    15.994914619570
         C            0.475204971965    -0.985002074799    -0.385012620582    12.000000000000
         C           -0.915999028035    -0.513892074799    -0.812336620582    12.000000000000
         C            1.514165971965     0.122691925201    -0.482187620582    12.000000000000
         C           -1.280106028035     0.872658925201    -0.273621620582    12.000000000000
         C            0.990804971965     1.371446925201     0.211382379418    12.000000000000
         H            0.772553971965    -1.832878074799    -1.021012620582     1.007825032230
         H           -0.937469028035    -0.451829074799    -1.907323620582     1.007825032230
         H            1.705459971965     0.357207925201    -1.535359620582     1.007825032230
         H           -2.145998928035     1.316023425201    -0.881816620582     1.007825032230
         H            0.832684971965     1.176244925201     1.276625379418     1.007825032230
         H            1.690177971965     2.200423925201     0.092253379418     1.007825032230
         H           -0.269124028035    -2.007648074799     1.073045379418     1.007825032230
         H           -2.291429028035    -1.102687074799     0.400080379418     1.007825032230
         H            2.499509971965    -0.802765074799     0.880903379418     1.007825032230
         H           -2.040434028035     1.535417925201     1.390376379418     1.007825032230

  Basis Set: AUG-CC-PVTZ
    Blend: AUG-CC-PVTZ
  Basis Set: (AUG-CC-PVTZ AUX)
    Blend: AUG-CC-PVTZ-JKFIT
	 Reference Energy          =    -569.6720753866713949 [Eh]
	 Singles Energy            =      -0.0000000000000000 [Eh]
	 Same-Spin Energy          =      -0.5546429205251315 [Eh]
	 Opposite-Spin Energy      =      -1.7044371908844220 [Eh]
	 Correlation Energy        =      -2.2590801114095536 [Eh]
	 Total Energy              =    -571.9311554980808978 [Eh]

	 ================> DF-SCS-MP2 Energies <==================
	-----------------------------------------------------------
	 SCS Same-Spin Scale       =       0.3333333333333333 [-]
	 SCS Opposite-Spin Scale   =       1.2000000000000000 [-]
	 SCS Same-Spin Energy      =      -0.1848809735083772 [Eh]
	 SCS Opposite-Spin Energy  =      -2.0453246290613065 [Eh]
	 SCS Correlation Energy    =      -2.2302056025696837 [Eh]
	 SCS Total Energy          =    -571.9022809892410351 [Eh]
	-----------------------------------------------------------

  Dipole Moment: [D]
     X:    -2.2655      Y:     0.9547      Z:     0.4202     Total:     2.4941

*** Psi4 exiting successfully. Buy a developer a beer!
