                               Psi4 1.3.2 release

  ==> Input File <==

--------------------------------------------------------------------------
#psi4
#
memory 32 gb

molecule  {
0 1
  O       -0.1147700    -1.8002930     0.4548730
  O        0.3584290     1.3939840    -1.0246780
  O       -1.9498654     1.3672278     0.4450950
  O        2.7148150     0.4505790    -0.2056670
  O       -1.6716310    -0.8002260    -0.9984850
  C        0.4315910     1.0135520     0.3497470
  C       -0.9093320     0.4742750     0.8400700
  C        1.5345100    -0.0288940     0.4204030
  C       -1.2151430    -0.9364420     0.3397180
  C        1.0549700    -1.3167000    -0.2286510
  H        0.7042560     1.8874530     0.9605880
  H       -0.8673267     0.4198893     1.9343302
  H        1.7837760    -0.2316310     1.4680400
  H       -1.9939520    -1.3968640     0.9617720
  H        0.8436020    -1.1475360    -1.2899680
  H        1.8059140    -2.1013880    -0.1265130
  H       -0.3930520     2.0121160    -1.0836700
  H       -2.3417080     0.9766970    -0.3400740
  H        2.3997000     0.9352960    -0.9928030
  H       -1.9956420    -1.6762600    -1.2784950
units angstrom
no_reorient  #important for SAPT in psi4, default
symmetry c1  #important for SAPT in psi4, default
}

set PROPERTIES_ORIGIN ["COM"]
properties('MP2/aug-cc-pvtz', properties = ['dipole'])
--------------------------------------------------------------------------

    Molecular point group: c1
  Charge       = 0
  Multiplicity = 1
  Basis Set: AUG-CC-PVTZ
    Blend: AUG-CC-PVTZ
  Basis Set: (AUG-CC-PVTZ AUX)
    Blend: AUG-CC-PVTZ-JKFIT

    Orbital Energies [Eh]
    ---------------------

    Doubly Occupied:

       1A    -20.591029     2A    -20.580553     3A    -20.573032
       4A    -20.570538     5A    -20.558092     6A    -11.353623
       7A    -11.299094     8A    -11.290775     9A    -11.285528
      10A    -11.278003    11A     -1.438855    12A     -1.392189
      13A     -1.377247    14A     -1.354112    15A     -1.347762
      16A     -1.059754    17A     -1.023396    18A     -0.898578
      19A     -0.871058    20A     -0.798488    21A     -0.751986
      22A     -0.727706    23A     -0.712490    24A     -0.698028
      25A     -0.669467    26A     -0.647980    27A     -0.620735
      28A     -0.613785    29A     -0.603754    30A     -0.584920
      31A     -0.572308    32A     -0.556005    33A     -0.542157
      34A     -0.516530    35A     -0.502397    36A     -0.490731
      37A     -0.487282    38A     -0.471327    39A     -0.440725
      40A     -0.415709

  @DF-RHF Final Energy:  -569.67544954806760

   => Energetics <=

    Nuclear Repulsion Energy =            634.2271678771959387
    One-Electron Energy =               -2042.6697749748095703
    Two-Electron Energy =                 838.7671575495461411
    Total Energy =                       -569.6754495480676042
  Basis Set: (AUG-CC-PVTZ AUX)
    Blend: AUG-CC-PVTZ-RI
    Molecular point group: c1

    Geometry (in Angstrom), charge = 0, multiplicity = 1:

       Center              X                  Y                   Z               Mass
    ------------   -----------------  -----------------  -----------------  -----------------
         O           -0.115431811496    -1.799773070484     0.457436861640    15.994914619570
         O            0.357767188504     1.394503929516    -1.022114138360    15.994914619570
         O           -1.950527211496     1.367747729516     0.447658861640    15.994914619570
         O            2.714153188504     0.451098929516    -0.203103138360    15.994914619570
         O           -1.672292811496    -0.799706070484    -0.995921138360    15.994914619570
         C            0.430929188504     1.014071929516     0.352310861640    12.000000000000
         C           -0.909993811496     0.474794929516     0.842633861640    12.000000000000
         C            1.533848188504    -0.028374070484     0.422966861640    12.000000000000
         C           -1.215804811496    -0.935922070484     0.342281861640    12.000000000000
         C            1.054308188504    -1.316180070484    -0.226087138360    12.000000000000
         H            0.703594188504     1.887972929516     0.963151861640     1.007825032230
         H           -0.867988511496     0.420409229516     1.936894061640     1.007825032230
         H            1.783114188504    -0.231111070484     1.470603861640     1.007825032230
         H           -1.994613811496    -1.396344070484     0.964335861640     1.007825032230
         H            0.842940188504    -1.147016070484    -1.287404138360     1.007825032230
         H            1.805252188504    -2.100868070484    -0.123949138360     1.007825032230
         H           -0.393713811496     2.012635929516    -1.081106138360     1.007825032230
         H           -2.342369811496     0.977216929516    -0.337510138360     1.007825032230
         H            2.399038188504     0.935815929516    -0.990239138360     1.007825032230
         H           -1.996303811496    -1.675740070484    -1.275931138360     1.007825032230

  Basis Set: AUG-CC-PVTZ
    Blend: AUG-CC-PVTZ
  Basis Set: (AUG-CC-PVTZ AUX)
    Blend: AUG-CC-PVTZ-JKFIT
	 Reference Energy          =    -569.6754495480676042 [Eh]
	 Singles Energy            =      -0.0000000000000000 [Eh]
	 Same-Spin Energy          =      -0.5543749689221458 [Eh]
	 Opposite-Spin Energy      =      -1.7032619963845428 [Eh]
	 Correlation Energy        =      -2.2576369653066886 [Eh]
	 Total Energy              =    -571.9330865133742918 [Eh]

	 ================> DF-SCS-MP2 Energies <==================
	-----------------------------------------------------------
	 SCS Same-Spin Scale       =       0.3333333333333333 [-]
	 SCS Opposite-Spin Scale   =       1.2000000000000000 [-]
	 SCS Same-Spin Energy      =      -0.1847916563073819 [Eh]
	 SCS Opposite-Spin Energy  =      -2.0439143956614512 [Eh]
	 SCS Correlation Energy    =      -2.2287060519688331 [Eh]
	 SCS Total Energy          =    -571.9041556000364608 [Eh]
	-----------------------------------------------------------

  Dipole Moment: [D]
     X:    -2.1984      Y:    -0.9901      Z:    -0.2556     Total:     2.4246

*** Psi4 exiting successfully. Buy a developer a beer!
