                               Psi4 1.3.2 release

  ==> Input File <==

--------------------------------------------------------------------------
#psi4
#
memory 32 gb

molecule  {
0 1
  O       -0.1147700    -1.8002930     0.4548730
  O        0.3584290     1.3939840    -1.0246780
  O       -1.9900326     1.3139858     0.4362734
  O        2.7148150     0.4505790    -0.2056670
  O       -1.6716310    -0.8002260    -0.9984850
  C        0.4315910     1.0135520     0.3497470
  C       -0.9093320     0.4742750     0.8400700
  C        1.5345100    -0.0288940     0.4204030
  C       -1.2832026    -0.9083425     0.3084830
  C        1.0549700    -1.3167000    -0.2286510
  H        0.7042560     1.8874530     0.9605880
  H       -0.8818830     0.4322700     1.9353370
  H        1.7837760    -0.2316310     1.4680400
  H       -1.9939520    -1.3968640     0.9617720
  H        0.8436020    -1.1475360    -1.2899680
  H        1.8059140    -2.1013880    -0.1265130
  H       -0.3930520     2.0121160    -1.0836700
  H       -2.3417080     0.9766970    -0.3400740
  H        2.3997000     0.9352960    -0.9928030
  H       -1.9956420    -1.6762600    -1.2784950
units angstrom
no_reorient  #important for SAPT in psi4, default
symmetry c1  #important for SAPT in psi4, default
}

set PROPERTIES_ORIGIN ["COM"]
properties('MP2/aug-cc-pvtz', properties = ['dipole'])
--------------------------------------------------------------------------

    Molecular point group: c1
  Charge       = 0
  Multiplicity = 1
  Basis Set: AUG-CC-PVTZ
    Blend: AUG-CC-PVTZ
  Basis Set: (AUG-CC-PVTZ AUX)
    Blend: AUG-CC-PVTZ-JKFIT

    Orbital Energies [Eh]
    ---------------------

    Doubly Occupied:

       1A    -20.601246     2A    -20.572643     3A    -20.567806
       4A    -20.567012     5A    -20.556551     6A    -11.352793
       7A    -11.301516     8A    -11.292794     9A    -11.283352
      10A    -11.271763    11A     -1.446456    12A     -1.395639
      13A     -1.379034    14A     -1.350753    15A     -1.345097
      16A     -1.059066    17A     -1.018108    18A     -0.899769
      19A     -0.870781    20A     -0.803022    21A     -0.760054
      22A     -0.729749    23A     -0.711280    24A     -0.703035
      25A     -0.670524    26A     -0.648767    27A     -0.618646
      28A     -0.610477    29A     -0.604975    30A     -0.585061
      31A     -0.578211    32A     -0.553056    33A     -0.541063
      34A     -0.517784    35A     -0.503333    36A     -0.487087
      37A     -0.483424    38A     -0.464875    39A     -0.442822
      40A     -0.411674

  @DF-RHF Final Energy:  -569.66823858380030

   => Energetics <=

    Nuclear Repulsion Energy =            634.0766033359100220
    One-Electron Energy =               -2042.3674801724132521
    Two-Electron Energy =                 838.6226382527029273
    Total Energy =                       -569.6682385838003029
  Basis Set: (AUG-CC-PVTZ AUX)
    Blend: AUG-CC-PVTZ-RI
    Molecular point group: c1

    Geometry (in Angstrom), charge = 0, multiplicity = 1:

       Center              X                  Y                   Z               Mass
    ------------   -----------------  -----------------  -----------------  -----------------
         O           -0.105609561541    -1.796428050688     0.460868360287    15.994914619570
         O            0.367589438459     1.397848949312    -1.018682639713    15.994914619570
         O           -1.980872161541     1.317850749312     0.442268760287    15.994914619570
         O            2.723975438459     0.454443949312    -0.199671639713    15.994914619570
         O           -1.662470561541    -0.796361050688    -0.992489639713    15.994914619570
         C            0.440751438459     1.017416949312     0.355742360287    12.000000000000
         C           -0.900171561541     0.478139949312     0.846065360287    12.000000000000
         C            1.543670438459    -0.025029050688     0.426398360287    12.000000000000
         C           -1.274042161541    -0.904477550688     0.314478360287    12.000000000000
         C            1.064130438459    -1.312835050688    -0.222655639713    12.000000000000
         H            0.713416438459     1.891317949312     0.966583360287     1.007825032230
         H           -0.872722561541     0.436134949312     1.941332360287     1.007825032230
         H            1.792936438459    -0.227766050688     1.474035360287     1.007825032230
         H           -1.984791561541    -1.392999050688     0.967767360287     1.007825032230
         H            0.852762438459    -1.143671050688    -1.283972639713     1.007825032230
         H            1.815074438459    -2.097523050688    -0.120517639713     1.007825032230
         H           -0.383891561541     2.015980949312    -1.077674639713     1.007825032230
         H           -2.332547561541     0.980561949312    -0.334078639713     1.007825032230
         H            2.408860438459     0.939160949312    -0.986807639713     1.007825032230
         H           -1.986481561541    -1.672395050688    -1.272499639713     1.007825032230

  Basis Set: AUG-CC-PVTZ
    Blend: AUG-CC-PVTZ
  Basis Set: (AUG-CC-PVTZ AUX)
    Blend: AUG-CC-PVTZ-JKFIT
	 Reference Energy          =    -569.6682385838003029 [Eh]
	 Singles Energy            =      -0.0000000000000000 [Eh]
	 Same-Spin Energy          =      -0.5539003943648930 [Eh]
	 Opposite-Spin Energy      =      -1.7023714826108536 [Eh]
	 Correlation Energy        =      -2.2562718769757466 [Eh]
	 Total Energy              =    -571.9245104607761050 [Eh]

	 ================> DF-SCS-MP2 Energies <==================
	-----------------------------------------------------------
	 SCS Same-Spin Scale       =       0.3333333333333333 [-]
	 SCS Opposite-Spin Scale   =       1.2000000000000000 [-]
	 SCS Same-Spin Energy      =      -0.1846334647882977 [Eh]
	 SCS Opposite-Spin Energy  =      -2.0428457791330241 [Eh]
	 SCS Correlation Energy    =      -2.2274792439213220 [Eh]
	 SCS Total Energy          =    -571.8957178277215689 [Eh]
	-----------------------------------------------------------

  Dipole Moment: [D]
     X:    -2.4721      Y:    -0.7462      Z:    -0.4268     Total:     2.6173

*** Psi4 exiting successfully. Buy a developer a beer!
