                               Psi4 1.4a3.dev225

  ==> Input File <==

--------------------------------------------------------------------------
#psi4
#
memory 32 gb

molecule  {
0 1
  O       -0.2343850     1.7978400    -0.4145210
  O        0.4791390    -1.3900560     0.9851260
  O       -1.8902550    -1.4798720    -0.4079610
  O        2.7489250    -0.2990660     0.0843650
  O       -1.6766260     0.6849030     1.0797040
  C        0.4758930    -0.9871420    -0.3839460
  C       -0.9153110    -0.5160320    -0.8112700
  C        1.5148540     0.1205520    -0.4811210
  C       -1.2933889     0.8639904    -0.2249925
  C        0.9914930     1.3693070     0.2124490
  H        0.7732420    -1.8350180    -1.0199460
  H       -0.9367810    -0.4539690    -1.9062570
  H        1.7061480     0.3550680    -1.5342930
  H       -2.1075740     1.2945610    -0.8542440
  H        0.8333730     1.1741050     1.2776920
  H        1.6908660     2.1982840     0.0933200
  H       -0.2684360    -2.0097880     1.0741120
  H       -2.2907410    -1.1048270     0.4011470
  H        2.5001980    -0.8049050     0.8819700
  H       -2.0397460     1.5332780     1.3914430
units angstrom
no_reorient  #important for SAPT in psi4, default
symmetry c1  #important for SAPT in psi4, default
}

set PROPERTIES_ORIGIN ["COM"]
properties('MP2/aug-cc-pvtz', properties = ['dipole'])
--------------------------------------------------------------------------

    Molecular point group: c1
  Charge       = 0
  Multiplicity = 1
  Basis Set: AUG-CC-PVTZ
    Blend: AUG-CC-PVTZ
  Basis Set: (AUG-CC-PVTZ AUX)
    Blend: AUG-CC-PVTZ-JKFIT

    Orbital Energies [Eh]
    ---------------------

    Doubly Occupied:

       1A    -20.600987     2A    -20.577287     3A    -20.574667
       4A    -20.570100     5A    -20.557607     6A    -11.354874
       7A    -11.299227     8A    -11.290136     9A    -11.284839
      10A    -11.276604    11A     -1.448296    12A     -1.391764
      13A     -1.374635    14A     -1.358771    15A     -1.346853
      16A     -1.055633    17A     -1.017696    18A     -0.897873
      19A     -0.867895    20A     -0.801034    21A     -0.755767
      22A     -0.729138    23A     -0.711861    24A     -0.698360
      25A     -0.669049    26A     -0.648250    27A     -0.622509
      28A     -0.612420    29A     -0.602151    30A     -0.585849
      31A     -0.575265    32A     -0.555444    33A     -0.542932
      34A     -0.515280    35A     -0.500155    36A     -0.489472
      37A     -0.487050    38A     -0.470123    39A     -0.439323
      40A     -0.412941

  @DF-RHF Final Energy:  -569.67245583712702

   => Energetics <=

    Nuclear Repulsion Energy =            633.3844549981773753
    One-Electron Energy =               -2040.9735852258850173
    Two-Electron Energy =                 837.9166743905807380
    Total Energy =                       -569.6724558371270177
  Basis Set: (AUG-CC-PVTZ AUX)
    Blend: AUG-CC-PVTZ-RI
    Molecular point group: c1

    Geometry (in Angstrom), charge = 0, multiplicity = 1:

       Center              X                  Y                   Z               Mass
    ------------   -----------------  -----------------  -----------------  -----------------
         O           -0.234209208184     1.800631808298    -0.419569307809    15.994914619570
         O            0.479314791816    -1.387264191702     0.980077692191    15.994914619570
         O           -1.890079208184    -1.477080191702    -0.413009307809    15.994914619570
         O            2.749100791816    -0.296274191702     0.079316692191    15.994914619570
         O           -1.676450208184     0.687694808298     1.074655692191    15.994914619570
         C            0.476068791816    -0.984350191702    -0.388994307809    12.000000000000
         C           -0.915135208184    -0.513240191702    -0.816318307809    12.000000000000
         C            1.515029791816     0.123343808298    -0.486169307809    12.000000000000
         C           -1.293213108184     0.866782208298    -0.230040807809    12.000000000000
         C            0.991668791816     1.372098808298     0.207400692191    12.000000000000
         H            0.773417791816    -1.832226191702    -1.024994307809     1.007825032230
         H           -0.936605208184    -0.451177191702    -1.911305307809     1.007825032230
         H            1.706323791816     0.357859808298    -1.539341307809     1.007825032230
         H           -2.107398208184     1.297352808298    -0.859292307809     1.007825032230
         H            0.833548791816     1.176896808298     1.272643692191     1.007825032230
         H            1.691041791816     2.201075808298     0.088271692191     1.007825032230
         H           -0.268260208184    -2.006996191702     1.069063692191     1.007825032230
         H           -2.290565208184    -1.102035191702     0.396098692191     1.007825032230
         H            2.500373791816    -0.802113191702     0.876921692191     1.007825032230
         H           -2.039570208184     1.536069808298     1.386394692191     1.007825032230

  Basis Set: AUG-CC-PVTZ
    Blend: AUG-CC-PVTZ
  Basis Set: (AUG-CC-PVTZ AUX)
    Blend: AUG-CC-PVTZ-JKFIT
	 Reference Energy          =    -569.6724558371270177 [Eh]
	 Singles Energy            =      -0.0000000000000000 [Eh]
	 Same-Spin Energy          =      -0.5545941952871094 [Eh]
	 Opposite-Spin Energy      =      -1.7037975032258033 [Eh]
	 Correlation Energy        =      -2.2583916985129129 [Eh]
	 Total Energy              =    -571.9308475356399413 [Eh]

	 ================> DF-SCS-MP2 Energies <==================
	-----------------------------------------------------------
	 SCS Same-Spin Scale       =       0.3333333333333333 [-]
	 SCS Opposite-Spin Scale   =       1.2000000000000000 [-]
	 SCS Same-Spin Energy      =      -0.1848647317623698 [Eh]
	 SCS Opposite-Spin Energy  =      -2.0445570038709637 [Eh]
	 SCS Correlation Energy    =      -2.2294217356333337 [Eh]
	 SCS Total Energy          =    -571.9018775727603270 [Eh]
	-----------------------------------------------------------

  Dipole Moment: [D]
     X:    -2.4448      Y:     0.9355      Z:     0.6048     Total:     2.6866

*** Psi4 exiting successfully. Buy a developer a beer!
