                               Psi4 1.3.2 release

  ==> Input File <==

--------------------------------------------------------------------------
#psi4
#
memory 32 gb

molecule  {
0 1
  O       -0.1147700    -1.8002930     0.4548730
  O        0.3584290     1.3939840    -1.0246780
  O       -1.9551560     1.3713260     0.4690830
  O        2.7148150     0.4505790    -0.2056670
  O       -1.6716310    -0.8002260    -0.9984850
  C        0.4315910     1.0135520     0.3497470
  C       -0.9149144     0.4599961     0.8204445
  C        1.5345100    -0.0288940     0.4204030
  C       -1.2151430    -0.9364420     0.3397180
  C        1.0549700    -1.3167000    -0.2286510
  H        0.7042560     1.8874530     0.9605880
  H       -0.8818830     0.4322700     1.9353370
  H        1.7837760    -0.2316310     1.4680400
  H       -1.9939520    -1.3968640     0.9617720
  H        0.8436020    -1.1475360    -1.2899680
  H        1.8059140    -2.1013880    -0.1265130
  H       -0.3930520     2.0121160    -1.0836700
  H       -2.3304505     0.9638697    -0.3390153
  H        2.3997000     0.9352960    -0.9928030
  H       -1.9956420    -1.6762600    -1.2784950
units angstrom
no_reorient  #important for SAPT in psi4, default
symmetry c1  #important for SAPT in psi4, default
}

set PROPERTIES_ORIGIN ["COM"]
properties('MP2/aug-cc-pvtz', properties = ['dipole'])
--------------------------------------------------------------------------

    Molecular point group: c1
  Charge       = 0
  Multiplicity = 1
  Basis Set: AUG-CC-PVTZ
    Blend: AUG-CC-PVTZ
  Basis Set: (AUG-CC-PVTZ AUX)
    Blend: AUG-CC-PVTZ-JKFIT

    Orbital Energies [Eh]
    ---------------------

    Doubly Occupied:

       1A    -20.592210     2A    -20.581568     3A    -20.575583
       4A    -20.570831     5A    -20.558337     6A    -11.353995
       7A    -11.298588     8A    -11.291457     9A    -11.285627
      10A    -11.278527    11A     -1.440301    12A     -1.391880
      13A     -1.376791    14A     -1.354746    15A     -1.347928
      16A     -1.059007    17A     -1.025082    18A     -0.901096
      19A     -0.868509    20A     -0.797672    21A     -0.753896
      22A     -0.727892    23A     -0.713466    24A     -0.694787
      25A     -0.669638    26A     -0.645563    27A     -0.621745
      28A     -0.615198    29A     -0.601951    30A     -0.584737
      31A     -0.571366    32A     -0.557787    33A     -0.542043
      34A     -0.515339    35A     -0.503500    36A     -0.492574
      37A     -0.487856    38A     -0.472319    39A     -0.439274
      40A     -0.417814

  @DF-RHF Final Energy:  -569.67305524438927

   => Energetics <=

    Nuclear Repulsion Energy =            634.2382613499429453
    One-Electron Energy =               -2042.6656727010763461
    Two-Electron Energy =                 838.7543561067440123
    Total Energy =                       -569.6730552443892748
  Basis Set: (AUG-CC-PVTZ AUX)
    Blend: AUG-CC-PVTZ-RI
    Molecular point group: c1

    Geometry (in Angstrom), charge = 0, multiplicity = 1:

       Center              X                  Y                   Z               Mass
    ------------   -----------------  -----------------  -----------------  -----------------
         O           -0.114399267722    -1.799065009595     0.456435469790    15.994914619570
         O            0.358799732278     1.395211990405    -1.023115530210    15.994914619570
         O           -1.954785267722     1.372553990405     0.470645469790    15.994914619570
         O            2.715185732278     0.451806990405    -0.204104530210    15.994914619570
         O           -1.671260267722    -0.798998009595    -0.996922530210    15.994914619570
         C            0.431961732278     1.014779990405     0.351309469790    12.000000000000
         C           -0.914543667722     0.461224090405     0.822006969790    12.000000000000
         C            1.534880732278    -0.027666009595     0.421965469790    12.000000000000
         C           -1.214772267722    -0.935214009595     0.341280469790    12.000000000000
         C            1.055340732278    -1.315472009595    -0.227088530210    12.000000000000
         H            0.704626732278     1.888680990405     0.962150469790     1.007825032230
         H           -0.881512267722     0.433497990405     1.936899469790     1.007825032230
         H            1.784146732278    -0.230403009595     1.469602469790     1.007825032230
         H           -1.993581267722    -1.395636009595     0.963334469790     1.007825032230
         H            0.843972732278    -1.146308009595    -1.288405530210     1.007825032230
         H            1.806284732278    -2.100160009595    -0.124950530210     1.007825032230
         H           -0.392681267722     2.013343990405    -1.082107530210     1.007825032230
         H           -2.330079767722     0.965097690405    -0.337452830210     1.007825032230
         H            2.400070732278     0.936523990405    -0.991240530210     1.007825032230
         H           -1.995271267722    -1.675032009595    -1.276932530210     1.007825032230

  Basis Set: AUG-CC-PVTZ
    Blend: AUG-CC-PVTZ
  Basis Set: (AUG-CC-PVTZ AUX)
    Blend: AUG-CC-PVTZ-JKFIT
	 Reference Energy          =    -569.6730552443892748 [Eh]
	 Singles Energy            =      -0.0000000000000000 [Eh]
	 Same-Spin Energy          =      -0.5549033810317505 [Eh]
	 Opposite-Spin Energy      =      -1.7043752319634700 [Eh]
	 Correlation Energy        =      -2.2592786129952205 [Eh]
	 Total Energy              =    -571.9323338573844921 [Eh]

	 ================> DF-SCS-MP2 Energies <==================
	-----------------------------------------------------------
	 SCS Same-Spin Scale       =       0.3333333333333333 [-]
	 SCS Opposite-Spin Scale   =       1.2000000000000000 [-]
	 SCS Same-Spin Energy      =      -0.1849677936772502 [Eh]
	 SCS Opposite-Spin Energy  =      -2.0452502783561637 [Eh]
	 SCS Correlation Energy    =      -2.2302180720334137 [Eh]
	 SCS Total Energy          =    -571.9032733164226556 [Eh]
	-----------------------------------------------------------

  Dipole Moment: [D]
     X:    -2.1677      Y:    -1.0200      Z:    -0.3167     Total:     2.4166

*** Psi4 exiting successfully. Buy a developer a beer!
