                               Psi4 1.3.2 release

  ==> Input File <==

--------------------------------------------------------------------------
#psi4
#
memory 32 gb

molecule  {
0 1
  O       -0.1147700    -1.8002930     0.4548730
  O        0.3584290     1.3939840    -1.0246780
  O       -1.9551560     1.3713260     0.4690830
  O        2.7148150     0.4505790    -0.2056670
  O       -1.6716310    -0.8002260    -0.9984850
  C        0.4315910     1.0135520     0.3497470
  C       -0.9093320     0.4742750     0.8400700
  C        1.5345100    -0.0288940     0.4204030
  C       -1.2151430    -0.9364420     0.3397180
  C        1.0549700    -1.3167000    -0.2286510
  H        0.7042560     1.8874530     0.9605880
  H       -0.8793795     0.4284389     2.0352322
  H        1.7837760    -0.2316310     1.4680400
  H       -1.9939520    -1.3968640     0.9617720
  H        0.8436020    -1.1475360    -1.2899680
  H        1.8059140    -2.1013880    -0.1265130
  H       -0.3930520     2.0121160    -1.0836700
  H       -2.3417080     0.9766970    -0.3400740
  H        2.3997000     0.9352960    -0.9928030
  H       -1.9956420    -1.6762600    -1.2784950
units angstrom
no_reorient  #important for SAPT in psi4, default
symmetry c1  #important for SAPT in psi4, default
}

set PROPERTIES_ORIGIN ["COM"]
properties('MP2/aug-cc-pvtz', properties = ['dipole'])
--------------------------------------------------------------------------

    Molecular point group: c1
  Charge       = 0
  Multiplicity = 1
  Basis Set: AUG-CC-PVTZ
    Blend: AUG-CC-PVTZ
  Basis Set: (AUG-CC-PVTZ AUX)
    Blend: AUG-CC-PVTZ-JKFIT

    Orbital Energies [Eh]
    ---------------------

    Doubly Occupied:

       1A    -20.592292     2A    -20.580799     3A    -20.576365
       4A    -20.572109     5A    -20.558382     6A    -11.354729
       7A    -11.310096     8A    -11.291977     9A    -11.285665
      10A    -11.278239    11A     -1.439180    12A     -1.392268
      13A     -1.376408    14A     -1.354448    15A     -1.348270
      16A     -1.057288    17A     -1.021393    18A     -0.898952
      19A     -0.866685    20A     -0.794963    21A     -0.751814
      22A     -0.727324    23A     -0.712048    24A     -0.696673
      25A     -0.668771    26A     -0.643429    27A     -0.621303
      28A     -0.614618    29A     -0.600783    30A     -0.583488
      31A     -0.570475    32A     -0.555861    33A     -0.542236
      34A     -0.512924    35A     -0.502983    36A     -0.491610
      37A     -0.485032    38A     -0.471647    39A     -0.439914
      40A     -0.416216

  @DF-RHF Final Energy:  -569.66778310772656

   => Energetics <=

    Nuclear Repulsion Energy =            633.2406084434884406
    One-Electron Energy =               -2040.6974644049098515
    Two-Electron Energy =                 837.7890728536947336
    Total Energy =                       -569.6677831077265637
  Basis Set: (AUG-CC-PVTZ AUX)
    Blend: AUG-CC-PVTZ-RI
    Molecular point group: c1

    Geometry (in Angstrom), charge = 0, multiplicity = 1:

       Center              X                  Y                   Z               Mass
    ------------   -----------------  -----------------  -----------------  -----------------
         O           -0.114786906544    -1.800267342157     0.454202150275    15.994914619570
         O            0.358412093456     1.394009657843    -1.025348849725    15.994914619570
         O           -1.955172906544     1.371351657843     0.468412150275    15.994914619570
         O            2.714798093456     0.450604657843    -0.206337849725    15.994914619570
         O           -1.671647906544    -0.800200342157    -0.999155849725    15.994914619570
         C            0.431574093456     1.013577657843     0.349076150275    12.000000000000
         C           -0.909348906544     0.474300657843     0.839399150275    12.000000000000
         C            1.534493093456    -0.028868342157     0.419732150275    12.000000000000
         C           -1.215159906544    -0.936416342157     0.339047150275    12.000000000000
         C            1.054953093456    -1.316674342157    -0.229321849725    12.000000000000
         H            0.704239093456     1.887478657843     0.959917150275     1.007825032230
         H           -0.879396406544     0.428464557843     2.034561350275     1.007825032230
         H            1.783759093456    -0.231605342157     1.467369150275     1.007825032230
         H           -1.993968906544    -1.396838342157     0.961101150275     1.007825032230
         H            0.843585093456    -1.147510342157    -1.290638849725     1.007825032230
         H            1.805897093456    -2.101362342157    -0.127183849725     1.007825032230
         H           -0.393068906544     2.012141657843    -1.084340849725     1.007825032230
         H           -2.341724906544     0.976722657843    -0.340744849725     1.007825032230
         H            2.399683093456     0.935321657843    -0.993473849725     1.007825032230
         H           -1.995658906544    -1.676234342157    -1.279165849725     1.007825032230

  Basis Set: AUG-CC-PVTZ
    Blend: AUG-CC-PVTZ
  Basis Set: (AUG-CC-PVTZ AUX)
    Blend: AUG-CC-PVTZ-JKFIT
	 Reference Energy          =    -569.6677831077265637 [Eh]
	 Singles Energy            =      -0.0000000000000000 [Eh]
	 Same-Spin Energy          =      -0.5547807545597232 [Eh]
	 Opposite-Spin Energy      =      -1.7048343607417464 [Eh]
	 Correlation Energy        =      -2.2596151153014699 [Eh]
	 Total Energy              =    -571.9273982230280353 [Eh]

	 ================> DF-SCS-MP2 Energies <==================
	-----------------------------------------------------------
	 SCS Same-Spin Scale       =       0.3333333333333333 [-]
	 SCS Opposite-Spin Scale   =       1.2000000000000000 [-]
	 SCS Same-Spin Energy      =      -0.1849269181865744 [Eh]
	 SCS Opposite-Spin Energy  =      -2.0458012328900956 [Eh]
	 SCS Correlation Energy    =      -2.2307281510766699 [Eh]
	 SCS Total Energy          =    -571.8985112588031825 [Eh]
	-----------------------------------------------------------

  Dipole Moment: [D]
     X:    -2.1982      Y:    -0.9797      Z:    -0.3522     Total:     2.4323

*** Psi4 exiting successfully. Buy a developer a beer!
