                               Psi4 1.3.2 release

  ==> Input File <==

--------------------------------------------------------------------------
#psi4
#
memory 32 gb

molecule  {
0 1
  O       -0.0881699    -1.8018764     0.4974303
  O        0.3584290     1.3939840    -1.0246780
  O       -1.9551560     1.3713260     0.4690830
  O        2.7148150     0.4505790    -0.2056670
  O       -1.6716310    -0.8002260    -0.9984850
  C        0.4315910     1.0135520     0.3497470
  C       -0.9093320     0.4742750     0.8400700
  C        1.5345100    -0.0288940     0.4204030
  C       -1.2151430    -0.9364420     0.3397180
  C        1.0549700    -1.3167000    -0.2286510
  H        0.7042560     1.8874530     0.9605880
  H       -0.8818830     0.4322700     1.9353370
  H        1.7837760    -0.2316310     1.4680400
  H       -1.9939520    -1.3968640     0.9617720
  H        0.8797900    -1.1361359    -1.2946694
  H        1.8059140    -2.1013880    -0.1265130
  H       -0.3930520     2.0121160    -1.0836700
  H       -2.3417080     0.9766970    -0.3400740
  H        2.3997000     0.9352960    -0.9928030
  H       -1.9956420    -1.6762600    -1.2784950
units angstrom
no_reorient  #important for SAPT in psi4, default
symmetry c1  #important for SAPT in psi4, default
}

set PROPERTIES_ORIGIN ["COM"]
properties('MP2/aug-cc-pvtz', properties = ['dipole'])
--------------------------------------------------------------------------

    Molecular point group: c1
  Charge       = 0
  Multiplicity = 1
  Basis Set: AUG-CC-PVTZ
    Blend: AUG-CC-PVTZ
  Basis Set: (AUG-CC-PVTZ AUX)
    Blend: AUG-CC-PVTZ-JKFIT

    Orbital Energies [Eh]
    ---------------------

    Doubly Occupied:

       1A    -20.595877     2A    -20.582895     3A    -20.574983
       4A    -20.571224     5A    -20.557177     6A    -11.356408
       7A    -11.298790     8A    -11.290735     9A    -11.283999
      10A    -11.277012    11A     -1.435164    12A     -1.390814
      13A     -1.375193    14A     -1.354878    15A     -1.347225
      16A     -1.058415    17A     -1.021326    18A     -0.899477
      19A     -0.867505    20A     -0.798343    21A     -0.753494
      22A     -0.727786    23A     -0.709028    24A     -0.695881
      25A     -0.669278    26A     -0.645986    27A     -0.621634
      28A     -0.612363    29A     -0.602216    30A     -0.583427
      31A     -0.570910    32A     -0.555279    33A     -0.542258
      34A     -0.516422    35A     -0.503146    36A     -0.491739
      37A     -0.488633    38A     -0.472918    39A     -0.440384
      40A     -0.415049

  @DF-RHF Final Energy:  -569.67159120011036

   => Energetics <=

    Nuclear Repulsion Energy =            633.1558298076164419
    One-Electron Energy =               -2040.5442974404929828
    Two-Electron Energy =                 837.7168764327662984
    Total Energy =                       -569.6715912001103561
  Basis Set: (AUG-CC-PVTZ AUX)
    Blend: AUG-CC-PVTZ-RI
    Molecular point group: c1

    Geometry (in Angstrom), charge = 0, multiplicity = 1:

       Center              X                  Y                   Z               Mass
    ------------   -----------------  -----------------  -----------------  -----------------
         O           -0.091248491091    -1.801784259148     0.492925565013    15.994914619570
         O            0.355350408909     1.394076140852    -1.029182734987    15.994914619570
         O           -1.958234591091     1.371418140852     0.464578265013    15.994914619570
         O            2.711736408909     0.450671140852    -0.210171734987    15.994914619570
         O           -1.674709591091    -0.800133859148    -1.002989734987    15.994914619570
         C            0.428512408909     1.013644140852     0.345242265013    12.000000000000
         C           -0.912410591091     0.474367140852     0.835565265013    12.000000000000
         C            1.531431408909    -0.028801859148     0.415898265013    12.000000000000
         C           -1.218221591091    -0.936349859148     0.335213265013    12.000000000000
         C            1.051891408909    -1.316607859148    -0.233155734987    12.000000000000
         H            0.701177408909     1.887545140852     0.956083265013     1.007825032230
         H           -0.884961591091     0.432362140852     1.930832265013     1.007825032230
         H            1.780697408909    -0.231538859148     1.463535265013     1.007825032230
         H           -1.997030591091    -1.396771859148     0.957267265013     1.007825032230
         H            0.876711408909    -1.136043759148    -1.299174134987     1.007825032230
         H            1.802835408909    -2.101295859148    -0.131017734987     1.007825032230
         H           -0.396130591091     2.012208140852    -1.088174734987     1.007825032230
         H           -2.344786591091     0.976789140852    -0.344578734987     1.007825032230
         H            2.396621408909     0.935388140852    -0.997307734987     1.007825032230
         H           -1.998720591091    -1.676167859148    -1.282999734987     1.007825032230

  Basis Set: AUG-CC-PVTZ
    Blend: AUG-CC-PVTZ
  Basis Set: (AUG-CC-PVTZ AUX)
    Blend: AUG-CC-PVTZ-JKFIT
	 Reference Energy          =    -569.6715912001103561 [Eh]
	 Singles Energy            =      -0.0000000000000000 [Eh]
	 Same-Spin Energy          =      -0.5549613499111413 [Eh]
	 Opposite-Spin Energy      =      -1.7050299940941542 [Eh]
	 Correlation Energy        =      -2.2599913440052957 [Eh]
	 Total Energy              =    -571.9315825441155994 [Eh]

	 ================> DF-SCS-MP2 Energies <==================
	-----------------------------------------------------------
	 SCS Same-Spin Scale       =       0.3333333333333333 [-]
	 SCS Opposite-Spin Scale   =       1.2000000000000000 [-]
	 SCS Same-Spin Energy      =      -0.1849871166370471 [Eh]
	 SCS Opposite-Spin Energy  =      -2.0460359929129850 [Eh]
	 SCS Correlation Energy    =      -2.2310231095500321 [Eh]
	 SCS Total Energy          =    -571.9026143096604073 [Eh]
	-----------------------------------------------------------

  Dipole Moment: [D]
     X:    -2.3014      Y:    -0.9892      Z:    -0.3936     Total:     2.5357

*** Psi4 exiting successfully. Buy a developer a beer!
