                               Psi4 1.3.2 release

  ==> Input File <==

--------------------------------------------------------------------------
#psi4
#
memory 32 gb

molecule  {
0 1
  O       -0.1147700    -1.8002930     0.4548730
  O        0.3584290     1.3939840    -1.0246780
  O       -1.9551560     1.3713260     0.4690830
  O        2.7148150     0.4505790    -0.2056670
  O       -1.6716310    -0.8002260    -0.9984850
  C        0.4315910     1.0135520     0.3497470
  C       -0.9093320     0.4742750     0.8400700
  C        1.5345100    -0.0288940     0.4204030
  C       -1.2151430    -0.9364420     0.3397180
  C        1.0549700    -1.3167000    -0.2286510
  H        0.7042560     1.8874530     0.9605880
  H       -0.8818830     0.4322700     1.9353370
  H        1.7837760    -0.2316310     1.4680400
  H       -1.9939520    -1.3968640     0.9617720
  H        0.8436020    -1.1475360    -1.2899680
  H        1.8059140    -2.1013880    -0.1265130
  H       -0.3930520     2.0121160    -1.0836700
  H       -2.3022534     1.0169760    -0.2574850
  H        2.3997000     0.9352960    -0.9928030
  H       -1.9956420    -1.6762600    -1.2784950
units angstrom
no_reorient  #important for SAPT in psi4, default
symmetry c1  #important for SAPT in psi4, default
}

set PROPERTIES_ORIGIN ["COM"]
properties('MP2/aug-cc-pvtz', properties = ['dipole'])
--------------------------------------------------------------------------

    Molecular point group: c1
  Charge       = 0
  Multiplicity = 1
  Basis Set: AUG-CC-PVTZ
    Blend: AUG-CC-PVTZ
  Basis Set: (AUG-CC-PVTZ AUX)
    Blend: AUG-CC-PVTZ-JKFIT

    Orbital Energies [Eh]
    ---------------------

    Doubly Occupied:

       1A    -20.589799     2A    -20.580915     3A    -20.572042
       4A    -20.567985     5A    -20.558710     6A    -11.354149
       7A    -11.299977     8A    -11.292008     9A    -11.286190
      10A    -11.278348    11A     -1.440923    12A     -1.403181
      13A     -1.384238    14A     -1.356497    15A     -1.349609
      16A     -1.062501    17A     -1.025037    18A     -0.899296
      19A     -0.875747    20A     -0.801681    21A     -0.753757
      22A     -0.728378    23A     -0.714199    24A     -0.705539
      25A     -0.670786    26A     -0.650113    27A     -0.620920
      28A     -0.615589    29A     -0.604754    30A     -0.586573
      31A     -0.575619    32A     -0.557248    33A     -0.544513
      34A     -0.518147    35A     -0.501985    36A     -0.492265
      37A     -0.489590    38A     -0.471933    39A     -0.442607
      40A     -0.416651

  @DF-RHF Final Energy:  -569.67073483937850

   => Energetics <=

    Nuclear Repulsion Energy =            634.3929182828783269
    One-Electron Energy =               -2042.8473083706121542
    Two-Electron Energy =                 838.7836552483553305
    Total Energy =                       -569.6707348393784969
  Basis Set: (AUG-CC-PVTZ AUX)
    Blend: AUG-CC-PVTZ-RI
    Molecular point group: c1

    Geometry (in Angstrom), charge = 0, multiplicity = 1:

       Center              X                  Y                   Z               Mass
    ------------   -----------------  -----------------  -----------------  -----------------
         O           -0.115035087436    -1.800563606245     0.454318386819    15.994914619570
         O            0.358163912564     1.393713393755    -1.025232613181    15.994914619570
         O           -1.955421087436     1.371055393755     0.468528386819    15.994914619570
         O            2.714549912564     0.450308393755    -0.206221613181    15.994914619570
         O           -1.671896087436    -0.800496606245    -0.999039613181    15.994914619570
         C            0.431325912564     1.013281393755     0.349192386819    12.000000000000
         C           -0.909597087436     0.474004393755     0.839515386819    12.000000000000
         C            1.534244912564    -0.029164606245     0.419848386819    12.000000000000
         C           -1.215408087436    -0.936712606245     0.339163386819    12.000000000000
         C            1.054704912564    -1.316970606245    -0.229205613181    12.000000000000
         H            0.703990912564     1.887182393755     0.960033386819     1.007825032230
         H           -0.882148087436     0.431999393755     1.934782386819     1.007825032230
         H            1.783510912564    -0.231901606245     1.467485386819     1.007825032230
         H           -1.994217087436    -1.397134606245     0.961217386819     1.007825032230
         H            0.843336912564    -1.147806606245    -1.290522613181     1.007825032230
         H            1.805648912564    -2.101658606245    -0.127067613181     1.007825032230
         H           -0.393317087436     2.011845393755    -1.084224613181     1.007825032230
         H           -2.302518487436     1.016705393755    -0.258039613181     1.007825032230
         H            2.399434912564     0.935025393755    -0.993357613181     1.007825032230
         H           -1.995907087436    -1.676530606245    -1.279049613181     1.007825032230

  Basis Set: AUG-CC-PVTZ
    Blend: AUG-CC-PVTZ
  Basis Set: (AUG-CC-PVTZ AUX)
    Blend: AUG-CC-PVTZ-JKFIT
	 Reference Energy          =    -569.6707348393784969 [Eh]
	 Singles Energy            =      -0.0000000000000000 [Eh]
	 Same-Spin Energy          =      -0.5531924836581941 [Eh]
	 Opposite-Spin Energy      =      -1.7008896906324740 [Eh]
	 Correlation Energy        =      -2.2540821742906680 [Eh]
	 Total Energy              =    -571.9248170136692124 [Eh]

	 ================> DF-SCS-MP2 Energies <==================
	-----------------------------------------------------------
	 SCS Same-Spin Scale       =       0.3333333333333333 [-]
	 SCS Opposite-Spin Scale   =       1.2000000000000000 [-]
	 SCS Same-Spin Energy      =      -0.1843974945527314 [Eh]
	 SCS Opposite-Spin Energy  =      -2.0410676287589689 [Eh]
	 SCS Correlation Energy    =      -2.2254651233117002 [Eh]
	 SCS Total Energy          =    -571.8961999626901616 [Eh]
	-----------------------------------------------------------

  Dipole Moment: [D]
     X:    -2.1168      Y:    -0.9335      Z:    -0.2017     Total:     2.3223

*** Psi4 exiting successfully. Buy a developer a beer!
