                               Psi4 1.3.2 release

  ==> Input File <==

--------------------------------------------------------------------------
#psi4
#
memory 32 gb

molecule  {
0 1
  O       -0.1147700    -1.8002930     0.4548730
  O        0.3584290     1.3939840    -1.0246780
  O       -1.9551560     1.3713260     0.4690830
  O        2.7386082     0.4458610    -0.1624632
  O       -1.6716310    -0.8002260    -0.9984850
  C        0.4315910     1.0135520     0.3497470
  C       -0.9093320     0.4742750     0.8400700
  C        1.5345100    -0.0288940     0.4204030
  C       -1.2151430    -0.9364420     0.3397180
  C        1.0549700    -1.3167000    -0.2286510
  H        0.7042560     1.8874530     0.9605880
  H       -0.8818830     0.4322700     1.9353370
  H        1.8195900    -0.2201728     1.4610379
  H       -1.9939520    -1.3968640     0.9617720
  H        0.8436020    -1.1475360    -1.2899680
  H        1.8059140    -2.1013880    -0.1265130
  H       -0.3930520     2.0121160    -1.0836700
  H       -2.3417080     0.9766970    -0.3400740
  H        2.3997000     0.9352960    -0.9928030
  H       -1.9956420    -1.6762600    -1.2784950
units angstrom
no_reorient  #important for SAPT in psi4, default
symmetry c1  #important for SAPT in psi4, default
}

set PROPERTIES_ORIGIN ["COM"]
properties('MP2/aug-cc-pvtz', properties = ['dipole'])
--------------------------------------------------------------------------

    Molecular point group: c1
  Charge       = 0
  Multiplicity = 1
  Basis Set: AUG-CC-PVTZ
    Blend: AUG-CC-PVTZ
  Basis Set: (AUG-CC-PVTZ AUX)
    Blend: AUG-CC-PVTZ-JKFIT

    Orbital Energies [Eh]
    ---------------------

    Doubly Occupied:

       1A    -20.591881     2A    -20.581129     3A    -20.574966
       4A    -20.572269     5A    -20.562451     6A    -11.354110
       7A    -11.298700     8A    -11.291574     9A    -11.284479
      10A    -11.278732    11A     -1.438962    12A     -1.391011
      13A     -1.374205    14A     -1.353794    15A     -1.343996
      16A     -1.057928    17A     -1.022288    18A     -0.898856
      19A     -0.868356    20A     -0.797184    21A     -0.752696
      22A     -0.727567    23A     -0.711951    24A     -0.695706
      25A     -0.666566    26A     -0.642063    27A     -0.621648
      28A     -0.614447    29A     -0.603049    30A     -0.580822
      31A     -0.572473    32A     -0.555967    33A     -0.542084
      34A     -0.515521    35A     -0.502843    36A     -0.491642
      37A     -0.487749    38A     -0.471860    39A     -0.440660
      40A     -0.416083

  @DF-RHF Final Energy:  -569.66893711694286

   => Energetics <=

    Nuclear Repulsion Energy =            633.1483640965604991
    One-Electron Energy =               -2040.5340679527128032
    Two-Electron Energy =                 837.7167667392094472
    Total Energy =                       -569.6689371169428568
  Basis Set: (AUG-CC-PVTZ AUX)
    Blend: AUG-CC-PVTZ-RI
    Molecular point group: c1

    Geometry (in Angstrom), charge = 0, multiplicity = 1:

       Center              X                  Y                   Z               Mass
    ------------   -----------------  -----------------  -----------------  -----------------
         O           -0.117546876992    -1.799867115980     0.450314803778    15.994914619570
         O            0.355652123008     1.394409884020    -1.029236196222    15.994914619570
         O           -1.957932876992     1.371751884020     0.464524803778    15.994914619570
         O            2.735831323008     0.446286884020    -0.167021396222    15.994914619570
         O           -1.674407876992    -0.799800115980    -1.003043196222    15.994914619570
         C            0.428814123008     1.013977884020     0.345188803778    12.000000000000
         C           -0.912108876992     0.474700884020     0.835511803778    12.000000000000
         C            1.531733123008    -0.028468115980     0.415844803778    12.000000000000
         C           -1.217919876992    -0.936016115980     0.335159803778    12.000000000000
         C            1.052193123008    -1.316274115980    -0.233209196222    12.000000000000
         H            0.701479123008     1.887878884020     0.956029803778     1.007825032230
         H           -0.884659876992     0.432695884020     1.930778803778     1.007825032230
         H            1.816813123008    -0.219746915980     1.456479703778     1.007825032230
         H           -1.996728876992    -1.396438115980     0.957213803778     1.007825032230
         H            0.840825123008    -1.147110115980    -1.294526196222     1.007825032230
         H            1.803137123008    -2.100962115980    -0.131071196222     1.007825032230
         H           -0.395828876992     2.012541884020    -1.088228196222     1.007825032230
         H           -2.344484876992     0.977122884020    -0.344632196222     1.007825032230
         H            2.396923123008     0.935721884020    -0.997361196222     1.007825032230
         H           -1.998418876992    -1.675834115980    -1.283053196222     1.007825032230

  Basis Set: AUG-CC-PVTZ
    Blend: AUG-CC-PVTZ
  Basis Set: (AUG-CC-PVTZ AUX)
    Blend: AUG-CC-PVTZ-JKFIT
	 Reference Energy          =    -569.6689371169428568 [Eh]
	 Singles Energy            =      -0.0000000000000000 [Eh]
	 Same-Spin Energy          =      -0.5553123473808426 [Eh]
	 Opposite-Spin Energy      =      -1.7056618775186063 [Eh]
	 Correlation Energy        =      -2.2609742248994489 [Eh]
	 Total Energy              =    -571.9299113418422849 [Eh]

	 ================> DF-SCS-MP2 Energies <==================
	-----------------------------------------------------------
	 SCS Same-Spin Scale       =       0.3333333333333333 [-]
	 SCS Opposite-Spin Scale   =       1.2000000000000000 [-]
	 SCS Same-Spin Energy      =      -0.1851041157936142 [Eh]
	 SCS Opposite-Spin Energy  =      -2.0467942530223273 [Eh]
	 SCS Correlation Energy    =      -2.2318983688159415 [Eh]
	 SCS Total Energy          =    -571.9008354857587619 [Eh]
	-----------------------------------------------------------

  Dipole Moment: [D]
     X:    -2.2177      Y:    -0.9895      Z:    -0.3683     Total:     2.4562

*** Psi4 exiting successfully. Buy a developer a beer!
