                               Psi4 1.4a3.dev225

  ==> Input File <==

--------------------------------------------------------------------------
#psi4
#
memory 32 gb

molecule  {
0 1
  O       -0.2343850     1.7978400    -0.4145210
  O        0.4791390    -1.3900560     0.9851260
  O       -1.8902550    -1.4798720    -0.4079610
  O        2.7489250    -0.2990660     0.0843650
  O       -1.6766260     0.6849030     1.0797040
  C        0.4758930    -0.9871420    -0.3839460
  C       -0.9607839    -0.5006333    -0.8252375
  C        1.5148540     0.1205520    -0.4811210
  C       -1.2794180     0.8705190    -0.2725550
  C        0.9914930     1.3693070     0.2124490
  H        0.7732420    -1.8350180    -1.0199460
  H       -0.9367810    -0.4539690    -1.9062570
  H        1.7061480     0.3550680    -1.5342930
  H       -2.1075740     1.2945610    -0.8542440
  H        0.8333730     1.1741050     1.2776920
  H        1.6908660     2.1982840     0.0933200
  H       -0.2684360    -2.0097880     1.0741120
  H       -2.2907410    -1.1048270     0.4011470
  H        2.5001980    -0.8049050     0.8819700
  H       -2.0397460     1.5332780     1.3914430
units angstrom
no_reorient  #important for SAPT in psi4, default
symmetry c1  #important for SAPT in psi4, default
}

set PROPERTIES_ORIGIN ["COM"]
properties('MP2/aug-cc-pvtz', properties = ['dipole'])
--------------------------------------------------------------------------

    Molecular point group: c1
  Charge       = 0
  Multiplicity = 1
  Basis Set: AUG-CC-PVTZ
    Blend: AUG-CC-PVTZ
  Basis Set: (AUG-CC-PVTZ AUX)
    Blend: AUG-CC-PVTZ-JKFIT

    Orbital Energies [Eh]
    ---------------------

    Doubly Occupied:

       1A    -20.592644     2A    -20.581958     3A    -20.577575
       4A    -20.569295     5A    -20.557530     6A    -11.353996
       7A    -11.299307     8A    -11.291213     9A    -11.284786
      10A    -11.278293    11A     -1.439004    12A     -1.391600
      13A     -1.377947    14A     -1.355266    15A     -1.346982
      16A     -1.051733    17A     -1.024694    18A     -0.898840
      19A     -0.868205    20A     -0.798759    21A     -0.752729
      22A     -0.725178    23A     -0.713827    24A     -0.696447
      25A     -0.665794    26A     -0.648017    27A     -0.620728
      28A     -0.614850    29A     -0.601779    30A     -0.586130
      31A     -0.572670    32A     -0.558016    33A     -0.543308
      34A     -0.517822    35A     -0.503777    36A     -0.491537
      37A     -0.488375    38A     -0.470738    39A     -0.432027
      40A     -0.414974

  @DF-RHF Final Energy:  -569.67265860280258

   => Energetics <=

    Nuclear Repulsion Energy =            632.7222914879604332
    One-Electron Energy =               -2039.6731990275068256
    Two-Electron Energy =                 837.2782489367436938
    Total Energy =                       -569.6726586028025849
  Basis Set: (AUG-CC-PVTZ AUX)
    Blend: AUG-CC-PVTZ-RI
    Molecular point group: c1

    Geometry (in Angstrom), charge = 0, multiplicity = 1:

       Center              X                  Y                   Z               Mass
    ------------   -----------------  -----------------  -----------------  -----------------
         O           -0.231689935361     1.798878241827    -0.414648640652    15.994914619570
         O            0.481834064639    -1.389017758173     0.984998359348    15.994914619570
         O           -1.887559935361    -1.478833758173    -0.408088640652    15.994914619570
         O            2.751620064639    -0.298027758173     0.084237359348    15.994914619570
         O           -1.673930935361     0.685941241827     1.079576359348    15.994914619570
         C            0.478588064639    -0.986103758173    -0.384073640652    12.000000000000
         C           -0.958088835361    -0.499595058173    -0.825365140652    12.000000000000
         C            1.517549064639     0.121590241827    -0.481248640652    12.000000000000
         C           -1.276722935361     0.871557241827    -0.272682640652    12.000000000000
         C            0.994188064639     1.370345241827     0.212321359348    12.000000000000
         H            0.775937064639    -1.833979758173    -1.020073640652     1.007825032230
         H           -0.934085935361    -0.452930758173    -1.906384640652     1.007825032230
         H            1.708843064639     0.356106241827    -1.534420640652     1.007825032230
         H           -2.104878935361     1.295599241827    -0.854371640652     1.007825032230
         H            0.836068064639     1.175143241827     1.277564359348     1.007825032230
         H            1.693561064639     2.199322241827     0.093192359348     1.007825032230
         H           -0.265740935361    -2.008749758173     1.073984359348     1.007825032230
         H           -2.288045935361    -1.103788758173     0.401019359348     1.007825032230
         H            2.502893064639    -0.803866758173     0.881842359348     1.007825032230
         H           -2.037050935361     1.534316241827     1.391315359348     1.007825032230

  Basis Set: AUG-CC-PVTZ
    Blend: AUG-CC-PVTZ
  Basis Set: (AUG-CC-PVTZ AUX)
    Blend: AUG-CC-PVTZ-JKFIT
	 Reference Energy          =    -569.6726586028025849 [Eh]
	 Singles Energy            =      -0.0000000000000000 [Eh]
	 Same-Spin Energy          =      -0.5544637176638076 [Eh]
	 Opposite-Spin Energy      =      -1.7037884222819915 [Eh]
	 Correlation Energy        =      -2.2582521399457991 [Eh]
	 Total Energy              =    -571.9309107427484378 [Eh]

	 ================> DF-SCS-MP2 Energies <==================
	-----------------------------------------------------------
	 SCS Same-Spin Scale       =       0.3333333333333333 [-]
	 SCS Opposite-Spin Scale   =       1.2000000000000000 [-]
	 SCS Same-Spin Energy      =      -0.1848212392212692 [Eh]
	 SCS Opposite-Spin Energy  =      -2.0445461067383897 [Eh]
	 SCS Correlation Energy    =      -2.2293673459596590 [Eh]
	 SCS Total Energy          =    -571.9020259487622297 [Eh]
	-----------------------------------------------------------

  Dipole Moment: [D]
     X:    -2.3879      Y:     0.9339      Z:     0.3943     Total:     2.5941

*** Psi4 exiting successfully. Buy a developer a beer!
