                               Psi4 1.3.2 release

  ==> Input File <==

--------------------------------------------------------------------------
#psi4
#
memory 32 gb

molecule  {
0 1
  O       -0.1147700    -1.8002930     0.4548730
  O        0.3584290     1.3939840    -1.0246780
  O       -1.9551560     1.3713260     0.4690830
  O        2.7148150     0.4505790    -0.2056670
  O       -1.6716310    -0.8002260    -0.9984850
  C        0.4315910     1.0135520     0.3497470
  C       -0.9036397     0.4624780     0.8424813
  C        1.5258320    -0.0376620     0.4252596
  C       -1.2151430    -0.9364420     0.3397180
  C        1.0549700    -1.3167000    -0.2286510
  H        0.7042560     1.8874530     0.9605880
  H       -0.8818830     0.4322700     1.9353370
  H        1.7837760    -0.2316310     1.4680400
  H       -1.9939520    -1.3968640     0.9617720
  H        0.8436020    -1.1475360    -1.2899680
  H        1.8059140    -2.1013880    -0.1265130
  H       -0.3930520     2.0121160    -1.0836700
  H       -2.3417080     0.9766970    -0.3400740
  H        2.3997000     0.9352960    -0.9928030
  H       -1.9956420    -1.6762600    -1.2784950
units angstrom
no_reorient  #important for SAPT in psi4, default
symmetry c1  #important for SAPT in psi4, default
}

set PROPERTIES_ORIGIN ["COM"]
properties('MP2/aug-cc-pvtz', properties = ['dipole'])
--------------------------------------------------------------------------

    Molecular point group: c1
  Charge       = 0
  Multiplicity = 1
  Basis Set: AUG-CC-PVTZ
    Blend: AUG-CC-PVTZ
  Basis Set: (AUG-CC-PVTZ AUX)
    Blend: AUG-CC-PVTZ-JKFIT

    Orbital Energies [Eh]
    ---------------------

    Doubly Occupied:

       1A    -20.592047     2A    -20.580972     3A    -20.573468
       4A    -20.571513     5A    -20.556886     6A    -11.354264
       7A    -11.298345     8A    -11.291894     9A    -11.285575
      10A    -11.278694    11A     -1.439188    12A     -1.389936
      13A     -1.372981    14A     -1.352885    15A     -1.344512
      16A     -1.061026    17A     -1.025479    18A     -0.900258
      19A     -0.869538    20A     -0.798224    21A     -0.752525
      22A     -0.728135    23A     -0.712232    24A     -0.693954
      25A     -0.668509    26A     -0.645631    27A     -0.621150
      28A     -0.614438    29A     -0.601813    30A     -0.583492
      31A     -0.571013    32A     -0.555392    33A     -0.542060
      34A     -0.516687    35A     -0.502841    36A     -0.491397
      37A     -0.488182    38A     -0.472689    39A     -0.440583
      40A     -0.418497

  @DF-RHF Final Energy:  -569.67372364809785

   => Energetics <=

    Nuclear Repulsion Energy =            633.8938078144439032
    One-Electron Energy =               -2042.0172500255882824
    Two-Electron Energy =                 838.4497185630464173
    Total Energy =                       -569.6737236480978481
  Basis Set: (AUG-CC-PVTZ AUX)
    Blend: AUG-CC-PVTZ-RI
    Molecular point group: c1

    Geometry (in Angstrom), charge = 0, multiplicity = 1:

       Center              X                  Y                   Z               Mass
    ------------   -----------------  -----------------  -----------------  -----------------
         O           -0.114531319951    -1.798648452782     0.454291865902    15.994914619570
         O            0.358667680049     1.395628547218    -1.025259134098    15.994914619570
         O           -1.954917319951     1.372970547218     0.468501865902    15.994914619570
         O            2.715053680049     0.452223547218    -0.206248134098    15.994914619570
         O           -1.671392319951    -0.798581452782    -0.999066134098    15.994914619570
         C            0.431829680049     1.015196547218     0.349165865902    12.000000000000
         C           -0.903401019951     0.464122547218     0.841900165902    12.000000000000
         C            1.526070680049    -0.036017452782     0.424678465902    12.000000000000
         C           -1.214904319951    -0.934797452782     0.339136865902    12.000000000000
         C            1.055208680049    -1.315055452782    -0.229232134098    12.000000000000
         H            0.704494680049     1.889097547218     0.960006865902     1.007825032230
         H           -0.881644319951     0.433914547218     1.934755865902     1.007825032230
         H            1.784014680049    -0.229986452782     1.467458865902     1.007825032230
         H           -1.993713319951    -1.395219452782     0.961190865902     1.007825032230
         H            0.843840680049    -1.145891452782    -1.290549134098     1.007825032230
         H            1.806152680049    -2.099743452782    -0.127094134098     1.007825032230
         H           -0.392813319951     2.013760547218    -1.084251134098     1.007825032230
         H           -2.341469319951     0.978341547218    -0.340655134098     1.007825032230
         H            2.399938680049     0.936940547218    -0.993384134098     1.007825032230
         H           -1.995403319951    -1.674615452782    -1.279076134098     1.007825032230

  Basis Set: AUG-CC-PVTZ
    Blend: AUG-CC-PVTZ
  Basis Set: (AUG-CC-PVTZ AUX)
    Blend: AUG-CC-PVTZ-JKFIT
	 Reference Energy          =    -569.6737236480978481 [Eh]
	 Singles Energy            =      -0.0000000000000000 [Eh]
	 Same-Spin Energy          =      -0.5547240718164119 [Eh]
	 Opposite-Spin Energy      =      -1.7043380542255682 [Eh]
	 Correlation Energy        =      -2.2590621260419801 [Eh]
	 Total Energy              =    -571.9327857741398020 [Eh]

	 ================> DF-SCS-MP2 Energies <==================
	-----------------------------------------------------------
	 SCS Same-Spin Scale       =       0.3333333333333333 [-]
	 SCS Opposite-Spin Scale   =       1.2000000000000000 [-]
	 SCS Same-Spin Energy      =      -0.1849080239388040 [Eh]
	 SCS Opposite-Spin Energy  =      -2.0452056650706818 [Eh]
	 SCS Correlation Energy    =      -2.2301136890094857 [Eh]
	 SCS Total Energy          =    -571.9038373371073476 [Eh]
	-----------------------------------------------------------

  Dipole Moment: [D]
     X:    -2.1891      Y:    -1.0378      Z:    -0.2758     Total:     2.4383

*** Psi4 exiting successfully. Buy a developer a beer!
