                               Psi4 1.3.2 release

  ==> Input File <==

--------------------------------------------------------------------------
#psi4
#
memory 32 gb

molecule  {
0 1
  O       -0.1147700    -1.8002930     0.4548730
  O        0.3584290     1.3939840    -1.0246780
  O       -1.9551560     1.3713260     0.4690830
  O        2.7148150     0.4505790    -0.2056670
  O       -1.6716310    -0.8002260    -0.9984850
  C        0.4315910     1.0135520     0.3497470
  C       -0.9093320     0.4742750     0.8400700
  C        1.5345100    -0.0288940     0.4204030
  C       -1.2151430    -0.9364420     0.3397180
  C        1.0549700    -1.3167000    -0.2286510
  H        0.7042560     1.8874530     0.9605880
  H       -0.8818830     0.4322700     1.9353370
  H        1.7837760    -0.2316310     1.4680400
  H       -1.9939520    -1.3968640     0.9617720
  H        0.8436020    -1.1475360    -1.2899680
  H        1.8059140    -2.1013880    -0.1265130
  H       -0.3930520     2.0121160    -1.0836700
  H       -2.4206171     0.8961391    -0.5052520
  H        2.3997000     0.9352960    -0.9928030
  H       -1.9956420    -1.6762600    -1.2784950
units angstrom
no_reorient  #important for SAPT in psi4, default
symmetry c1  #important for SAPT in psi4, default
}

set PROPERTIES_ORIGIN ["COM"]
properties('MP2/aug-cc-pvtz', properties = ['dipole'])
--------------------------------------------------------------------------

    Molecular point group: c1
  Charge       = 0
  Multiplicity = 1
  Basis Set: AUG-CC-PVTZ
    Blend: AUG-CC-PVTZ
  Basis Set: (AUG-CC-PVTZ AUX)
    Blend: AUG-CC-PVTZ-JKFIT

    Orbital Energies [Eh]
    ---------------------

    Doubly Occupied:

       1A    -20.596606     2A    -20.580821     3A    -20.580046
       4A    -20.569373     5A    -20.557383     6A    -11.353797
       7A    -11.295100     8A    -11.289035     9A    -11.284610
      10A    -11.277955    11A     -1.439056    12A     -1.387387
      13A     -1.366710    14A     -1.350396    15A     -1.329769
      16A     -1.054295    17A     -1.019835    18A     -0.897838
      19A     -0.862632    20A     -0.794074    21A     -0.751369
      22A     -0.726840    23A     -0.710979    24A     -0.679545
      25A     -0.667599    26A     -0.638474    27A     -0.620864
      28A     -0.610836    29A     -0.598952    30A     -0.581473
      31A     -0.563422    32A     -0.549352    33A     -0.538690
      34A     -0.513773    35A     -0.503217    36A     -0.488785
      37A     -0.480520    38A     -0.471048    39A     -0.436420
      40A     -0.414082

  @DF-RHF Final Energy:  -569.63912574272717

   => Energetics <=

    Nuclear Repulsion Energy =            632.9219826487269529
    One-Electron Energy =               -2040.2563030836658982
    Two-Electron Energy =                 837.6951946922117713
    Total Energy =                       -569.6391257427271739
  Basis Set: (AUG-CC-PVTZ AUX)
    Blend: AUG-CC-PVTZ-RI
    Molecular point group: c1

    Geometry (in Angstrom), charge = 0, multiplicity = 1:

       Center              X                  Y                   Z               Mass
    ------------   -----------------  -----------------  -----------------  -----------------
         O           -0.114240101397    -1.799752009037     0.455982506021    15.994914619570
         O            0.358958898603     1.394524990963    -1.023568493979    15.994914619570
         O           -1.954626101397     1.371866990963     0.470192506021    15.994914619570
         O            2.715344898603     0.451119990963    -0.204557493979    15.994914619570
         O           -1.671101101397    -0.799685009037    -0.997375493979    15.994914619570
         C            0.432120898603     1.014092990963     0.350856506021    12.000000000000
         C           -0.908802101397     0.474815990963     0.841179506021    12.000000000000
         C            1.535039898603    -0.028353009037     0.421512506021    12.000000000000
         C           -1.214613101397    -0.935901009037     0.340827506021    12.000000000000
         C            1.055499898603    -1.316159009037    -0.227541493979    12.000000000000
         H            0.704785898603     1.887993990963     0.961697506021     1.007825032230
         H           -0.881353101397     0.432810990963     1.936446506021     1.007825032230
         H            1.784305898603    -0.231090009037     1.469149506021     1.007825032230
         H           -1.993422101397    -1.396323009037     0.962881506021     1.007825032230
         H            0.844131898603    -1.146995009037    -1.288858493979     1.007825032230
         H            1.806443898603    -2.100847009037    -0.125403493979     1.007825032230
         H           -0.392522101397     2.012656990963    -1.082560493979     1.007825032230
         H           -2.420087201397     0.896680090963    -0.504142493979     1.007825032230
         H            2.400229898603     0.935836990963    -0.991693493979     1.007825032230
         H           -1.995112101397    -1.675719009037    -1.277385493979     1.007825032230

  Basis Set: AUG-CC-PVTZ
    Blend: AUG-CC-PVTZ
  Basis Set: (AUG-CC-PVTZ AUX)
    Blend: AUG-CC-PVTZ-JKFIT
	 Reference Energy          =    -569.6391257427271739 [Eh]
	 Singles Energy            =      -0.0000000000000000 [Eh]
	 Same-Spin Energy          =      -0.5575432607941495 [Eh]
	 Opposite-Spin Energy      =      -1.7107984909301424 [Eh]
	 Correlation Energy        =      -2.2683417517242921 [Eh]
	 Total Energy              =    -571.9074674944514527 [Eh]

	 ================> DF-SCS-MP2 Energies <==================
	-----------------------------------------------------------
	 SCS Same-Spin Scale       =       0.3333333333333333 [-]
	 SCS Opposite-Spin Scale   =       1.2000000000000000 [-]
	 SCS Same-Spin Energy      =      -0.1858477535980498 [Eh]
	 SCS Opposite-Spin Energy  =      -2.0529581891161706 [Eh]
	 SCS Correlation Energy    =      -2.2388059427142206 [Eh]
	 SCS Total Energy          =    -571.8779316854413537 [Eh]
	-----------------------------------------------------------

  Dipole Moment: [D]
     X:    -2.2929      Y:    -1.1714      Z:    -0.5168     Total:     2.6262

*** Psi4 exiting successfully. Buy a developer a beer!
