                               Psi4 1.3.2 release

  ==> Input File <==

--------------------------------------------------------------------------
#psi4
#
memory 32 gb

molecule  {
0 1
  O       -0.1147700    -1.8002930     0.4548730
  O        0.3584290     1.3939840    -1.0246780
  O       -1.9551560     1.3713260     0.4690830
  O        2.7148150     0.4505790    -0.2056670
  O       -1.6716310    -0.8002260    -0.9984850
  C        0.4315910     1.0135520     0.3497470
  C       -0.9093320     0.4742750     0.8400700
  C        1.5345100    -0.0288940     0.4204030
  C       -1.2182534    -0.9484393     0.3395004
  C        1.0549700    -1.3167000    -0.2286510
  H        0.7042560     1.8874530     0.9605880
  H       -0.8818830     0.4322700     1.9353370
  H        1.7837760    -0.2316310     1.4680400
  H       -1.9939520    -1.3968640     0.9617720
  H        0.8436020    -1.1475360    -1.2899680
  H        1.8059140    -2.1013880    -0.1265130
  H       -0.3930520     2.0121160    -1.0836700
  H       -2.3417080     0.9766970    -0.3400740
  H        2.3997000     0.9352960    -0.9928030
  H       -1.9936318    -1.6794063    -1.2708485
units angstrom
no_reorient  #important for SAPT in psi4, default
symmetry c1  #important for SAPT in psi4, default
}

set PROPERTIES_ORIGIN ["COM"]
properties('MP2/aug-cc-pvtz', properties = ['dipole'])
--------------------------------------------------------------------------

    Molecular point group: c1
  Charge       = 0
  Multiplicity = 1
  Basis Set: AUG-CC-PVTZ
    Blend: AUG-CC-PVTZ
  Basis Set: (AUG-CC-PVTZ AUX)
    Blend: AUG-CC-PVTZ-JKFIT

    Orbital Energies [Eh]
    ---------------------

    Doubly Occupied:

       1A    -20.592043     2A    -20.581027     3A    -20.574142
       4A    -20.570960     5A    -20.558258     6A    -11.353558
       7A    -11.298063     8A    -11.290794     9A    -11.285642
      10A    -11.278622    11A     -1.439596    12A     -1.391410
      13A     -1.375708    14A     -1.354590    15A     -1.347581
      16A     -1.058151    17A     -1.022395    18A     -0.897671
      19A     -0.870502    20A     -0.797873    21A     -0.752825
      22A     -0.727288    23A     -0.712595    24A     -0.695670
      25A     -0.669557    26A     -0.646027    27A     -0.622132
      28A     -0.614271    29A     -0.602433    30A     -0.584909
      31A     -0.572801    32A     -0.555390    33A     -0.542636
      34A     -0.515888    35A     -0.503972    36A     -0.490546
      37A     -0.486672    38A     -0.471937    39A     -0.440634
      40A     -0.414965

  @DF-RHF Final Energy:  -569.67458634228205

   => Energetics <=

    Nuclear Repulsion Energy =            633.6776626747476939
    One-Electron Energy =               -2041.5810299602899249
    Two-Electron Energy =                 838.2287809432600625
    Total Energy =                       -569.6745863422820548
  Basis Set: (AUG-CC-PVTZ AUX)
    Blend: AUG-CC-PVTZ-RI
    Molecular point group: c1

    Geometry (in Angstrom), charge = 0, multiplicity = 1:

       Center              X                  Y                   Z               Mass
    ------------   -----------------  -----------------  -----------------  -----------------
         O           -0.114534848907    -1.799312495469     0.454839137616    15.994914619570
         O            0.358664151093     1.394964504531    -1.024711862384    15.994914619570
         O           -1.954920848907     1.372306504531     0.469049137616    15.994914619570
         O            2.715050151093     0.451559504531    -0.205700862384    15.994914619570
         O           -1.671395848907    -0.799245495469    -0.998518862384    15.994914619570
         C            0.431826151093     1.014532504531     0.349713137616    12.000000000000
         C           -0.909096848907     0.475255504531     0.840036137616    12.000000000000
         C            1.534745151093    -0.027913495469     0.420369137616    12.000000000000
         C           -1.218018248907    -0.947458795469     0.339466537616    12.000000000000
         C            1.055205151093    -1.315719495469    -0.228684862384    12.000000000000
         H            0.704491151093     1.888433504531     0.960554137616     1.007825032230
         H           -0.881647848907     0.433250504531     1.935303137616     1.007825032230
         H            1.784011151093    -0.230650495469     1.468006137616     1.007825032230
         H           -1.993716848907    -1.395883495469     0.961738137616     1.007825032230
         H            0.843837151093    -1.146555495469    -1.290001862384     1.007825032230
         H            1.806149151093    -2.100407495469    -0.126546862384     1.007825032230
         H           -0.392816848907     2.013096504531    -1.083703862384     1.007825032230
         H           -2.341472848907     0.977677504531    -0.340107862384     1.007825032230
         H            2.399935151093     0.936276504531    -0.992836862384     1.007825032230
         H           -1.993396648907    -1.678425795469    -1.270882362384     1.007825032230

  Basis Set: AUG-CC-PVTZ
    Blend: AUG-CC-PVTZ
  Basis Set: (AUG-CC-PVTZ AUX)
    Blend: AUG-CC-PVTZ-JKFIT
	 Reference Energy          =    -569.6745863422820548 [Eh]
	 Singles Energy            =      -0.0000000000000000 [Eh]
	 Same-Spin Energy          =      -0.5545681436019521 [Eh]
	 Opposite-Spin Energy      =      -1.7038298769195670 [Eh]
	 Correlation Energy        =      -2.2583980205215193 [Eh]
	 Total Energy              =    -571.9329843628036087 [Eh]

	 ================> DF-SCS-MP2 Energies <==================
	-----------------------------------------------------------
	 SCS Same-Spin Scale       =       0.3333333333333333 [-]
	 SCS Opposite-Spin Scale   =       1.2000000000000000 [-]
	 SCS Same-Spin Energy      =      -0.1848560478673174 [Eh]
	 SCS Opposite-Spin Energy  =      -2.0445958523034804 [Eh]
	 SCS Correlation Energy    =      -2.2294519001707975 [Eh]
	 SCS Total Energy          =    -571.9040382424528843 [Eh]
	-----------------------------------------------------------

  Dipole Moment: [D]
     X:    -2.1768      Y:    -1.0273      Z:    -0.2929     Total:     2.4247

*** Psi4 exiting successfully. Buy a developer a beer!
