                               Psi4 1.3.2 release

  ==> Input File <==

--------------------------------------------------------------------------
#psi4
#
memory 32 gb

molecule  {
0 1
  O       -0.1147700    -1.8002930     0.4548730
  O        0.3584290     1.3939840    -1.0246780
  O       -1.9551560     1.3713260     0.4690830
  O        2.7148150     0.4505790    -0.2056670
  O       -1.6716310    -0.8002260    -0.9984850
  C        0.4315910     1.0135520     0.3497470
  C       -0.9093320     0.4742750     0.8400700
  C        1.5345100    -0.0288940     0.4204030
  C       -1.2218396    -0.9441582     0.3464755
  C        1.0612763    -1.3269104    -0.2249674
  H        0.7042560     1.8874530     0.9605880
  H       -0.8818830     0.4322700     1.9353370
  H        1.7837760    -0.2316310     1.4680400
  H       -1.9939520    -1.3968640     0.9617720
  H        0.8436020    -1.1475360    -1.2899680
  H        1.8059140    -2.1013880    -0.1265130
  H       -0.3930520     2.0121160    -1.0836700
  H       -2.3417080     0.9766970    -0.3400740
  H        2.3997000     0.9352960    -0.9928030
  H       -1.9956420    -1.6762600    -1.2784950
units angstrom
no_reorient  #important for SAPT in psi4, default
symmetry c1  #important for SAPT in psi4, default
}

set PROPERTIES_ORIGIN ["COM"]
properties('MP2/aug-cc-pvtz', properties = ['dipole'])
--------------------------------------------------------------------------

    Molecular point group: c1
  Charge       = 0
  Multiplicity = 1
  Basis Set: AUG-CC-PVTZ
    Blend: AUG-CC-PVTZ
  Basis Set: (AUG-CC-PVTZ AUX)
    Blend: AUG-CC-PVTZ-JKFIT

    Orbital Energies [Eh]
    ---------------------

    Doubly Occupied:

       1A    -20.591088     2A    -20.579965     3A    -20.574299
       4A    -20.570937     5A    -20.558004     6A    -11.353843
       7A    -11.298343     8A    -11.291235     9A    -11.285660
      10A    -11.278274    11A     -1.437221    12A     -1.391102
      13A     -1.375082    14A     -1.352809    15A     -1.347460
      16A     -1.057872    17A     -1.022931    18A     -0.898331
      19A     -0.870661    20A     -0.797249    21A     -0.752677
      22A     -0.727518    23A     -0.711679    24A     -0.695454
      25A     -0.669270    26A     -0.645110    27A     -0.620806
      28A     -0.613649    29A     -0.602906    30A     -0.585419
      31A     -0.571931    32A     -0.556708    33A     -0.542409
      34A     -0.515942    35A     -0.504400    36A     -0.490189
      37A     -0.486343    38A     -0.470983    39A     -0.441076
      40A     -0.414693

  @DF-RHF Final Energy:  -569.67452104934739

   => Energetics <=

    Nuclear Repulsion Energy =            633.3753750052619580
    One-Electron Energy =               -2040.9967380211360251
    Two-Electron Energy =                 837.9468419665266765
    Total Energy =                       -569.6745210493473905
  Basis Set: (AUG-CC-PVTZ AUX)
    Blend: AUG-CC-PVTZ-RI
    Molecular point group: c1

    Geometry (in Angstrom), charge = 0, multiplicity = 1:

       Center              X                  Y                   Z               Mass
    ------------   -----------------  -----------------  -----------------  -----------------
         O           -0.114738878858    -1.798859450478     0.454038099268    15.994914619570
         O            0.358460121142     1.395417549522    -1.025512900732    15.994914619570
         O           -1.955124878858     1.372759549522     0.468248099268    15.994914619570
         O            2.714846121142     0.452012549522    -0.206501900732    15.994914619570
         O           -1.671599878858    -0.798792450478    -0.999319900732    15.994914619570
         C            0.431622121142     1.014985549522     0.348912099268    12.000000000000
         C           -0.909300878858     0.475708549522     0.839235099268    12.000000000000
         C            1.534541121142    -0.027460450478     0.419568099268    12.000000000000
         C           -1.221808478858    -0.942724650478     0.345640599268    12.000000000000
         C            1.061307421142    -1.325476850478    -0.225802300732    12.000000000000
         H            0.704287121142     1.888886549522     0.959753099268     1.007825032230
         H           -0.881851878858     0.433703549522     1.934502099268     1.007825032230
         H            1.783807121142    -0.230197450478     1.467205099268     1.007825032230
         H           -1.993920878858    -1.395430450478     0.960937099268     1.007825032230
         H            0.843633121142    -1.146102450478    -1.290802900732     1.007825032230
         H            1.805945121142    -2.099954450478    -0.127347900732     1.007825032230
         H           -0.393020878858     2.013549549522    -1.084504900732     1.007825032230
         H           -2.341676878858     0.978130549522    -0.340908900732     1.007825032230
         H            2.399731121142     0.936729549522    -0.993637900732     1.007825032230
         H           -1.995610878858    -1.674826450478    -1.279329900732     1.007825032230

  Basis Set: AUG-CC-PVTZ
    Blend: AUG-CC-PVTZ
  Basis Set: (AUG-CC-PVTZ AUX)
    Blend: AUG-CC-PVTZ-JKFIT
	 Reference Energy          =    -569.6745210493473905 [Eh]
	 Singles Energy            =      -0.0000000000000000 [Eh]
	 Same-Spin Energy          =      -0.5544738627738874 [Eh]
	 Opposite-Spin Energy      =      -1.7037883845705957 [Eh]
	 Correlation Energy        =      -2.2582622473444829 [Eh]
	 Total Energy              =    -571.9327832966919232 [Eh]

	 ================> DF-SCS-MP2 Energies <==================
	-----------------------------------------------------------
	 SCS Same-Spin Scale       =       0.3333333333333333 [-]
	 SCS Opposite-Spin Scale   =       1.2000000000000000 [-]
	 SCS Same-Spin Energy      =      -0.1848246209246291 [Eh]
	 SCS Opposite-Spin Energy  =      -2.0445460614847146 [Eh]
	 SCS Correlation Energy    =      -2.2293706824093436 [Eh]
	 SCS Total Energy          =    -571.9038917317567439 [Eh]
	-----------------------------------------------------------

  Dipole Moment: [D]
     X:    -2.1831      Y:    -1.0186      Z:    -0.2741     Total:     2.4246

*** Psi4 exiting successfully. Buy a developer a beer!
