                               Psi4 1.3.2 release

  ==> Input File <==

--------------------------------------------------------------------------
#psi4
#
memory 32 gb

molecule  {
0 1
  O       -0.1147700    -1.8002930     0.4548730
  O        0.3584290     1.3939840    -1.0246780
  O       -1.9551560     1.3713260     0.4690830
  O        2.7148150     0.4505790    -0.2056670
  O       -1.6716310    -0.8002260    -0.9984850
  C        0.4313142     1.0155021     0.4027395
  C       -0.9093320     0.4742750     0.8400700
  C        1.5345100    -0.0288940     0.4204030
  C       -1.2151430    -0.9364420     0.3397180
  C        1.0549700    -1.3167000    -0.2286510
  H        0.7042560     1.8874530     0.9605880
  H       -0.8818830     0.4322700     1.9353370
  H        1.7572505    -0.2061700     1.4785802
  H       -1.9939520    -1.3968640     0.9617720
  H        0.8436020    -1.1475360    -1.2899680
  H        1.8059140    -2.1013880    -0.1265130
  H       -0.3930520     2.0121160    -1.0836700
  H       -2.3417080     0.9766970    -0.3400740
  H        2.3997000     0.9352960    -0.9928030
  H       -1.9956420    -1.6762600    -1.2784950
units angstrom
no_reorient  #important for SAPT in psi4, default
symmetry c1  #important for SAPT in psi4, default
}

set PROPERTIES_ORIGIN ["COM"]
properties('MP2/aug-cc-pvtz', properties = ['dipole'])
--------------------------------------------------------------------------

    Molecular point group: c1
  Charge       = 0
  Multiplicity = 1
  Basis Set: AUG-CC-PVTZ
    Blend: AUG-CC-PVTZ
  Basis Set: (AUG-CC-PVTZ AUX)
    Blend: AUG-CC-PVTZ-JKFIT

    Orbital Energies [Eh]
    ---------------------

    Doubly Occupied:

       1A    -20.591613     2A    -20.581290     3A    -20.575086
       4A    -20.565080     5A    -20.559260     6A    -11.355290
       7A    -11.299619     8A    -11.290825     9A    -11.287279
      10A    -11.279416    11A     -1.438685    12A     -1.383915
      13A     -1.374536    14A     -1.354148    15A     -1.338286
      16A     -1.063782    17A     -1.023853    18A     -0.901763
      19A     -0.872622    20A     -0.794762    21A     -0.751409
      22A     -0.728534    23A     -0.711807    24A     -0.694044
      25A     -0.665183    26A     -0.646942    27A     -0.622096
      28A     -0.609894    29A     -0.603498    30A     -0.585505
      31A     -0.572180    32A     -0.557166    33A     -0.537128
      34A     -0.511430    35A     -0.503599    36A     -0.489410
      37A     -0.487810    38A     -0.471021    39A     -0.444695
      40A     -0.420812

  @DF-RHF Final Energy:  -569.67048609023709

   => Energetics <=

    Nuclear Repulsion Energy =            633.2685077598025600
    One-Electron Energy =               -2040.7874459063416452
    Two-Electron Energy =                 837.8484520563019942
    Total Energy =                       -569.6704860902370910
  Basis Set: (AUG-CC-PVTZ AUX)
    Blend: AUG-CC-PVTZ-RI
    Molecular point group: c1

    Geometry (in Angstrom), charge = 0, multiplicity = 1:

       Center              X                  Y                   Z               Mass
    ------------   -----------------  -----------------  -----------------  -----------------
         O           -0.114569797981    -1.800620034698     0.450564392705    15.994914619570
         O            0.358629202019     1.393656965302    -1.028986607295    15.994914619570
         O           -1.954955797981     1.370998965302     0.464774392705    15.994914619570
         O            2.715015202019     0.450251965302    -0.209975607295    15.994914619570
         O           -1.671430797981    -0.800553034698    -1.002793607295    15.994914619570
         C            0.431514402019     1.015175065302     0.398430892705    12.000000000000
         C           -0.909131797981     0.473947965302     0.835761392705    12.000000000000
         C            1.534710202019    -0.029221034698     0.416094392705    12.000000000000
         C           -1.214942797981    -0.936769034698     0.335409392705    12.000000000000
         C            1.055170202019    -1.317027034698    -0.232959607295    12.000000000000
         H            0.704456202019     1.887125965302     0.956279392705     1.007825032230
         H           -0.881682797981     0.431942965302     1.931028392705     1.007825032230
         H            1.757450702019    -0.206497034698     1.474271592705     1.007825032230
         H           -1.993751797981    -1.397191034698     0.957463392705     1.007825032230
         H            0.843802202019    -1.147863034698    -1.294276607295     1.007825032230
         H            1.806114202019    -2.101715034698    -0.130821607295     1.007825032230
         H           -0.392851797981     2.011788965302    -1.087978607295     1.007825032230
         H           -2.341507797981     0.976369965302    -0.344382607295     1.007825032230
         H            2.399900202019     0.934968965302    -0.997111607295     1.007825032230
         H           -1.995441797981    -1.676587034698    -1.282803607295     1.007825032230

  Basis Set: AUG-CC-PVTZ
    Blend: AUG-CC-PVTZ
  Basis Set: (AUG-CC-PVTZ AUX)
    Blend: AUG-CC-PVTZ-JKFIT
	 Reference Energy          =    -569.6704860902370910 [Eh]
	 Singles Energy            =      -0.0000000000000000 [Eh]
	 Same-Spin Energy          =      -0.5548022836711390 [Eh]
	 Opposite-Spin Energy      =      -1.7049086302475338 [Eh]
	 Correlation Energy        =      -2.2597109139186728 [Eh]
	 Total Energy              =    -571.9301970041557297 [Eh]

	 ================> DF-SCS-MP2 Energies <==================
	-----------------------------------------------------------
	 SCS Same-Spin Scale       =       0.3333333333333333 [-]
	 SCS Opposite-Spin Scale   =       1.2000000000000000 [-]
	 SCS Same-Spin Energy      =      -0.1849340945570463 [Eh]
	 SCS Opposite-Spin Energy  =      -2.0458903562970403 [Eh]
	 SCS Correlation Energy    =      -2.2308244508540866 [Eh]
	 SCS Total Energy          =    -571.9013105410912203 [Eh]
	-----------------------------------------------------------

  Dipole Moment: [D]
     X:    -2.1709      Y:    -1.0278      Z:    -0.1685     Total:     2.4078

*** Psi4 exiting successfully. Buy a developer a beer!
