                               Psi4 1.3.2 release

  ==> Input File <==

--------------------------------------------------------------------------
#psi4
#
memory 32 gb

molecule  {
0 1
  O       -0.1147700    -1.8002930     0.4548730
  O        0.3584290     1.3939840    -1.0246780
  O       -1.9551560     1.3713260     0.4690830
  O        2.7148150     0.4505790    -0.2056670
  O       -1.6716310    -0.8002260    -0.9984850
  C        0.4315910     1.0135520     0.3497470
  C       -0.9093320     0.4742750     0.8400700
  C        1.5345100    -0.0288940     0.4204030
  C       -1.2151430    -0.9364420     0.3397180
  C        1.0450821    -1.2763573    -0.2965137
  H        0.7042560     1.8874530     0.9605880
  H       -0.8818830     0.4322700     1.9353370
  H        1.7981003    -0.1763733     1.4737544
  H       -1.9939520    -1.3968640     0.9617720
  H        0.8436020    -1.1475360    -1.2899680
  H        1.8059140    -2.1013880    -0.1265130
  H       -0.3930520     2.0121160    -1.0836700
  H       -2.3417080     0.9766970    -0.3400740
  H        2.3997000     0.9352960    -0.9928030
  H       -1.9956420    -1.6762600    -1.2784950
units angstrom
no_reorient  #important for SAPT in psi4, default
symmetry c1  #important for SAPT in psi4, default
}

set PROPERTIES_ORIGIN ["COM"]
properties('MP2/aug-cc-pvtz', properties = ['dipole'])
--------------------------------------------------------------------------

    Molecular point group: c1
  Charge       = 0
  Multiplicity = 1
  Basis Set: AUG-CC-PVTZ
    Blend: AUG-CC-PVTZ
  Basis Set: (AUG-CC-PVTZ AUX)
    Blend: AUG-CC-PVTZ-JKFIT

    Orbital Energies [Eh]
    ---------------------

    Doubly Occupied:

       1A    -20.591075     2A    -20.579149     3A    -20.574057
       4A    -20.571610     5A    -20.557685     6A    -11.351233
       7A    -11.297538     8A    -11.290128     9A    -11.287456
      10A    -11.279686    11A     -1.434950    12A     -1.391285
      13A     -1.373619    14A     -1.349381    15A     -1.348159
      16A     -1.059455    17A     -1.020681    18A     -0.901190
      19A     -0.867651    20A     -0.801365    21A     -0.753843
      22A     -0.726807    23A     -0.707920    24A     -0.695149
      25A     -0.669496    26A     -0.650841    27A     -0.619212
      28A     -0.613789    29A     -0.599590    30A     -0.583057
      31A     -0.573426    32A     -0.550345    33A     -0.541967
      34A     -0.514475    35A     -0.499591    36A     -0.494243
      37A     -0.486521    38A     -0.478748    39A     -0.439371
      40A     -0.416865

  @DF-RHF Final Energy:  -569.66470745333459

   => Energetics <=

    Nuclear Repulsion Energy =            633.9259033814045097
    One-Electron Energy =               -2042.0960013733954383
    Two-Electron Energy =                 838.5053905386564566
    Total Energy =                       -569.6647074533345858
  Basis Set: (AUG-CC-PVTZ AUX)
    Blend: AUG-CC-PVTZ-RI
    Molecular point group: c1

    Geometry (in Angstrom), charge = 0, multiplicity = 1:

       Center              X                  Y                   Z               Mass
    ------------   -----------------  -----------------  -----------------  -----------------
         O           -0.114075547041    -1.803890490055     0.460261817445    15.994914619570
         O            0.359123452959     1.390386509945    -1.019289182555    15.994914619570
         O           -1.954461547041     1.367728509945     0.474471817445    15.994914619570
         O            2.715509452959     0.446981509945    -0.200278182555    15.994914619570
         O           -1.670936547041    -0.803823490055    -0.993096182555    15.994914619570
         C            0.432285452959     1.009954509945     0.355135817445    12.000000000000
         C           -0.908637547041     0.470677509945     0.845458817445    12.000000000000
         C            1.535204452959    -0.032491490055     0.425791817445    12.000000000000
         C           -1.214448547041    -0.940039490055     0.345106817445    12.000000000000
         C            1.045776552959    -1.279954790055    -0.291124882555    12.000000000000
         H            0.704950452959     1.883855509945     0.965976817445     1.007825032230
         H           -0.881188547041     0.428672509945     1.940725817445     1.007825032230
         H            1.798794752959    -0.179970790055     1.479143217445     1.007825032230
         H           -1.993257547041    -1.400461490055     0.967160817445     1.007825032230
         H            0.844296452959    -1.151133490055    -1.284579182555     1.007825032230
         H            1.806608452959    -2.104985490055    -0.121124182555     1.007825032230
         H           -0.392357547041     2.008518509945    -1.078281182555     1.007825032230
         H           -2.341013547041     0.973099509945    -0.334685182555     1.007825032230
         H            2.400394452959     0.931698509945    -0.987414182555     1.007825032230
         H           -1.994947547041    -1.679857490055    -1.273106182555     1.007825032230

  Basis Set: AUG-CC-PVTZ
    Blend: AUG-CC-PVTZ
  Basis Set: (AUG-CC-PVTZ AUX)
    Blend: AUG-CC-PVTZ-JKFIT
	 Reference Energy          =    -569.6647074533345858 [Eh]
	 Singles Energy            =      -0.0000000000000000 [Eh]
	 Same-Spin Energy          =      -0.5550235614044867 [Eh]
	 Opposite-Spin Energy      =      -1.7053239960278315 [Eh]
	 Correlation Energy        =      -2.2603475574323184 [Eh]
	 Total Energy              =    -571.9250550107668687 [Eh]

	 ================> DF-SCS-MP2 Energies <==================
	-----------------------------------------------------------
	 SCS Same-Spin Scale       =       0.3333333333333333 [-]
	 SCS Opposite-Spin Scale   =       1.2000000000000000 [-]
	 SCS Same-Spin Energy      =      -0.1850078538014956 [Eh]
	 SCS Opposite-Spin Energy  =      -2.0463887952333977 [Eh]
	 SCS Correlation Energy    =      -2.2313966490348931 [Eh]
	 SCS Total Energy          =    -571.8961041023694634 [Eh]
	-----------------------------------------------------------

  Dipole Moment: [D]
     X:    -2.1224      Y:    -0.9347      Z:    -0.3806     Total:     2.3501

*** Psi4 exiting successfully. Buy a developer a beer!
