                               Psi4 1.3.2 release

  ==> Input File <==

--------------------------------------------------------------------------
#psi4
#
memory 32 gb

molecule  {
0 1
  O       -0.1147700    -1.8002930     0.4548730
  O        0.3584290     1.3939840    -1.0246780
  O       -1.9551560     1.3713260     0.4690830
  O        2.7148150     0.4505790    -0.2056670
  O       -1.6716310    -0.8002260    -0.9984850
  C        0.4367145     0.9869107     0.4459966
  C       -0.9093320     0.4742750     0.8400700
  C        1.5345100    -0.0288940     0.4204030
  C       -1.2151430    -0.9364420     0.3397180
  C        1.0549700    -1.3167000    -0.2286510
  H        0.7042560     1.8874530     0.9605880
  H       -0.8818830     0.4322700     1.9353370
  H        1.7837760    -0.2316310     1.4680400
  H       -1.9939520    -1.3968640     0.9617720
  H        0.8436020    -1.1475360    -1.2899680
  H        1.8059140    -2.1013880    -0.1265130
  H       -0.3930520     2.0121160    -1.0836700
  H       -2.3417080     0.9766970    -0.3400740
  H        2.3997000     0.9352960    -0.9928030
  H       -1.9956420    -1.6762600    -1.2784950
units angstrom
no_reorient  #important for SAPT in psi4, default
symmetry c1  #important for SAPT in psi4, default
}

set PROPERTIES_ORIGIN ["COM"]
properties('MP2/aug-cc-pvtz', properties = ['dipole'])
--------------------------------------------------------------------------

    Molecular point group: c1
  Charge       = 0
  Multiplicity = 1
  Basis Set: AUG-CC-PVTZ
    Blend: AUG-CC-PVTZ
  Basis Set: (AUG-CC-PVTZ AUX)
    Blend: AUG-CC-PVTZ-JKFIT

    Orbital Energies [Eh]
    ---------------------

    Doubly Occupied:

       1A    -20.591729     2A    -20.582114     3A    -20.576590
       4A    -20.560297     5A    -20.559011     6A    -11.356175
       7A    -11.301359     8A    -11.293756     9A    -11.288375
      10A    -11.279943    11A     -1.439154    12A     -1.381802
      13A     -1.373616    14A     -1.354709    15A     -1.326714
      16A     -1.071582    17A     -1.025902    18A     -0.903206
      19A     -0.876911    20A     -0.793767    21A     -0.751327
      22A     -0.728440    23A     -0.711873    24A     -0.693648
      25A     -0.661350    26A     -0.647525    27A     -0.622337
      28A     -0.607380    29A     -0.603710    30A     -0.586105
      31A     -0.572852    32A     -0.558195    33A     -0.533148
      34A     -0.507019    35A     -0.503184    36A     -0.489031
      37A     -0.485993    38A     -0.472658    39A     -0.450137
      40A     -0.422234

  @DF-RHF Final Energy:  -569.66379914525135

   => Energetics <=

    Nuclear Repulsion Energy =            633.1585588063026080
    One-Electron Energy =               -2040.5550024202982513
    Two-Electron Energy =                 837.7326444687442972
    Total Energy =                       -569.6637991452513461
  Basis Set: (AUG-CC-PVTZ AUX)
    Blend: AUG-CC-PVTZ-RI
    Molecular point group: c1

    Geometry (in Angstrom), charge = 0, multiplicity = 1:

       Center              X                  Y                   Z               Mass
    ------------   -----------------  -----------------  -----------------  -----------------
         O           -0.115179827575    -1.798162519906     0.447175835856    15.994914619570
         O            0.358019172425     1.396114480094    -1.032375164144    15.994914619570
         O           -1.955565827575     1.373456480094     0.461385835856    15.994914619570
         O            2.714405172425     0.452709480094    -0.213364164144    15.994914619570
         O           -1.672040827575    -0.798095519906    -1.006182164144    15.994914619570
         C            0.436304672425     0.989041180094     0.438299435856    12.000000000000
         C           -0.909741827575     0.476405480094     0.832372835856    12.000000000000
         C            1.534100172425    -0.026763519906     0.412705835856    12.000000000000
         C           -1.215552827575    -0.934311519906     0.332020835856    12.000000000000
         C            1.054560172425    -1.314569519906    -0.236348164144    12.000000000000
         H            0.703846172425     1.889583480094     0.952890835856     1.007825032230
         H           -0.882292827575     0.434400480094     1.927639835856     1.007825032230
         H            1.783366172425    -0.229500519906     1.460342835856     1.007825032230
         H           -1.994361827575    -1.394733519906     0.954074835856     1.007825032230
         H            0.843192172425    -1.145405519906    -1.297665164144     1.007825032230
         H            1.805504172425    -2.099257519906    -0.134210164144     1.007825032230
         H           -0.393461827575     2.014246480094    -1.091367164144     1.007825032230
         H           -2.342117827575     0.978827480094    -0.347771164144     1.007825032230
         H            2.399290172425     0.937426480094    -1.000500164144     1.007825032230
         H           -1.996051827575    -1.674129519906    -1.286192164144     1.007825032230

  Basis Set: AUG-CC-PVTZ
    Blend: AUG-CC-PVTZ
  Basis Set: (AUG-CC-PVTZ AUX)
    Blend: AUG-CC-PVTZ-JKFIT
	 Reference Energy          =    -569.6637991452513461 [Eh]
	 Singles Energy            =      -0.0000000000000000 [Eh]
	 Same-Spin Energy          =      -0.5552602987633650 [Eh]
	 Opposite-Spin Energy      =      -1.7061278634449457 [Eh]
	 Correlation Energy        =      -2.2613881622083110 [Eh]
	 Total Energy              =    -571.9251873074596233 [Eh]

	 ================> DF-SCS-MP2 Energies <==================
	-----------------------------------------------------------
	 SCS Same-Spin Scale       =       0.3333333333333333 [-]
	 SCS Opposite-Spin Scale   =       1.2000000000000000 [-]
	 SCS Same-Spin Energy      =      -0.1850867662544550 [Eh]
	 SCS Opposite-Spin Energy  =      -2.0473534361339349 [Eh]
	 SCS Correlation Energy    =      -2.2324402023883900 [Eh]
	 SCS Total Energy          =    -571.8962393476397210 [Eh]
	-----------------------------------------------------------

  Dipole Moment: [D]
     X:    -2.1566      Y:    -1.1005      Z:    -0.0533     Total:     2.4217

*** Psi4 exiting successfully. Buy a developer a beer!
