                               Psi4 1.3.2 release

  ==> Input File <==

--------------------------------------------------------------------------
#psi4
#
memory 32 gb

molecule  {
0 1
  O       -0.1147700    -1.8002930     0.4548730
  O        0.3584290     1.3939840    -1.0246780
  O       -1.9551560     1.3713260     0.4690830
  O        2.7148150     0.4505790    -0.2056670
  O       -1.6716310    -0.8002260    -0.9984850
  C        0.4315910     1.0135520     0.3497470
  C       -0.9093320     0.4742750     0.8400700
  C        1.3682112    -0.0964492     0.5086130
  C       -1.2151430    -0.9364420     0.3397180
  C        1.0549700    -1.3167000    -0.2286510
  H        0.7042560     1.8874530     0.9605880
  H       -0.8818830     0.4322700     1.9353370
  H        1.7837760    -0.2316310     1.4680400
  H       -1.9939520    -1.3968640     0.9617720
  H        0.8436020    -1.1475360    -1.2899680
  H        1.8059140    -2.1013880    -0.1265130
  H       -0.3930520     2.0121160    -1.0836700
  H       -2.3417080     0.9766970    -0.3400740
  H        2.3997000     0.9352960    -0.9928030
  H       -1.9956420    -1.6762600    -1.2784950
units angstrom
no_reorient  #important for SAPT in psi4, default
symmetry c1  #important for SAPT in psi4, default
}

set PROPERTIES_ORIGIN ["COM"]
properties('MP2/aug-cc-pvtz', properties = ['dipole'])
--------------------------------------------------------------------------

    Molecular point group: c1
  Charge       = 0
  Multiplicity = 1
  Basis Set: AUG-CC-PVTZ
    Blend: AUG-CC-PVTZ
  Basis Set: (AUG-CC-PVTZ AUX)
    Blend: AUG-CC-PVTZ-JKFIT

    Orbital Energies [Eh]
    ---------------------

    Doubly Occupied:

       1A    -20.594918     2A    -20.582090     3A    -20.575819
       4A    -20.574550     5A    -20.534629     6A    -11.357793
       7A    -11.300612     8A    -11.296504     9A    -11.290479
      10A    -11.284891    11A     -1.444125    12A     -1.391300
      13A     -1.373664    14A     -1.356522    15A     -1.291628
      16A     -1.082746    17A     -1.034026    18A     -0.908434
      19A     -0.871722    20A     -0.800925    21A     -0.756412
      22A     -0.733106    23A     -0.714532    24A     -0.694893
      25A     -0.666219    26A     -0.639019    27A     -0.628536
      28A     -0.614749    29A     -0.602008    30A     -0.585872
      31A     -0.563630    32A     -0.547661    33A     -0.539563
      34A     -0.513565    35A     -0.506326    36A     -0.488559
      37A     -0.479758    38A     -0.476522    39A     -0.440728
      40A     -0.420326

  @DF-RHF Final Energy:  -569.63857692212093

   => Energetics <=

    Nuclear Repulsion Energy =            634.8677948662960944
    One-Electron Energy =               -2043.8940245101034634
    Two-Electron Energy =                 839.3876527216863224
    Total Energy =                       -569.6385769221209330
  Basis Set: (AUG-CC-PVTZ AUX)
    Blend: AUG-CC-PVTZ-RI
    Molecular point group: c1

    Geometry (in Angstrom), charge = 0, multiplicity = 1:

       Center              X                  Y                   Z               Mass
    ------------   -----------------  -----------------  -----------------  -----------------
         O           -0.101470871268    -1.794890560147     0.447818777440    15.994914619570
         O            0.371728128732     1.399386439853    -1.031732222560    15.994914619570
         O           -1.941856871268     1.376728439853     0.462028777440    15.994914619570
         O            2.728114128732     0.455981439853    -0.212721222560    15.994914619570
         O           -1.658331871268    -0.794823560147    -1.005539222560    15.994914619570
         C            0.444890128732     1.018954439853     0.342692777440    12.000000000000
         C           -0.896032871268     0.479677439853     0.833015777440    12.000000000000
         C            1.381510328732    -0.091046760147     0.501558777440    12.000000000000
         C           -1.201843871268    -0.931039560147     0.332663777440    12.000000000000
         C            1.068269128732    -1.311297560147    -0.235705222560    12.000000000000
         H            0.717555128732     1.892855439853     0.953533777440     1.007825032230
         H           -0.868583871268     0.437672439853     1.928282777440     1.007825032230
         H            1.797075128732    -0.226228560147     1.460985777440     1.007825032230
         H           -1.980652871268    -1.391461560147     0.954717777440     1.007825032230
         H            0.856901128732    -1.142133560147    -1.297022222560     1.007825032230
         H            1.819213128732    -2.095985560147    -0.133567222560     1.007825032230
         H           -0.379752871268     2.017518439853    -1.090724222560     1.007825032230
         H           -2.328408871268     0.982099439853    -0.347128222560     1.007825032230
         H            2.412999128732     0.940698439853    -0.999857222560     1.007825032230
         H           -1.982342871268    -1.670857560147    -1.285549222560     1.007825032230

  Basis Set: AUG-CC-PVTZ
    Blend: AUG-CC-PVTZ
  Basis Set: (AUG-CC-PVTZ AUX)
    Blend: AUG-CC-PVTZ-JKFIT
	 Reference Energy          =    -569.6385769221209330 [Eh]
	 Singles Energy            =      -0.0000000000000000 [Eh]
	 Same-Spin Energy          =      -0.5569545060360784 [Eh]
	 Opposite-Spin Energy      =      -1.7097363080505490 [Eh]
	 Correlation Energy        =      -2.2666908140866275 [Eh]
	 Total Energy              =    -571.9052677362075201 [Eh]

	 ================> DF-SCS-MP2 Energies <==================
	-----------------------------------------------------------
	 SCS Same-Spin Scale       =       0.3333333333333333 [-]
	 SCS Opposite-Spin Scale   =       1.2000000000000000 [-]
	 SCS Same-Spin Energy      =      -0.1856515020120261 [Eh]
	 SCS Opposite-Spin Energy  =      -2.0516835696606588 [Eh]
	 SCS Correlation Energy    =      -2.2373350716726850 [Eh]
	 SCS Total Energy          =    -571.8759119937935793 [Eh]
	-----------------------------------------------------------

  Dipole Moment: [D]
     X:    -2.7054      Y:    -1.2707      Z:    -0.0939     Total:     2.9904

*** Psi4 exiting successfully. Buy a developer a beer!
