                               Psi4 1.3.2 release

  ==> Input File <==

--------------------------------------------------------------------------
#psi4
#
memory 32 gb

molecule  {
0 1
  O       -0.1162061    -1.8391374     0.4230887
  O        0.3584290     1.3939840    -1.0246780
  O       -1.9551560     1.3713260     0.4690830
  O        2.7148150     0.4505790    -0.2056670
  O       -1.6716310    -0.8002260    -0.9984850
  C        0.4315910     1.0135520     0.3497470
  C       -0.9093320     0.4742750     0.8400700
  C        1.5740318    -0.0268983     0.3850756
  C       -1.2151430    -0.9364420     0.3397180
  C        1.0549700    -1.3167000    -0.2286510
  H        0.7042560     1.8874530     0.9605880
  H       -0.8818830     0.4322700     1.9353370
  H        1.7837760    -0.2316310     1.4680400
  H       -1.9939520    -1.3968640     0.9617720
  H        0.8436020    -1.1475360    -1.2899680
  H        1.8059140    -2.1013880    -0.1265130
  H       -0.3930520     2.0121160    -1.0836700
  H       -2.3417080     0.9766970    -0.3400740
  H        2.3997000     0.9352960    -0.9928030
  H       -1.9956420    -1.6762600    -1.2784950
units angstrom
no_reorient  #important for SAPT in psi4, default
symmetry c1  #important for SAPT in psi4, default
}

set PROPERTIES_ORIGIN ["COM"]
properties('MP2/aug-cc-pvtz', properties = ['dipole'])
--------------------------------------------------------------------------

    Molecular point group: c1
  Charge       = 0
  Multiplicity = 1
  Basis Set: AUG-CC-PVTZ
    Blend: AUG-CC-PVTZ
  Basis Set: (AUG-CC-PVTZ AUX)
    Blend: AUG-CC-PVTZ-JKFIT

    Orbital Energies [Eh]
    ---------------------

    Doubly Occupied:

       1A    -20.590849     2A    -20.581747     3A    -20.576185
       4A    -20.570702     5A    -20.564647     6A    -11.354991
       7A    -11.300225     8A    -11.290578     9A    -11.287870
      10A    -11.275154    11A     -1.435175    12A     -1.397750
      13A     -1.381394    14A     -1.357152    15A     -1.350917
      16A     -1.054769    17A     -1.019507    18A     -0.898474
      19A     -0.868894    20A     -0.799253    21A     -0.751737
      22A     -0.726056    23A     -0.710365    24A     -0.698269
      25A     -0.672219    26A     -0.649080    27A     -0.623467
      28A     -0.615341    29A     -0.602497    30A     -0.584783
      31A     -0.574329    32A     -0.561381    33A     -0.544010
      34A     -0.512475    35A     -0.501874    36A     -0.493300
      37A     -0.487463    38A     -0.462510    39A     -0.439332
      40A     -0.415124

  @DF-RHF Final Energy:  -569.67029070816159

   => Energetics <=

    Nuclear Repulsion Energy =            632.8575236533366706
    One-Electron Energy =               -2039.8919387202208782
    Two-Electron Energy =                 837.3641243587227336
    Total Energy =                       -569.6702907081615876
  Basis Set: (AUG-CC-PVTZ AUX)
    Blend: AUG-CC-PVTZ-RI
    Molecular point group: c1

    Geometry (in Angstrom), charge = 0, multiplicity = 1:

       Center              X                  Y                   Z               Mass
    ------------   -----------------  -----------------  -----------------  -----------------
         O           -0.119213741426    -1.835156445819     0.429302044950    15.994914619570
         O            0.355421358574     1.397964954181    -1.018464655050    15.994914619570
         O           -1.958163641426     1.375306954181     0.475296344950    15.994914619570
         O            2.711807358574     0.454559954181    -0.199453655050    15.994914619570
         O           -1.674638641426    -0.796245045819    -0.992271655050    15.994914619570
         C            0.428583358574     1.017532954181     0.355960344950    12.000000000000
         C           -0.912339641426     0.478255954181     0.846283344950    12.000000000000
         C            1.571024158574    -0.022917345819     0.391288944950    12.000000000000
         C           -1.218150641426    -0.932461045819     0.345931344950    12.000000000000
         C            1.051962358574    -1.312719045819    -0.222437655050    12.000000000000
         H            0.701248358574     1.891433954181     0.966801344950     1.007825032230
         H           -0.884890641426     0.436250954181     1.941550344950     1.007825032230
         H            1.780768358574    -0.227650045819     1.474253344950     1.007825032230
         H           -1.996959641426    -1.392883045819     0.967985344950     1.007825032230
         H            0.840594358574    -1.143555045819    -1.283754655050     1.007825032230
         H            1.802906358574    -2.097407045819    -0.120299655050     1.007825032230
         H           -0.396059641426     2.016096954181    -1.077456655050     1.007825032230
         H           -2.344715641426     0.980677954181    -0.333860655050     1.007825032230
         H            2.396692358574     0.939276954181    -0.986589655050     1.007825032230
         H           -1.998649641426    -1.672279045819    -1.272281655050     1.007825032230

  Basis Set: AUG-CC-PVTZ
    Blend: AUG-CC-PVTZ
  Basis Set: (AUG-CC-PVTZ AUX)
    Blend: AUG-CC-PVTZ-JKFIT
	 Reference Energy          =    -569.6702907081615876 [Eh]
	 Singles Energy            =      -0.0000000000000000 [Eh]
	 Same-Spin Energy          =      -0.5547710686516150 [Eh]
	 Opposite-Spin Energy      =      -1.7041695314962360 [Eh]
	 Correlation Energy        =      -2.2589406001478509 [Eh]
	 Total Energy              =    -571.9292313083094541 [Eh]

	 ================> DF-SCS-MP2 Energies <==================
	-----------------------------------------------------------
	 SCS Same-Spin Scale       =       0.3333333333333333 [-]
	 SCS Opposite-Spin Scale   =       1.2000000000000000 [-]
	 SCS Same-Spin Energy      =      -0.1849236895505383 [Eh]
	 SCS Opposite-Spin Energy  =      -2.0450034377954829 [Eh]
	 SCS Correlation Energy    =      -2.2299271273460213 [Eh]
	 SCS Total Energy          =    -571.9002178355076467 [Eh]
	-----------------------------------------------------------

  Dipole Moment: [D]
     X:    -2.0799      Y:    -0.8111      Z:    -0.3248     Total:     2.2559

*** Psi4 exiting successfully. Buy a developer a beer!
