                               Psi4 1.3.2 release

  ==> Input File <==

--------------------------------------------------------------------------
#psi4
#
memory 32 gb

molecule  {
0 1
  O       -0.1147700    -1.8002930     0.4548730
  O        0.3584290     1.3939840    -1.0246780
  O       -1.9551560     1.3713260     0.4690830
  O        2.7148150     0.4505790    -0.2056670
  O       -1.6716310    -0.8002260    -0.9984850
  C        0.4315910     1.0135520     0.3497470
  C       -0.9093320     0.4742750     0.8400700
  C        1.5345100    -0.0288940     0.4204030
  C       -1.2151430    -0.9364420     0.3397180
  C        1.0549700    -1.3167000    -0.2286510
  H        0.7042560     1.8874530     0.9605880
  H       -0.8843865     0.4361011     1.8354418
  H        1.7837760    -0.2316310     1.4680400
  H       -1.9939520    -1.3968640     0.9617720
  H        0.8436020    -1.1475360    -1.2899680
  H        1.8059140    -2.1013880    -0.1265130
  H       -0.3930520     2.0121160    -1.0836700
  H       -2.3417080     0.9766970    -0.3400740
  H        2.3997000     0.9352960    -0.9928030
  H       -1.9956420    -1.6762600    -1.2784950
units angstrom
no_reorient  #important for SAPT in psi4, default
symmetry c1  #important for SAPT in psi4, default
}

set PROPERTIES_ORIGIN ["COM"]
properties('MP2/aug-cc-pvtz', properties = ['dipole'])
--------------------------------------------------------------------------

    Molecular point group: c1
  Charge       = 0
  Multiplicity = 1
  Basis Set: AUG-CC-PVTZ
    Blend: AUG-CC-PVTZ
  Basis Set: (AUG-CC-PVTZ AUX)
    Blend: AUG-CC-PVTZ-JKFIT

    Orbital Energies [Eh]
    ---------------------

    Doubly Occupied:

       1A    -20.591107     2A    -20.580798     3A    -20.573297
       4A    -20.570575     5A    -20.558221     6A    -11.353262
       7A    -11.290429     8A    -11.285993     9A    -11.285715
      10A    -11.278151    11A     -1.438478    12A     -1.391018
      13A     -1.375283    14A     -1.353686    15A     -1.347400
      16A     -1.062343    17A     -1.025279    18A     -0.898877
      19A     -0.875264    20A     -0.802881    21A     -0.753010
      22A     -0.728309    23A     -0.712086    24A     -0.695787
      25A     -0.671432    26A     -0.649690    27A     -0.621007
      28A     -0.613766    29A     -0.605633    30A     -0.586107
      31A     -0.572668    32A     -0.556247    33A     -0.543498
      34A     -0.518897    35A     -0.502418    36A     -0.490668
      37A     -0.489242    38A     -0.471637    39A     -0.441018
      40A     -0.415602

  @DF-RHF Final Energy:  -569.66905705970771

   => Energetics <=

    Nuclear Repulsion Energy =            634.4669443969066833
    One-Electron Energy =               -2043.1184442039586884
    Two-Electron Energy =                 838.9824427473442938
    Total Energy =                       -569.6690570597077112
  Basis Set: (AUG-CC-PVTZ AUX)
    Blend: AUG-CC-PVTZ-RI
    Molecular point group: c1

    Geometry (in Angstrom), charge = 0, multiplicity = 1:

       Center              X                  Y                   Z               Mass
    ------------   -----------------  -----------------  -----------------  -----------------
         O           -0.114753277187    -1.800318805080     0.455544036164    15.994914619570
         O            0.358445722813     1.393958194920    -1.024006963836    15.994914619570
         O           -1.955139277187     1.371300194920     0.469754036164    15.994914619570
         O            2.714831722813     0.450553194920    -0.204995963836    15.994914619570
         O           -1.671614277187    -0.800251805080    -0.997813963836    15.994914619570
         C            0.431607722813     1.013526194920     0.350418036164    12.000000000000
         C           -0.909315277187     0.474249194920     0.840741036164    12.000000000000
         C            1.534526722813    -0.028919805080     0.421074036164    12.000000000000
         C           -1.215126277187    -0.936467805080     0.340389036164    12.000000000000
         C            1.054986722813    -1.316725805080    -0.227979963836    12.000000000000
         H            0.704272722813     1.887427194920     0.961259036164     1.007825032230
         H           -0.884369777187     0.436075294920     1.836112836164     1.007825032230
         H            1.783792722813    -0.231656805080     1.468711036164     1.007825032230
         H           -1.993935277187    -1.396889805080     0.962443036164     1.007825032230
         H            0.843618722813    -1.147561805080    -1.289296963836     1.007825032230
         H            1.805930722813    -2.101413805080    -0.125841963836     1.007825032230
         H           -0.393035277187     2.012090194920    -1.082998963836     1.007825032230
         H           -2.341691277187     0.976671194920    -0.339402963836     1.007825032230
         H            2.399716722813     0.935270194920    -0.992131963836     1.007825032230
         H           -1.995625277187    -1.676285805080    -1.277823963836     1.007825032230

  Basis Set: AUG-CC-PVTZ
    Blend: AUG-CC-PVTZ
  Basis Set: (AUG-CC-PVTZ AUX)
    Blend: AUG-CC-PVTZ-JKFIT
	 Reference Energy          =    -569.6690570597077112 [Eh]
	 Singles Energy            =      -0.0000000000000000 [Eh]
	 Same-Spin Energy          =      -0.5545138507376839 [Eh]
	 Opposite-Spin Energy      =      -1.7032747662855547 [Eh]
	 Correlation Energy        =      -2.2577886170232384 [Eh]
	 Total Energy              =    -571.9268456767309772 [Eh]

	 ================> DF-SCS-MP2 Energies <==================
	-----------------------------------------------------------
	 SCS Same-Spin Scale       =       0.3333333333333333 [-]
	 SCS Opposite-Spin Scale   =       1.2000000000000000 [-]
	 SCS Same-Spin Energy      =      -0.1848379502458946 [Eh]
	 SCS Opposite-Spin Energy  =      -2.0439297195426658 [Eh]
	 SCS Correlation Energy    =      -2.2287676697885606 [Eh]
	 SCS Total Energy          =    -571.8978247294962785 [Eh]
	-----------------------------------------------------------

  Dipole Moment: [D]
     X:    -2.1656      Y:    -1.0072      Z:    -0.2656     Total:     2.4031

*** Psi4 exiting successfully. Buy a developer a beer!
