                               Psi4 1.3.2 release

  ==> Input File <==

--------------------------------------------------------------------------
#psi4
#
memory 32 gb

molecule  {
0 1
  O       -0.1147700    -1.8002930     0.4548730
  O        0.4063538     1.4075180    -1.0225792
  O       -1.9551560     1.3713260     0.4690830
  O        2.7148150     0.4505790    -0.2056670
  O       -1.6716310    -0.8002260    -0.9984850
  C        0.4315910     1.0135520     0.3497470
  C       -0.8876297     0.4666278     0.8881162
  C        1.5345100    -0.0288940     0.4204030
  C       -1.2151430    -0.9364420     0.3397180
  C        1.0549700    -1.3167000    -0.2286510
  H        0.7042560     1.8874530     0.9605880
  H       -0.8818830     0.4322700     1.9353370
  H        1.7837760    -0.2316310     1.4680400
  H       -1.9939520    -1.3968640     0.9617720
  H        0.8436020    -1.1475360    -1.2899680
  H        1.8059140    -2.1013880    -0.1265130
  H       -0.3930520     2.0121160    -1.0836700
  H       -2.3417080     0.9766970    -0.3400740
  H        2.3997000     0.9352960    -0.9928030
  H       -1.9956420    -1.6762600    -1.2784950
units angstrom
no_reorient  #important for SAPT in psi4, default
symmetry c1  #important for SAPT in psi4, default
}

set PROPERTIES_ORIGIN ["COM"]
properties('MP2/aug-cc-pvtz', properties = ['dipole'])
--------------------------------------------------------------------------

    Molecular point group: c1
  Charge       = 0
  Multiplicity = 1
  Basis Set: AUG-CC-PVTZ
    Blend: AUG-CC-PVTZ
  Basis Set: (AUG-CC-PVTZ AUX)
    Blend: AUG-CC-PVTZ-JKFIT

    Orbital Energies [Eh]
    ---------------------

    Doubly Occupied:

       1A    -20.593445     2A    -20.580201     3A    -20.576250
       4A    -20.571558     5A    -20.556595     6A    -11.355477
       7A    -11.299750     8A    -11.291637     9A    -11.284609
      10A    -11.277977    11A     -1.437865    12A     -1.387648
      13A     -1.370152    14A     -1.351786    15A     -1.342731
      16A     -1.060412    17A     -1.023402    18A     -0.896557
      19A     -0.871999    20A     -0.798364    21A     -0.750899
      22A     -0.728410    23A     -0.711034    24A     -0.692723
      25A     -0.666168    26A     -0.647250    27A     -0.620992
      28A     -0.613641    29A     -0.600205    30A     -0.584096
      31A     -0.572213    32A     -0.553821    33A     -0.545793
      34A     -0.517102    35A     -0.502868    36A     -0.489585
      37A     -0.488736    38A     -0.470474    39A     -0.443002
      40A     -0.413820

  @DF-RHF Final Energy:  -569.66770787802591

   => Energetics <=

    Nuclear Repulsion Energy =            632.7189096706932787
    One-Electron Energy =               -2039.6907402291521976
    Two-Electron Energy =                 837.3041226804328971
    Total Energy =                       -569.6677078780259080
  Basis Set: (AUG-CC-PVTZ AUX)
    Blend: AUG-CC-PVTZ-RI
    Molecular point group: c1

    Geometry (in Angstrom), charge = 0, multiplicity = 1:

       Center              X                  Y                   Z               Mass
    ------------   -----------------  -----------------  -----------------  -----------------
         O           -0.121614219559    -1.801124172772     0.450807028264    15.994914619570
         O            0.399509580441     1.406686827228    -1.026645171736    15.994914619570
         O           -1.962000219559     1.370494827228     0.465017028264    15.994914619570
         O            2.707970780441     0.449747827228    -0.209732971736    15.994914619570
         O           -1.678475219559    -0.801057172772    -1.002550971736    15.994914619570
         C            0.424746780441     1.012720827228     0.345681028264    12.000000000000
         C           -0.894473919559     0.465796627228     0.884050228264    12.000000000000
         C            1.527665780441    -0.029725172772     0.416337028264    12.000000000000
         C           -1.221987219559    -0.937273172772     0.335652028264    12.000000000000
         C            1.048125780441    -1.317531172772    -0.232716971736    12.000000000000
         H            0.697411780441     1.886621827228     0.956522028264     1.007825032230
         H           -0.888727219559     0.431438827228     1.931271028264     1.007825032230
         H            1.776931780441    -0.232462172772     1.463974028264     1.007825032230
         H           -2.000796219559    -1.397695172772     0.957706028264     1.007825032230
         H            0.836757780441    -1.148367172772    -1.294033971736     1.007825032230
         H            1.799069780441    -2.102219172772    -0.130578971736     1.007825032230
         H           -0.399896219559     2.011284827228    -1.087735971736     1.007825032230
         H           -2.348552219559     0.975865827228    -0.344139971736     1.007825032230
         H            2.392855780441     0.934464827228    -0.996868971736     1.007825032230
         H           -2.002486219559    -1.677091172772    -1.282560971736     1.007825032230

  Basis Set: AUG-CC-PVTZ
    Blend: AUG-CC-PVTZ
  Basis Set: (AUG-CC-PVTZ AUX)
    Blend: AUG-CC-PVTZ-JKFIT
	 Reference Energy          =    -569.6677078780259080 [Eh]
	 Singles Energy            =      -0.0000000000000000 [Eh]
	 Same-Spin Energy          =      -0.5550086663395216 [Eh]
	 Opposite-Spin Energy      =      -1.7052891660103486 [Eh]
	 Correlation Energy        =      -2.2602978323498704 [Eh]
	 Total Energy              =    -571.9280057103758281 [Eh]

	 ================> DF-SCS-MP2 Energies <==================
	-----------------------------------------------------------
	 SCS Same-Spin Scale       =       0.3333333333333333 [-]
	 SCS Opposite-Spin Scale   =       1.2000000000000000 [-]
	 SCS Same-Spin Energy      =      -0.1850028887798405 [Eh]
	 SCS Opposite-Spin Energy  =      -2.0463469992124184 [Eh]
	 SCS Correlation Energy    =      -2.2313498879922591 [Eh]
	 SCS Total Energy          =    -571.8990577660181316 [Eh]
	-----------------------------------------------------------

  Dipole Moment: [D]
     X:    -2.2320      Y:    -1.0775      Z:    -0.2476     Total:     2.4908

*** Psi4 exiting successfully. Buy a developer a beer!
