                               Psi4 1.3.2 release

  ==> Input File <==

--------------------------------------------------------------------------
#psi4
#
memory 32 gb

molecule  {
0 1
  O       -0.1147700    -1.8002930     0.4548730
  O        0.3584290     1.3939840    -1.0246780
  O       -1.9551560     1.3713260     0.4690830
  O        2.7150604     0.4697780    -0.1900107
  O       -1.6716310    -0.8002260    -0.9984850
  C        0.4315910     1.0135520     0.3497470
  C       -0.9093320     0.4742750     0.8400700
  C        1.5345100    -0.0288940     0.4204030
  C       -1.2151430    -0.9364420     0.3397180
  C        1.0346335    -1.3174287    -0.2116379
  H        0.7042560     1.8874530     0.9605880
  H       -0.8818830     0.4322700     1.9353370
  H        1.7837760    -0.2316310     1.4680400
  H       -1.9939520    -1.3968640     0.9617720
  H        0.8436020    -1.1475360    -1.2899680
  H        1.8059140    -2.1013880    -0.1265130
  H       -0.3930520     2.0121160    -1.0836700
  H       -2.3417080     0.9766970    -0.3400740
  H        2.3997000     0.9352960    -0.9928030
  H       -1.9956420    -1.6762600    -1.2784950
units angstrom
no_reorient  #important for SAPT in psi4, default
symmetry c1  #important for SAPT in psi4, default
}

set PROPERTIES_ORIGIN ["COM"]
properties('MP2/aug-cc-pvtz', properties = ['dipole'])
--------------------------------------------------------------------------

    Molecular point group: c1
  Charge       = 0
  Multiplicity = 1
  Basis Set: AUG-CC-PVTZ
    Blend: AUG-CC-PVTZ
  Basis Set: (AUG-CC-PVTZ AUX)
    Blend: AUG-CC-PVTZ-JKFIT

    Orbital Energies [Eh]
    ---------------------

    Doubly Occupied:

       1A    -20.592647     2A    -20.583964     3A    -20.574967
       4A    -20.570763     5A    -20.558967     6A    -11.355422
       7A    -11.298786     8A    -11.290167     9A    -11.284820
      10A    -11.278922    11A     -1.443278    12A     -1.391993
      13A     -1.377692    14A     -1.357035    15A     -1.347066
      16A     -1.059337    17A     -1.023964    18A     -0.897454
      19A     -0.871551    20A     -0.798220    21A     -0.752963
      22A     -0.727850    23A     -0.714611    24A     -0.696774
      25A     -0.669163    26A     -0.646951    27A     -0.624377
      28A     -0.615483    29A     -0.603346    30A     -0.584067
      31A     -0.570855    32A     -0.554660    33A     -0.543128
      34A     -0.516760    35A     -0.503671    36A     -0.491104
      37A     -0.489681    38A     -0.468602    39A     -0.439590
      40A     -0.415463

  @DF-RHF Final Energy:  -569.67365979767737

   => Energetics <=

    Nuclear Repulsion Energy =            634.1849842321561255
    One-Electron Energy =               -2042.5450535233476330
    Two-Electron Energy =                 838.6864094935140201
    Total Energy =                       -569.6736597976773737
  Basis Set: (AUG-CC-PVTZ AUX)
    Blend: AUG-CC-PVTZ-RI
    Molecular point group: c1

    Geometry (in Angstrom), charge = 0, multiplicity = 1:

       Center              X                  Y                   Z               Mass
    ------------   -----------------  -----------------  -----------------  -----------------
         O           -0.113169903062    -1.802281319884     0.451843637516    15.994914619570
         O            0.360029096938     1.391995680116    -1.027707362484    15.994914619570
         O           -1.953555903062     1.369337680116     0.466053637516    15.994914619570
         O            2.716660496938     0.467789680116    -0.193040062484    15.994914619570
         O           -1.670030903062    -0.802214319884    -1.001514362484    15.994914619570
         C            0.433191096938     1.011563680116     0.346717637516    12.000000000000
         C           -0.907731903062     0.472286680116     0.837040637516    12.000000000000
         C            1.536110096938    -0.030882319884     0.417373637516    12.000000000000
         C           -1.213542903062    -0.938430319884     0.336688637516    12.000000000000
         C            1.036233596938    -1.319417019884    -0.214667262484    12.000000000000
         H            0.705856096938     1.885464680116     0.957558637516     1.007825032230
         H           -0.880282903062     0.430281680116     1.932307637516     1.007825032230
         H            1.785376096938    -0.233619319884     1.465010637516     1.007825032230
         H           -1.992351903062    -1.398852319884     0.958742637516     1.007825032230
         H            0.845202096938    -1.149524319884    -1.292997362484     1.007825032230
         H            1.807514096938    -2.103376319884    -0.129542362484     1.007825032230
         H           -0.391451903062     2.010127680116    -1.086699362484     1.007825032230
         H           -2.340107903062     0.974708680116    -0.343103362484     1.007825032230
         H            2.401300096938     0.933307680116    -0.995832362484     1.007825032230
         H           -1.994041903062    -1.678248319884    -1.281524362484     1.007825032230

  Basis Set: AUG-CC-PVTZ
    Blend: AUG-CC-PVTZ
  Basis Set: (AUG-CC-PVTZ AUX)
    Blend: AUG-CC-PVTZ-JKFIT
	 Reference Energy          =    -569.6736597976773737 [Eh]
	 Singles Energy            =      -0.0000000000000000 [Eh]
	 Same-Spin Energy          =      -0.5547699786330733 [Eh]
	 Opposite-Spin Energy      =      -1.7038967831547742 [Eh]
	 Correlation Energy        =      -2.2586667617878478 [Eh]
	 Total Energy              =    -571.9323265594651957 [Eh]

	 ================> DF-SCS-MP2 Energies <==================
	-----------------------------------------------------------
	 SCS Same-Spin Scale       =       0.3333333333333333 [-]
	 SCS Opposite-Spin Scale   =       1.2000000000000000 [-]
	 SCS Same-Spin Energy      =      -0.1849233262110244 [Eh]
	 SCS Opposite-Spin Energy  =      -2.0446761397857292 [Eh]
	 SCS Correlation Energy    =      -2.2295994659967535 [Eh]
	 SCS Total Energy          =    -571.9032592636741583 [Eh]
	-----------------------------------------------------------

  Dipole Moment: [D]
     X:    -2.2538      Y:    -1.0519      Z:    -0.2961     Total:     2.5047

*** Psi4 exiting successfully. Buy a developer a beer!
