                               Psi4 1.3.2 release

  ==> Input File <==

--------------------------------------------------------------------------
#psi4
#
memory 32 gb

molecule  {
0 1
  O       -0.1147700    -1.8002930     0.4548730
  O        0.3584290     1.3939840    -1.0246780
  O       -1.9551560     1.3713260     0.4690830
  O        2.6895838     0.4547128    -0.2481080
  O       -1.6716310    -0.8002260    -0.9984850
  C        0.4315910     1.0135520     0.3497470
  C       -0.9093320     0.4742750     0.8400700
  C        1.5345100    -0.0288940     0.4204030
  C       -1.2151430    -0.9364420     0.3397180
  C        1.0549700    -1.3167000    -0.2286510
  H        0.7042560     1.8874530     0.9605880
  H       -0.8818830     0.4322700     1.9353370
  H        1.7476583    -0.2428422     1.4737658
  H       -1.9939520    -1.3968640     0.9617720
  H        0.8436020    -1.1475360    -1.2899680
  H        1.8059140    -2.1013880    -0.1265130
  H       -0.3930520     2.0121160    -1.0836700
  H       -2.3417080     0.9766970    -0.3400740
  H        2.3997000     0.9352960    -0.9928030
  H       -1.9956420    -1.6762600    -1.2784950
units angstrom
no_reorient  #important for SAPT in psi4, default
symmetry c1  #important for SAPT in psi4, default
}

set PROPERTIES_ORIGIN ["COM"]
properties('MP2/aug-cc-pvtz', properties = ['dipole'])
--------------------------------------------------------------------------

    Molecular point group: c1
  Charge       = 0
  Multiplicity = 1
  Basis Set: AUG-CC-PVTZ
    Blend: AUG-CC-PVTZ
  Basis Set: (AUG-CC-PVTZ AUX)
    Blend: AUG-CC-PVTZ-JKFIT

    Orbital Energies [Eh]
    ---------------------

    Doubly Occupied:

       1A    -20.591320     2A    -20.580407     3A    -20.574320
       4A    -20.570160     5A    -20.553788     6A    -11.353647
       7A    -11.298087     8A    -11.290560     9A    -11.287085
      10A    -11.277614    11A     -1.438534    12A     -1.393013
      13A     -1.377885    14A     -1.355023    15A     -1.350154
      16A     -1.060530    17A     -1.023802    18A     -0.898606
      19A     -0.872069    20A     -0.799633    21A     -0.751830
      22A     -0.728015    23A     -0.712187    24A     -0.697071
      25A     -0.674473    26A     -0.649594    27A     -0.620442
      28A     -0.613769    29A     -0.602745    30A     -0.587818
      31A     -0.570932    32A     -0.556212    33A     -0.543234
      34A     -0.516186    35A     -0.502441    36A     -0.490620
      37A     -0.487147    38A     -0.470948    39A     -0.440627
      40A     -0.415610

  @DF-RHF Final Energy:  -569.67500826971309

   => Energetics <=

    Nuclear Repulsion Energy =            634.5477327722237533
    One-Electron Energy =               -2043.2892091085802804
    Two-Electron Energy =                 839.0664680666434379
    Total Energy =                       -569.6750082697130892
  Basis Set: (AUG-CC-PVTZ AUX)
    Blend: AUG-CC-PVTZ-RI
    Molecular point group: c1

    Geometry (in Angstrom), charge = 0, multiplicity = 1:

       Center              X                  Y                   Z               Mass
    ------------   -----------------  -----------------  -----------------  -----------------
         O           -0.111837983013    -1.800658417294     0.459358644051    15.994914619570
         O            0.361361016987     1.393618582706    -1.020192355949    15.994914619570
         O           -1.952223983013     1.370960582706     0.473568644051    15.994914619570
         O            2.692515816987     0.454347382706    -0.243622355949    15.994914619570
         O           -1.668698983013    -0.800591417294    -0.993999355949    15.994914619570
         C            0.434523016987     1.013186582706     0.354232644051    12.000000000000
         C           -0.906399983013     0.473909582706     0.844555644051    12.000000000000
         C            1.537442016987    -0.029259417294     0.424888644051    12.000000000000
         C           -1.212210983013    -0.936807417294     0.344203644051    12.000000000000
         C            1.057902016987    -1.317065417294    -0.224165355949    12.000000000000
         H            0.707188016987     1.887087582706     0.965073644051     1.007825032230
         H           -0.878950983013     0.431904582706     1.939822644051     1.007825032230
         H            1.750590316987    -0.243207617294     1.478251444051     1.007825032230
         H           -1.991019983013    -1.397229417294     0.966257644051     1.007825032230
         H            0.846534016987    -1.147901417294    -1.285482355949     1.007825032230
         H            1.808846016987    -2.101753417294    -0.122027355949     1.007825032230
         H           -0.390119983013     2.011750582706    -1.079184355949     1.007825032230
         H           -2.338775983013     0.976331582706    -0.335588355949     1.007825032230
         H            2.402632016987     0.934930582706    -0.988317355949     1.007825032230
         H           -1.992709983013    -1.676625417294    -1.274009355949     1.007825032230

  Basis Set: AUG-CC-PVTZ
    Blend: AUG-CC-PVTZ
  Basis Set: (AUG-CC-PVTZ AUX)
    Blend: AUG-CC-PVTZ-JKFIT
	 Reference Energy          =    -569.6750082697130892 [Eh]
	 Singles Energy            =      -0.0000000000000000 [Eh]
	 Same-Spin Energy          =      -0.5540357307638233 [Eh]
	 Opposite-Spin Energy      =      -1.7024411737960048 [Eh]
	 Correlation Energy        =      -2.2564769045598281 [Eh]
	 Total Energy              =    -571.9314851742728933 [Eh]

	 ================> DF-SCS-MP2 Energies <==================
	-----------------------------------------------------------
	 SCS Same-Spin Scale       =       0.3333333333333333 [-]
	 SCS Opposite-Spin Scale   =       1.2000000000000000 [-]
	 SCS Same-Spin Energy      =      -0.1846785769212744 [Eh]
	 SCS Opposite-Spin Energy  =      -2.0429294085552057 [Eh]
	 SCS Correlation Energy    =      -2.2276079854764799 [Eh]
	 SCS Total Energy          =    -571.9026162551895140 [Eh]
	-----------------------------------------------------------

  Dipole Moment: [D]
     X:    -2.1447      Y:    -0.9979      Z:    -0.2275     Total:     2.3764

*** Psi4 exiting successfully. Buy a developer a beer!
