                               Psi4 1.3.2 release

  ==> Input File <==

--------------------------------------------------------------------------
#psi4
#
memory 32 gb

molecule  {
0 1
  O       -0.1147700    -1.8002930     0.4548730
  O        0.3584290     1.3939840    -1.0246780
  O       -1.9551560     1.3713260     0.4690830
  O        2.7148150     0.4505790    -0.2056670
  O       -1.6716310    -0.8002260    -0.9984850
  C        0.4315910     1.0135520     0.3497470
  C       -0.9093320     0.4742750     0.8400700
  C        1.5345100    -0.0288940     0.4204030
  C       -1.2472795    -0.9268525     0.2455093
  C        1.0549700    -1.3167000    -0.2286510
  H        0.7042560     1.8874530     0.9605880
  H       -0.8818830     0.4322700     1.9353370
  H        1.7837760    -0.2316310     1.4680400
  H       -1.9939520    -1.3968640     0.9617720
  H        0.8436020    -1.1475360    -1.2899680
  H        1.8059140    -2.1013880    -0.1265130
  H       -0.3930520     2.0121160    -1.0836700
  H       -2.3417080     0.9766970    -0.3400740
  H        2.3997000     0.9352960    -0.9928030
  H       -1.9956420    -1.6762600    -1.2784950
units angstrom
no_reorient  #important for SAPT in psi4, default
symmetry c1  #important for SAPT in psi4, default
}

set PROPERTIES_ORIGIN ["COM"]
properties('MP2/aug-cc-pvtz', properties = ['dipole'])
--------------------------------------------------------------------------

    Molecular point group: c1
  Charge       = 0
  Multiplicity = 1
  Basis Set: AUG-CC-PVTZ
    Blend: AUG-CC-PVTZ
  Basis Set: (AUG-CC-PVTZ AUX)
    Blend: AUG-CC-PVTZ-JKFIT

    Orbital Energies [Eh]
    ---------------------

    Doubly Occupied:

       1A    -20.609297     2A    -20.573583     3A    -20.572761
       4A    -20.571362     5A    -20.556194     6A    -11.354642
       7A    -11.297699     8A    -11.288929     9A    -11.282850
      10A    -11.273673    11A     -1.466340    12A     -1.393821
      13A     -1.372694    14A     -1.360054    15A     -1.346496
      16A     -1.054599    17A     -1.012899    18A     -0.898478
      19A     -0.865577    20A     -0.805438    21A     -0.759761
      22A     -0.733435    23A     -0.712795    24A     -0.700827
      25A     -0.671468    26A     -0.649571    27A     -0.623826
      28A     -0.610497    29A     -0.603448    30A     -0.587846
      31A     -0.576930    32A     -0.553711    33A     -0.542141
      34A     -0.514967    35A     -0.494985    36A     -0.489990
      37A     -0.484528    38A     -0.468517    39A     -0.436807
      40A     -0.409080

  @DF-RHF Final Energy:  -569.66496905219640

   => Energetics <=

    Nuclear Repulsion Energy =            634.3133683787001473
    One-Electron Energy =               -2042.7916406398069284
    Two-Electron Energy =                 838.8133032089102699
    Total Energy =                       -569.6649690521963976
  Basis Set: (AUG-CC-PVTZ AUX)
    Blend: AUG-CC-PVTZ-RI
    Molecular point group: c1

    Geometry (in Angstrom), charge = 0, multiplicity = 1:

       Center              X                  Y                   Z               Mass
    ------------   -----------------  -----------------  -----------------  -----------------
         O           -0.112200076912    -1.801059963554     0.462407136060    15.994914619570
         O            0.360998923088     1.393217036446    -1.017143863940    15.994914619570
         O           -1.952586076912     1.370559036446     0.476617136060    15.994914619570
         O            2.717384923088     0.449812036446    -0.198132863940    15.994914619570
         O           -1.669061076912    -0.800992963554    -0.990950863940    15.994914619570
         C            0.434160923088     1.012785036446     0.357281136060    12.000000000000
         C           -0.906762076912     0.473508036446     0.847604136060    12.000000000000
         C            1.537079923088    -0.029660963554     0.427937136060    12.000000000000
         C           -1.244709576912    -0.927619463554     0.253043436060    12.000000000000
         C            1.057539923088    -1.317466963554    -0.221116863940    12.000000000000
         H            0.706825923088     1.886686036446     0.968122136060     1.007825032230
         H           -0.879313076912     0.431503036446     1.942871136060     1.007825032230
         H            1.786345923088    -0.232397963554     1.475574136060     1.007825032230
         H           -1.991382076912    -1.397630963554     0.969306136060     1.007825032230
         H            0.846171923088    -1.148302963554    -1.282433863940     1.007825032230
         H            1.808483923088    -2.102154963554    -0.118978863940     1.007825032230
         H           -0.390482076912     2.011349036446    -1.076135863940     1.007825032230
         H           -2.339138076912     0.975930036446    -0.332539863940     1.007825032230
         H            2.402269923088     0.934529036446    -0.985268863940     1.007825032230
         H           -1.993072076912    -1.677026963554    -1.270960863940     1.007825032230

  Basis Set: AUG-CC-PVTZ
    Blend: AUG-CC-PVTZ
  Basis Set: (AUG-CC-PVTZ AUX)
    Blend: AUG-CC-PVTZ-JKFIT
	 Reference Energy          =    -569.6649690521963976 [Eh]
	 Singles Energy            =      -0.0000000000000000 [Eh]
	 Same-Spin Energy          =      -0.5549822046417414 [Eh]
	 Opposite-Spin Energy      =      -1.7039300305775473 [Eh]
	 Correlation Energy        =      -2.2589122352192890 [Eh]
	 Total Energy              =    -571.9238812874157247 [Eh]

	 ================> DF-SCS-MP2 Energies <==================
	-----------------------------------------------------------
	 SCS Same-Spin Scale       =       0.3333333333333333 [-]
	 SCS Opposite-Spin Scale   =       1.2000000000000000 [-]
	 SCS Same-Spin Energy      =      -0.1849940682139138 [Eh]
	 SCS Opposite-Spin Energy  =      -2.0447160366930568 [Eh]
	 SCS Correlation Energy    =      -2.2297101049069705 [Eh]
	 SCS Total Energy          =    -571.8946791571033827 [Eh]
	-----------------------------------------------------------

  Dipole Moment: [D]
     X:    -2.4963      Y:    -0.9544      Z:    -0.7100     Total:     2.7652

*** Psi4 exiting successfully. Buy a developer a beer!
