                               Psi4 1.3.2 release

  ==> Input File <==

--------------------------------------------------------------------------
#psi4
#
memory 32 gb

molecule  {
0 1
  O       -0.1147700    -1.8002930     0.4548730
  O        0.3584290     1.3939840    -1.0246780
  O       -1.9551560     1.3713260     0.4690830
  O        2.7144724     0.5077145    -0.1581451
  O       -1.6716310    -0.8002260    -0.9984850
  C        0.4315910     1.0135520     0.3497470
  C       -0.9093320     0.4742750     0.8400700
  C        1.5345100    -0.0288940     0.4204030
  C       -1.2151430    -0.9364420     0.3397180
  C        0.9944234    -1.3177086    -0.1770394
  H        0.7042560     1.8874530     0.9605880
  H       -0.8818830     0.4322700     1.9353370
  H        1.7837760    -0.2316310     1.4680400
  H       -1.9939520    -1.3968640     0.9617720
  H        0.8436020    -1.1475360    -1.2899680
  H        1.8059140    -2.1013880    -0.1265130
  H       -0.3930520     2.0121160    -1.0836700
  H       -2.3417080     0.9766970    -0.3400740
  H        2.3997000     0.9352960    -0.9928030
  H       -1.9956420    -1.6762600    -1.2784950
units angstrom
no_reorient  #important for SAPT in psi4, default
symmetry c1  #important for SAPT in psi4, default
}

set PROPERTIES_ORIGIN ["COM"]
properties('MP2/aug-cc-pvtz', properties = ['dipole'])
--------------------------------------------------------------------------

    Molecular point group: c1
  Charge       = 0
  Multiplicity = 1
  Basis Set: AUG-CC-PVTZ
    Blend: AUG-CC-PVTZ
  Basis Set: (AUG-CC-PVTZ AUX)
    Blend: AUG-CC-PVTZ-JKFIT

    Orbital Energies [Eh]
    ---------------------

    Doubly Occupied:

       1A    -20.594720     2A    -20.590050     3A    -20.575647
       4A    -20.569868     5A    -20.560850     6A    -11.358495
       7A    -11.299616     8A    -11.288425     9A    -11.283395
      10A    -11.281325    11A     -1.454798    12A     -1.394023
      13A     -1.381858    14A     -1.361065    15A     -1.345662
      16A     -1.060084    17A     -1.026120    18A     -0.895171
      19A     -0.874939    20A     -0.798171    21A     -0.754115
      22A     -0.728852    23A     -0.720236    24A     -0.697966
      25A     -0.668662    26A     -0.648739    27A     -0.631892
      28A     -0.618576    29A     -0.603629    30A     -0.583041
      31A     -0.569377    32A     -0.552141    33A     -0.543572
      34A     -0.518554    35A     -0.505503    36A     -0.494251
      37A     -0.489600    38A     -0.460297    39A     -0.437489
      40A     -0.413523

  @DF-RHF Final Energy:  -569.66624974468118

   => Energetics <=

    Nuclear Repulsion Energy =            634.9541439225403110
    One-Electron Energy =               -2043.9721933925363828
    Two-Electron Energy =                 839.3517997253150043
    Total Energy =                       -569.6662497446811813
  Basis Set: (AUG-CC-PVTZ AUX)
    Blend: AUG-CC-PVTZ-RI
    Molecular point group: c1

    Geometry (in Angstrom), charge = 0, multiplicity = 1:

       Center              X                  Y                   Z               Mass
    ------------   -----------------  -----------------  -----------------  -----------------
         O           -0.109891549489    -1.806302785557     0.445680011066    15.994914619570
         O            0.363307450511     1.387974214443    -1.033870988934    15.994914619570
         O           -1.950277549489     1.365316214443     0.459890011066    15.994914619570
         O            2.719350850511     0.501704714443    -0.167338088934    15.994914619570
         O           -1.666752549489    -0.806235785557    -1.007677988934    15.994914619570
         C            0.436469450511     1.007542214443     0.340554011066    12.000000000000
         C           -0.904453549489     0.468265214443     0.830877011066    12.000000000000
         C            1.539388450511    -0.034903785557     0.411210011066    12.000000000000
         C           -1.210264549489    -0.942451785557     0.330525011066    12.000000000000
         C            0.999301850511    -1.323718385557    -0.186232388934    12.000000000000
         H            0.709134450511     1.881443214443     0.951395011066     1.007825032230
         H           -0.877004549489     0.426260214443     1.926144011066     1.007825032230
         H            1.788654450511    -0.237640785557     1.458847011066     1.007825032230
         H           -1.989073549489    -1.402873785557     0.952579011066     1.007825032230
         H            0.848480450511    -1.153545785557    -1.299160988934     1.007825032230
         H            1.810792450511    -2.107397785557    -0.135705988934     1.007825032230
         H           -0.388173549489     2.006106214443    -1.092862988934     1.007825032230
         H           -2.336829549489     0.970687214443    -0.349266988934     1.007825032230
         H            2.404578450511     0.929286214443    -1.001995988934     1.007825032230
         H           -1.990763549489    -1.682269785557    -1.287687988934     1.007825032230

  Basis Set: AUG-CC-PVTZ
    Blend: AUG-CC-PVTZ
  Basis Set: (AUG-CC-PVTZ AUX)
    Blend: AUG-CC-PVTZ-JKFIT
	 Reference Energy          =    -569.6662497446811813 [Eh]
	 Singles Energy            =      -0.0000000000000000 [Eh]
	 Same-Spin Energy          =      -0.5552742874774854 [Eh]
	 Opposite-Spin Energy      =      -1.7042486809974429 [Eh]
	 Correlation Energy        =      -2.2595229684749283 [Eh]
	 Total Energy              =    -571.9257727131561069 [Eh]

	 ================> DF-SCS-MP2 Energies <==================
	-----------------------------------------------------------
	 SCS Same-Spin Scale       =       0.3333333333333333 [-]
	 SCS Opposite-Spin Scale   =       1.2000000000000000 [-]
	 SCS Same-Spin Energy      =      -0.1850914291591618 [Eh]
	 SCS Opposite-Spin Energy  =      -2.0450984171969315 [Eh]
	 SCS Correlation Energy    =      -2.2301898463560934 [Eh]
	 SCS Total Energy          =    -571.8964395910372787 [Eh]
	-----------------------------------------------------------

  Dipole Moment: [D]
     X:    -2.3949      Y:    -1.1586      Z:    -0.2837     Total:     2.6756

*** Psi4 exiting successfully. Buy a developer a beer!
