                               Psi4 1.3.2 release

  ==> Input File <==

--------------------------------------------------------------------------
#psi4
#
memory 32 gb

molecule  {
0 1
  O       -0.1147700    -1.8002930     0.4548730
  O        0.3584290     1.3939840    -1.0246780
  O       -1.9551560     1.3713260     0.4690830
  O        2.7148150     0.4505790    -0.2056670
  O       -1.6716310    -0.8002260    -0.9984850
  C        0.4315910     1.0135520     0.3497470
  C       -0.9093320     0.4742750     0.8400700
  C        1.5345100    -0.0288940     0.4204030
  C       -1.2151430    -0.9364420     0.3397180
  C        1.0622940    -1.3416406    -0.1824091
  H        0.7042560     1.8874530     0.9605880
  H       -0.8818830     0.4322700     1.9353370
  H        1.7738444    -0.2681700     1.4626338
  H       -1.9939520    -1.3968640     0.9617720
  H        0.8436020    -1.1475360    -1.2899680
  H        1.8059140    -2.1013880    -0.1265130
  H       -0.3930520     2.0121160    -1.0836700
  H       -2.3417080     0.9766970    -0.3400740
  H        2.3997000     0.9352960    -0.9928030
  H       -1.9956420    -1.6762600    -1.2784950
units angstrom
no_reorient  #important for SAPT in psi4, default
symmetry c1  #important for SAPT in psi4, default
}

set PROPERTIES_ORIGIN ["COM"]
properties('MP2/aug-cc-pvtz', properties = ['dipole'])
--------------------------------------------------------------------------

    Molecular point group: c1
  Charge       = 0
  Multiplicity = 1
  Basis Set: AUG-CC-PVTZ
    Blend: AUG-CC-PVTZ
  Basis Set: (AUG-CC-PVTZ AUX)
    Blend: AUG-CC-PVTZ-JKFIT

    Orbital Energies [Eh]
    ---------------------

    Doubly Occupied:

       1A    -20.592001     2A    -20.582017     3A    -20.575107
       4A    -20.571040     5A    -20.558831     6A    -11.355803
       7A    -11.299062     8A    -11.291841     9A    -11.285162
      10A    -11.278344    11A     -1.441663    12A     -1.391964
      13A     -1.377413    14A     -1.356427    15A     -1.347625
      16A     -1.059185    17A     -1.025129    18A     -0.898230
      19A     -0.872139    20A     -0.797086    21A     -0.751743
      22A     -0.729128    23A     -0.713914    24A     -0.696929
      25A     -0.670213    26A     -0.644881    27A     -0.623718
      28A     -0.615131    29A     -0.605314    30A     -0.587390
      31A     -0.567887    32A     -0.559260    33A     -0.543359
      34A     -0.517196    35A     -0.504823    36A     -0.490707
      37A     -0.487272    38A     -0.463532    39A     -0.441324
      40A     -0.413544

  @DF-RHF Final Energy:  -569.67175644975214

   => Energetics <=

    Nuclear Repulsion Energy =            633.7577300464323571
    One-Electron Energy =               -2041.6923061624722777
    Two-Electron Energy =                 838.2628196662876690
    Total Energy =                       -569.6717564497521380
  Basis Set: (AUG-CC-PVTZ AUX)
    Blend: AUG-CC-PVTZ-RI
    Molecular point group: c1

    Geometry (in Angstrom), charge = 0, multiplicity = 1:

       Center              X                  Y                   Z               Mass
    ------------   -----------------  -----------------  -----------------  -----------------
         O           -0.115289100326    -1.798053114975     0.451211354081    15.994914619570
         O            0.357909899674     1.396223885025    -1.028339645919    15.994914619570
         O           -1.955675100326     1.373565885025     0.465421354081    15.994914619570
         O            2.714295899674     0.452818885025    -0.209328645919    15.994914619570
         O           -1.672150100326    -0.797986114975    -1.002146645919    15.994914619570
         C            0.431071899674     1.015791885025     0.346085354081    12.000000000000
         C           -0.909851100326     0.476514885025     0.836408354081    12.000000000000
         C            1.533990899674    -0.026654114975     0.416741354081    12.000000000000
         C           -1.215662100326    -0.934202114975     0.336056354081    12.000000000000
         C            1.061774899674    -1.339400714975    -0.186070745919    12.000000000000
         H            0.703736899674     1.889692885025     0.956926354081     1.007825032230
         H           -0.882402100326     0.434509885025     1.931675354081     1.007825032230
         H            1.773325299674    -0.265930114975     1.458972154081     1.007825032230
         H           -1.994471100326    -1.394624114975     0.958110354081     1.007825032230
         H            0.843082899674    -1.145296114975    -1.293629645919     1.007825032230
         H            1.805394899674    -2.099148114975    -0.130174645919     1.007825032230
         H           -0.393571100326     2.014355885025    -1.087331645919     1.007825032230
         H           -2.342227100326     0.978936885025    -0.343735645919     1.007825032230
         H            2.399180899674     0.937535885025    -0.996464645919     1.007825032230
         H           -1.996161100326    -1.674020114975    -1.282156645919     1.007825032230

  Basis Set: AUG-CC-PVTZ
    Blend: AUG-CC-PVTZ
  Basis Set: (AUG-CC-PVTZ AUX)
    Blend: AUG-CC-PVTZ-JKFIT
	 Reference Energy          =    -569.6717564497521380 [Eh]
	 Singles Energy            =      -0.0000000000000000 [Eh]
	 Same-Spin Energy          =      -0.5545917971944789 [Eh]
	 Opposite-Spin Energy      =      -1.7035650630983952 [Eh]
	 Correlation Energy        =      -2.2581568602928739 [Eh]
	 Total Energy              =    -571.9299133100449808 [Eh]

	 ================> DF-SCS-MP2 Energies <==================
	-----------------------------------------------------------
	 SCS Same-Spin Scale       =       0.3333333333333333 [-]
	 SCS Opposite-Spin Scale   =       1.2000000000000000 [-]
	 SCS Same-Spin Energy      =      -0.1848639323981596 [Eh]
	 SCS Opposite-Spin Energy  =      -2.0442780757180743 [Eh]
	 SCS Correlation Energy    =      -2.2291420081162339 [Eh]
	 SCS Total Energy          =    -571.9008984578683794 [Eh]
	-----------------------------------------------------------

  Dipole Moment: [D]
     X:    -2.2266      Y:    -1.0264      Z:    -0.2287     Total:     2.4624

*** Psi4 exiting successfully. Buy a developer a beer!
