                               Psi4 1.3.2 release

  ==> Input File <==

--------------------------------------------------------------------------
#psi4
#
memory 32 gb

molecule  {
0 1
  O       -0.1147700    -1.8002930     0.4548730
  O        0.3584290     1.3939840    -1.0246780
  O       -1.9551560     1.3713260     0.4690830
  O        2.7148150     0.4505790    -0.2056670
  O       -1.6716310    -0.8002260    -0.9984850
  C        0.4264675     1.0401933     0.2534974
  C       -0.9093320     0.4742750     0.8400700
  C        1.5345100    -0.0288940     0.4204030
  C       -1.2151430    -0.9364420     0.3397180
  C        1.0549700    -1.3167000    -0.2286510
  H        0.7042560     1.8874530     0.9605880
  H       -0.8818830     0.4322700     1.9353370
  H        1.7837760    -0.2316310     1.4680400
  H       -1.9939520    -1.3968640     0.9617720
  H        0.8436020    -1.1475360    -1.2899680
  H        1.8059140    -2.1013880    -0.1265130
  H       -0.3930520     2.0121160    -1.0836700
  H       -2.3417080     0.9766970    -0.3400740
  H        2.3997000     0.9352960    -0.9928030
  H       -1.9956420    -1.6762600    -1.2784950
units angstrom
no_reorient  #important for SAPT in psi4, default
symmetry c1  #important for SAPT in psi4, default
}

set PROPERTIES_ORIGIN ["COM"]
properties('MP2/aug-cc-pvtz', properties = ['dipole'])
--------------------------------------------------------------------------

    Molecular point group: c1
  Charge       = 0
  Multiplicity = 1
  Basis Set: AUG-CC-PVTZ
    Blend: AUG-CC-PVTZ
  Basis Set: (AUG-CC-PVTZ AUX)
    Blend: AUG-CC-PVTZ-JKFIT

    Orbital Energies [Eh]
    ---------------------

    Doubly Occupied:

       1A    -20.591568     2A    -20.582742     3A    -20.579471
       4A    -20.572798     5A    -20.556486     6A    -11.351615
       7A    -11.295528     8A    -11.291976     9A    -11.283681
      10A    -11.276576    11A     -1.441899    12A     -1.422157
      13A     -1.375390    14A     -1.356785    15A     -1.352715
      16A     -1.046671    17A     -1.020228    18A     -0.894785
      19A     -0.863978    20A     -0.806856    21A     -0.755655
      22A     -0.729403    23A     -0.713582    24A     -0.698439
      25A     -0.681927    26A     -0.645227    27A     -0.625067
      28A     -0.620676    29A     -0.603727    30A     -0.584767
      31A     -0.570190    32A     -0.555363    33A     -0.553993
      34A     -0.518165    35A     -0.501783    36A     -0.491441
      37A     -0.486279    38A     -0.467170    39A     -0.426513
      40A     -0.406363

  @DF-RHF Final Energy:  -569.66630547172190

   => Energetics <=

    Nuclear Repulsion Energy =            634.5071744445718878
    One-Electron Energy =               -2043.1476952853288367
    Two-Electron Energy =                 838.9742153690349369
    Total Energy =                       -569.6663054717218984
  Basis Set: (AUG-CC-PVTZ AUX)
    Blend: AUG-CC-PVTZ-RI
    Molecular point group: c1

    Geometry (in Angstrom), charge = 0, multiplicity = 1:

       Center              X                  Y                   Z               Mass
    ------------   -----------------  -----------------  -----------------  -----------------
         O           -0.114360356157    -1.802423627331     0.462570350583    15.994914619570
         O            0.358838643843     1.391853372669    -1.016980649417    15.994914619570
         O           -1.954746356157     1.369195372669     0.476780350583    15.994914619570
         O            2.715224643843     0.448448372669    -0.197969649417    15.994914619570
         O           -1.671221356157    -0.802356627331    -0.990787649417    15.994914619570
         C            0.426877143843     1.038062672669     0.261194750583    12.000000000000
         C           -0.908922356157     0.472144372669     0.847767350583    12.000000000000
         C            1.534919643843    -0.031024627331     0.428100350583    12.000000000000
         C           -1.214733356157    -0.938572627331     0.347415350583    12.000000000000
         C            1.055379643843    -1.318830627331    -0.220953649417    12.000000000000
         H            0.704665643843     1.885322372669     0.968285350583     1.007825032230
         H           -0.881473356157     0.430139372669     1.943034350583     1.007825032230
         H            1.784185643843    -0.233761627331     1.475737350583     1.007825032230
         H           -1.993542356157    -1.398994627331     0.969469350583     1.007825032230
         H            0.844011643843    -1.149666627331    -1.282270649417     1.007825032230
         H            1.806323643843    -2.103518627331    -0.118815649417     1.007825032230
         H           -0.392642356157     2.009985372669    -1.075972649417     1.007825032230
         H           -2.341298356157     0.974566372669    -0.332376649417     1.007825032230
         H            2.400109643843     0.933165372669    -0.985105649417     1.007825032230
         H           -1.995232356157    -1.678390627331    -1.270797649417     1.007825032230

  Basis Set: AUG-CC-PVTZ
    Blend: AUG-CC-PVTZ
  Basis Set: (AUG-CC-PVTZ AUX)
    Blend: AUG-CC-PVTZ-JKFIT
	 Reference Energy          =    -569.6663054717218984 [Eh]
	 Singles Energy            =      -0.0000000000000000 [Eh]
	 Same-Spin Energy          =      -0.5547039226688548 [Eh]
	 Opposite-Spin Energy      =      -1.7029404271397921 [Eh]
	 Correlation Energy        =      -2.2576443498086469 [Eh]
	 Total Energy              =    -571.9239498215305275 [Eh]

	 ================> DF-SCS-MP2 Energies <==================
	-----------------------------------------------------------
	 SCS Same-Spin Scale       =       0.3333333333333333 [-]
	 SCS Opposite-Spin Scale   =       1.2000000000000000 [-]
	 SCS Same-Spin Energy      =      -0.1849013075562849 [Eh]
	 SCS Opposite-Spin Energy  =      -2.0435285125677503 [Eh]
	 SCS Correlation Energy    =      -2.2284298201240351 [Eh]
	 SCS Total Energy          =    -571.8947352918459046 [Eh]
	-----------------------------------------------------------

  Dipole Moment: [D]
     X:    -2.2068      Y:    -0.8941      Z:    -0.5876     Total:     2.4525

*** Psi4 exiting successfully. Buy a developer a beer!
