                               Psi4 1.3.2 release

  ==> Input File <==

--------------------------------------------------------------------------
#psi4
#
memory 32 gb

molecule  {
0 1
  O       -0.1147700    -1.8002930     0.4548730
  O        0.3584290     1.3939840    -1.0246780
  O       -1.9551560     1.3713260     0.4690830
  O        2.7148150     0.4505790    -0.2056670
  O       -1.6716310    -0.8002260    -0.9984850
  C        0.4635729     1.0477296     0.3746696
  C       -0.9093320     0.4742750     0.8400700
  C        1.5345100    -0.0288940     0.4204030
  C       -1.2151430    -0.9364420     0.3397180
  C        1.1019898    -1.3386587    -0.2176540
  H        0.7042560     1.8874530     0.9605880
  H       -0.8818830     0.4322700     1.9353370
  H        1.7837760    -0.2316310     1.4680400
  H       -1.9939520    -1.3968640     0.9617720
  H        0.8436020    -1.1475360    -1.2899680
  H        1.8059140    -2.1013880    -0.1265130
  H       -0.3930520     2.0121160    -1.0836700
  H       -2.3417080     0.9766970    -0.3400740
  H        2.3997000     0.9352960    -0.9928030
  H       -1.9956420    -1.6762600    -1.2784950
units angstrom
no_reorient  #important for SAPT in psi4, default
symmetry c1  #important for SAPT in psi4, default
}

set PROPERTIES_ORIGIN ["COM"]
properties('MP2/aug-cc-pvtz', properties = ['dipole'])
--------------------------------------------------------------------------

    Molecular point group: c1
  Charge       = 0
  Multiplicity = 1
  Basis Set: AUG-CC-PVTZ
    Blend: AUG-CC-PVTZ
  Basis Set: (AUG-CC-PVTZ AUX)
    Blend: AUG-CC-PVTZ-JKFIT

    Orbital Energies [Eh]
    ---------------------

    Doubly Occupied:

       1A    -20.589637     2A    -20.576305     3A    -20.573339
       4A    -20.569433     5A    -20.556987     6A    -11.353298
       7A    -11.298326     8A    -11.291171     9A    -11.286809
      10A    -11.280016    11A     -1.432928    12A     -1.386757
      13A     -1.372754    14A     -1.349015    15A     -1.344713
      16A     -1.054752    17A     -1.022125    18A     -0.904663
      19A     -0.866905    20A     -0.795547    21A     -0.749870
      22A     -0.733252    23A     -0.708163    24A     -0.692663
      25A     -0.665764    26A     -0.643390    27A     -0.619031
      28A     -0.611469    29A     -0.604110    30A     -0.587769
      31A     -0.570006    32A     -0.562242    33A     -0.539803
      34A     -0.514545    35A     -0.503681    36A     -0.489011
      37A     -0.484132    38A     -0.469858    39A     -0.436050
      40A     -0.419400

  @DF-RHF Final Energy:  -569.66813435407630

   => Energetics <=

    Nuclear Repulsion Energy =            632.0042292312983818
    One-Electron Energy =               -2038.3253456323150203
    Two-Electron Energy =                 836.6529820469404513
    Total Energy =                       -569.6681343540763010
  Basis Set: (AUG-CC-PVTZ AUX)
    Blend: AUG-CC-PVTZ-RI
    Molecular point group: c1

    Geometry (in Angstrom), charge = 0, multiplicity = 1:

       Center              X                  Y                   Z               Mass
    ------------   -----------------  -----------------  -----------------  -----------------
         O           -0.121088002975    -1.801270241503     0.452000536808    15.994914619570
         O            0.352110997025     1.393006758497    -1.027550463192    15.994914619570
         O           -1.961474002975     1.370348758497     0.466210536808    15.994914619570
         O            2.708496997025     0.449601758497    -0.208539463192    15.994914619570
         O           -1.677949002975    -0.801203241503    -1.001357463192    15.994914619570
         C            0.457254897025     1.046752358497     0.371797136808    12.000000000000
         C           -0.915650002975     0.473297758497     0.837197536808    12.000000000000
         C            1.528191997025    -0.029871241503     0.417530536808    12.000000000000
         C           -1.221461002975    -0.937419241503     0.336845536808    12.000000000000
         C            1.095671797025    -1.339635941503    -0.220526463192    12.000000000000
         H            0.697937997025     1.886475758497     0.957715536808     1.007825032230
         H           -0.888201002975     0.431292758497     1.932464536808     1.007825032230
         H            1.777457997025    -0.232608241503     1.465167536808     1.007825032230
         H           -2.000270002975    -1.397841241503     0.958899536808     1.007825032230
         H            0.837283997025    -1.148513241503    -1.292840463192     1.007825032230
         H            1.799595997025    -2.102365241503    -0.129385463192     1.007825032230
         H           -0.399370002975     2.011138758497    -1.086542463192     1.007825032230
         H           -2.348026002975     0.975719758497    -0.342946463192     1.007825032230
         H            2.393381997025     0.934318758497    -0.995675463192     1.007825032230
         H           -2.001960002975    -1.677237241503    -1.281367463192     1.007825032230

  Basis Set: AUG-CC-PVTZ
    Blend: AUG-CC-PVTZ
  Basis Set: (AUG-CC-PVTZ AUX)
    Blend: AUG-CC-PVTZ-JKFIT
	 Reference Energy          =    -569.6681343540763010 [Eh]
	 Singles Energy            =      -0.0000000000000000 [Eh]
	 Same-Spin Energy          =      -0.5542477070039100 [Eh]
	 Opposite-Spin Energy      =      -1.7041651385207253 [Eh]
	 Correlation Energy        =      -2.2584128455246351 [Eh]
	 Total Energy              =    -571.9265471996009182 [Eh]

	 ================> DF-SCS-MP2 Energies <==================
	-----------------------------------------------------------
	 SCS Same-Spin Scale       =       0.3333333333333333 [-]
	 SCS Opposite-Spin Scale   =       1.2000000000000000 [-]
	 SCS Same-Spin Energy      =      -0.1847492356679700 [Eh]
	 SCS Opposite-Spin Energy  =      -2.0449981662248704 [Eh]
	 SCS Correlation Energy    =      -2.2297474018928405 [Eh]
	 SCS Total Energy          =    -571.8978817559691379 [Eh]
	-----------------------------------------------------------

  Dipole Moment: [D]
     X:    -2.0479      Y:    -0.9650      Z:    -0.2392     Total:     2.2765

*** Psi4 exiting successfully. Buy a developer a beer!
