                               Psi4 1.3.2 release

  ==> Input File <==

--------------------------------------------------------------------------
#psi4
#
memory 32 gb

molecule  {
0 1
  O       -0.1147700    -1.8002930     0.4548730
  O        0.3584290     1.3939840    -1.0246780
  O       -1.9551560     1.3713260     0.4690830
  O        2.7148150     0.4505790    -0.2056670
  O       -1.6716310    -0.8002260    -0.9984850
  C        0.4315910     1.0135520     0.3497470
  C       -0.9093320     0.4742750     0.8400700
  C        1.5345100    -0.0288940     0.4204030
  C       -1.2151430    -0.9364420     0.3397180
  C        1.0549700    -1.3167000    -0.2286510
  H        0.7042560     1.8874530     0.9605880
  H       -0.8818830     0.4322700     1.9353370
  H        1.7382812    -0.1946285     1.2768306
  H       -1.9939520    -1.3968640     0.9617720
  H        0.8436020    -1.1475360    -1.2899680
  H        1.8059140    -2.1013880    -0.1265130
  H       -0.3930520     2.0121160    -1.0836700
  H       -2.3417080     0.9766970    -0.3400740
  H        2.3997000     0.9352960    -0.9928030
  H       -1.9956420    -1.6762600    -1.2784950
units angstrom
no_reorient  #important for SAPT in psi4, default
symmetry c1  #important for SAPT in psi4, default
}

set PROPERTIES_ORIGIN ["COM"]
properties('MP2/aug-cc-pvtz', properties = ['dipole'])
--------------------------------------------------------------------------

    Molecular point group: c1
  Charge       = 0
  Multiplicity = 1
  Basis Set: AUG-CC-PVTZ
    Blend: AUG-CC-PVTZ
  Basis Set: (AUG-CC-PVTZ AUX)
    Blend: AUG-CC-PVTZ-JKFIT

    Orbital Energies [Eh]
    ---------------------

    Doubly Occupied:

       1A    -20.591510     2A    -20.580881     3A    -20.574601
       4A    -20.570343     5A    -20.555983     6A    -11.353933
       7A    -11.298529     8A    -11.289922     9A    -11.276793
      10A    -11.260723    11A     -1.438755    12A     -1.390853
      13A     -1.375667    14A     -1.353778    15A     -1.346933
      16A     -1.066235    17A     -1.026347    18A     -0.898159
      19A     -0.884852    20A     -0.812789    21A     -0.754916
      22A     -0.727662    23A     -0.711840    24A     -0.696006
      25A     -0.671015    26A     -0.647463    27A     -0.623154
      28A     -0.613735    29A     -0.605679    30A     -0.595387
      31A     -0.571556    32A     -0.555492    33A     -0.544075
      34A     -0.522170    35A     -0.502400    36A     -0.491664
      37A     -0.489148    38A     -0.474284    39A     -0.439930
      40A     -0.415438

  @DF-RHF Final Energy:  -569.64163372742382

   => Energetics <=

    Nuclear Repulsion Energy =            635.1404868194789515
    One-Electron Energy =               -2044.3630409697348114
    Two-Electron Energy =                 839.5809204228319231
    Total Energy =                       -569.6416337274238231
  Basis Set: (AUG-CC-PVTZ AUX)
    Blend: AUG-CC-PVTZ-RI
    Molecular point group: c1

    Geometry (in Angstrom), charge = 0, multiplicity = 1:

       Center              X                  Y                   Z               Mass
    ------------   -----------------  -----------------  -----------------  -----------------
         O           -0.114464527484    -1.800541599737     0.456157345094    15.994914619570
         O            0.358734472516     1.393735400263    -1.023393654906    15.994914619570
         O           -1.954850527484     1.371077400263     0.470367345094    15.994914619570
         O            2.715120472516     0.450330400263    -0.204382654906    15.994914619570
         O           -1.671325527484    -0.800474599737    -0.997200654906    15.994914619570
         C            0.431896472516     1.013303400263     0.351031345094    12.000000000000
         C           -0.909026527484     0.474026400263     0.841354345094    12.000000000000
         C            1.534815472516    -0.029142599737     0.421687345094    12.000000000000
         C           -1.214837527484    -0.936690599737     0.341002345094    12.000000000000
         C            1.055275472516    -1.316948599737    -0.227366654906    12.000000000000
         H            0.704561472516     1.887204400263     0.961872345094     1.007825032230
         H           -0.881577527484     0.432021400263     1.936621345094     1.007825032230
         H            1.738586672516    -0.194877099737     1.278114945094     1.007825032230
         H           -1.993646527484    -1.397112599737     0.963056345094     1.007825032230
         H            0.843907472516    -1.147784599737    -1.288683654906     1.007825032230
         H            1.806219472516    -2.101636599737    -0.125228654906     1.007825032230
         H           -0.392746527484     2.011867400263    -1.082385654906     1.007825032230
         H           -2.341402527484     0.976448400263    -0.338789654906     1.007825032230
         H            2.400005472516     0.935047400263    -0.991518654906     1.007825032230
         H           -1.995336527484    -1.676508599737    -1.277210654906     1.007825032230

  Basis Set: AUG-CC-PVTZ
    Blend: AUG-CC-PVTZ
  Basis Set: (AUG-CC-PVTZ AUX)
    Blend: AUG-CC-PVTZ-JKFIT
	 Reference Energy          =    -569.6416337274238231 [Eh]
	 Singles Energy            =      -0.0000000000000000 [Eh]
	 Same-Spin Energy          =      -0.5545066028670089 [Eh]
	 Opposite-Spin Energy      =      -1.7031066539243360 [Eh]
	 Correlation Energy        =      -2.2576132567913447 [Eh]
	 Total Energy              =    -571.8992469842152104 [Eh]

	 ================> DF-SCS-MP2 Energies <==================
	-----------------------------------------------------------
	 SCS Same-Spin Scale       =       0.3333333333333333 [-]
	 SCS Opposite-Spin Scale   =       1.2000000000000000 [-]
	 SCS Same-Spin Energy      =      -0.1848355342890030 [Eh]
	 SCS Opposite-Spin Energy  =      -2.0437279847092031 [Eh]
	 SCS Correlation Energy    =      -2.2285635189982060 [Eh]
	 SCS Total Energy          =    -571.8701972464219807 [Eh]
	-----------------------------------------------------------

  Dipole Moment: [D]
     X:    -2.1979      Y:    -1.0093      Z:    -0.2368     Total:     2.4301

*** Psi4 exiting successfully. Buy a developer a beer!
