                               Psi4 1.4a3.dev225

  ==> Input File <==

--------------------------------------------------------------------------
#psi4
#
memory 32 gb

molecule  {
0 1
  O       -0.2343850     1.7978400    -0.4145210
  O        0.4791390    -1.3900560     0.9851260
  O       -1.8902550    -1.4798720    -0.4079610
  O        2.7489250    -0.2990660     0.0843650
  O       -1.6766260     0.6849030     1.0797040
  C        0.4758930    -0.9871420    -0.3839460
  C       -0.8971218    -0.5221915    -0.8056830
  C        1.5148540     0.1205520    -0.4811210
  C       -1.2794180     0.8705190    -0.2725550
  C        0.9914930     1.3693070     0.2124490
  H        0.7732420    -1.8350180    -1.0199460
  H       -0.9367810    -0.4539690    -1.9062570
  H        1.7061480     0.3550680    -1.5342930
  H       -2.1075740     1.2945610    -0.8542440
  H        0.8333730     1.1741050     1.2776920
  H        1.6908660     2.1982840     0.0933200
  H       -0.2684360    -2.0097880     1.0741120
  H       -2.2907410    -1.1048270     0.4011470
  H        2.5001980    -0.8049050     0.8819700
  H       -2.0397460     1.5332780     1.3914430
units angstrom
no_reorient  #important for SAPT in psi4, default
symmetry c1  #important for SAPT in psi4, default
}

set PROPERTIES_ORIGIN ["COM"]
properties('MP2/aug-cc-pvtz', properties = ['dipole'])
--------------------------------------------------------------------------

    Molecular point group: c1
  Charge       = 0
  Multiplicity = 1
  Basis Set: AUG-CC-PVTZ
    Blend: AUG-CC-PVTZ
  Basis Set: (AUG-CC-PVTZ AUX)
    Blend: AUG-CC-PVTZ-JKFIT

    Orbital Energies [Eh]
    ---------------------

    Doubly Occupied:

       1A    -20.591820     2A    -20.580926     3A    -20.574347
       4A    -20.570364     5A    -20.559101     6A    -11.355341
       7A    -11.299970     8A    -11.291056     9A    -11.286861
      10A    -11.279093    11A     -1.437801    12A     -1.391021
      13A     -1.374322    14A     -1.353431    15A     -1.347410
      16A     -1.060739    17A     -1.021992    18A     -0.898486
      19A     -0.871054    20A     -0.797707    21A     -0.752102
      22A     -0.727688    23A     -0.711833    24A     -0.695660
      25A     -0.668864    26A     -0.647061    27A     -0.620946
      28A     -0.614895    29A     -0.601241    30A     -0.583744
      31A     -0.572494    32A     -0.556157    33A     -0.542635
      34A     -0.514862    35A     -0.502782    36A     -0.490409
      37A     -0.486990    38A     -0.471230    39A     -0.444692
      40A     -0.415934

  @DF-RHF Final Energy:  -569.67384959588708

   => Energetics <=

    Nuclear Repulsion Energy =            633.3183465835235211
    One-Electron Energy =               -2040.8542715111498183
    Two-Electron Energy =                 837.8620753317391063
    Total Energy =                       -569.6738495958870772
  Basis Set: (AUG-CC-PVTZ AUX)
    Blend: AUG-CC-PVTZ-RI
    Molecular point group: c1

    Geometry (in Angstrom), charge = 0, multiplicity = 1:

       Center              X                  Y                   Z               Mass
    ------------   -----------------  -----------------  -----------------  -----------------
         O           -0.236781110473     1.800602290692    -0.416212449947    15.994914619570
         O            0.476742889527    -1.387293709308     0.983434550053    15.994914619570
         O           -1.892651110473    -1.477109709308    -0.409652449947    15.994914619570
         O            2.746528889527    -0.296303709308     0.082673550053    15.994914619570
         O           -1.679022110473     0.687665290692     1.078012550053    15.994914619570
         C            0.473496889527    -0.984379709308    -0.385637449947    12.000000000000
         C           -0.899517910473    -0.519429209308    -0.807374449947    12.000000000000
         C            1.512457889527     0.123314290692    -0.482812449947    12.000000000000
         C           -1.281814110473     0.873281290692    -0.274246449947    12.000000000000
         C            0.989096889527     1.372069290692     0.210757550053    12.000000000000
         H            0.770845889527    -1.832255709308    -1.021637449947     1.007825032230
         H           -0.939177110473    -0.451206709308    -1.907948449947     1.007825032230
         H            1.703751889527     0.357830290692    -1.535984449947     1.007825032230
         H           -2.109970110473     1.297323290692    -0.855935449947     1.007825032230
         H            0.830976889527     1.176867290692     1.276000550053     1.007825032230
         H            1.688469889527     2.201046290692     0.091628550053     1.007825032230
         H           -0.270832110473    -2.007025709308     1.072420550053     1.007825032230
         H           -2.293137110473    -1.102064709308     0.399455550053     1.007825032230
         H            2.497801889527    -0.802142709308     0.880278550053     1.007825032230
         H           -2.042142110473     1.536040290692     1.389751550053     1.007825032230

  Basis Set: AUG-CC-PVTZ
    Blend: AUG-CC-PVTZ
  Basis Set: (AUG-CC-PVTZ AUX)
    Blend: AUG-CC-PVTZ-JKFIT
	 Reference Energy          =    -569.6738495958870772 [Eh]
	 Singles Energy            =      -0.0000000000000000 [Eh]
	 Same-Spin Energy          =      -0.5546154297355752 [Eh]
	 Opposite-Spin Energy      =      -1.7041696269164135 [Eh]
	 Correlation Energy        =      -2.2587850566519885 [Eh]
	 Total Energy              =    -571.9326346525390363 [Eh]

	 ================> DF-SCS-MP2 Energies <==================
	-----------------------------------------------------------
	 SCS Same-Spin Scale       =       0.3333333333333333 [-]
	 SCS Opposite-Spin Scale   =       1.2000000000000000 [-]
	 SCS Same-Spin Energy      =      -0.1848718099118584 [Eh]
	 SCS Opposite-Spin Energy  =      -2.0450035522996961 [Eh]
	 SCS Correlation Energy    =      -2.2298753622115544 [Eh]
	 SCS Total Energy          =    -571.9037249580986781 [Eh]
	-----------------------------------------------------------

  Dipole Moment: [D]
     X:    -2.2568      Y:     0.9782      Z:     0.3999     Total:     2.4920

*** Psi4 exiting successfully. Buy a developer a beer!
