                               Psi4 1.4a3.dev225

  ==> Input File <==

--------------------------------------------------------------------------
#psi4
#
memory 32 gb

molecule  {
0 1
  O       -0.2343850     1.7978400    -0.4145210
  O        0.4791390    -1.3900560     0.9851260
  O       -1.8902550    -1.4798720    -0.4079610
  O        2.7489250    -0.2990660     0.0843650
  O       -1.6766260     0.6849030     1.0797040
  C        0.4758930    -0.9871420    -0.3839460
  C       -0.9153110    -0.5160320    -0.8112700
  C        1.5148540     0.1205520    -0.4811210
  C       -1.2794180     0.8705190    -0.2725550
  C        0.9914930     1.3693070     0.2124490
  H        0.7732420    -1.8350180    -1.0199460
  H       -0.9367810    -0.4539690    -1.9062570
  H        1.7061480     0.3550680    -1.5342930
  H       -2.1075740     1.2945610    -0.8542440
  H        0.8333730     1.1741050     1.2776920
  H        1.6908660     2.1982840     0.0933200
  H       -0.2684360    -2.0097880     1.0741120
  H       -2.2907410    -1.1048270     0.4011470
  H        2.5129312    -0.7790093     0.8411377
  H       -2.0397460     1.5332780     1.3914430
units angstrom
no_reorient  #important for SAPT in psi4, default
symmetry c1  #important for SAPT in psi4, default
}

set PROPERTIES_ORIGIN ["COM"]
properties('MP2/aug-cc-pvtz', properties = ['dipole'])
--------------------------------------------------------------------------

    Molecular point group: c1
  Charge       = 0
  Multiplicity = 1
  Basis Set: AUG-CC-PVTZ
    Blend: AUG-CC-PVTZ
  Basis Set: (AUG-CC-PVTZ AUX)
    Blend: AUG-CC-PVTZ-JKFIT

    Orbital Energies [Eh]
    ---------------------

    Doubly Occupied:

       1A    -20.592121     2A    -20.581509     3A    -20.575314
       4A    -20.569487     5A    -20.555171     6A    -11.355044
       7A    -11.299810     8A    -11.291403     9A    -11.286948
      10A    -11.279296    11A     -1.438349    12A     -1.393096
      13A     -1.379047    14A     -1.356325    15A     -1.351295
      16A     -1.059305    17A     -1.023793    18A     -0.898822
      19A     -0.872417    20A     -0.800440    21A     -0.752667
      22A     -0.728050    23A     -0.712528    24A     -0.696911
      25A     -0.671136    26A     -0.650451    27A     -0.621585
      28A     -0.615345    29A     -0.601763    30A     -0.585481
      31A     -0.573240    32A     -0.557815    33A     -0.543427
      34A     -0.516796    35A     -0.503354    36A     -0.490722
      37A     -0.488769    38A     -0.471932    39A     -0.441587
      40A     -0.416659

  @DF-RHF Final Energy:  -569.67526340282916

   => Energetics <=

    Nuclear Repulsion Energy =            633.4174602462115899
    One-Electron Energy =               -2040.9870267405551658
    Two-Electron Energy =                 837.8943030915145300
    Total Energy =                       -569.6752634028291595
  Basis Set: (AUG-CC-PVTZ AUX)
    Blend: AUG-CC-PVTZ-RI
    Molecular point group: c1

    Geometry (in Angstrom), charge = 0, multiplicity = 1:

       Center              X                  Y                   Z               Mass
    ------------   -----------------  -----------------  -----------------  -----------------
         O           -0.235412008862     1.799935776511    -0.415491398442    15.994914619570
         O            0.478111991138    -1.387960223489     0.984155601558    15.994914619570
         O           -1.891282008862    -1.477776223489    -0.408931398442    15.994914619570
         O            2.747897991138    -0.296970223489     0.083394601558    15.994914619570
         O           -1.677653008862     0.686998776511     1.078733601558    15.994914619570
         C            0.474865991138    -0.985046223489    -0.384916398442    12.000000000000
         C           -0.916338008862    -0.513936223489    -0.812240398442    12.000000000000
         C            1.513826991138     0.122647776511    -0.482091398442    12.000000000000
         C           -1.280445008862     0.872614776511    -0.273525398442    12.000000000000
         C            0.990465991138     1.371402776511     0.211478601558    12.000000000000
         H            0.772214991138    -1.832922223489    -1.020916398442     1.007825032230
         H           -0.937808008862    -0.451873223489    -1.907227398442     1.007825032230
         H            1.705120991138     0.357163776511    -1.535263398442     1.007825032230
         H           -2.108601008862     1.296656776511    -0.855214398442     1.007825032230
         H            0.832345991138     1.176200776511     1.276721601558     1.007825032230
         H            1.689838991138     2.200379776511     0.092349601558     1.007825032230
         H           -0.269463008862    -2.007692223489     1.073141601558     1.007825032230
         H           -2.291768008862    -1.102731223489     0.400176601558     1.007825032230
         H            2.511904191138    -0.776913523489     0.840167301558     1.007825032230
         H           -2.040773008862     1.535373776511     1.390472601558     1.007825032230

  Basis Set: AUG-CC-PVTZ
    Blend: AUG-CC-PVTZ
  Basis Set: (AUG-CC-PVTZ AUX)
    Blend: AUG-CC-PVTZ-JKFIT
	 Reference Energy          =    -569.6752634028291595 [Eh]
	 Singles Energy            =      -0.0000000000000000 [Eh]
	 Same-Spin Energy          =      -0.5538410574627823 [Eh]
	 Opposite-Spin Energy      =      -1.7024351625307514 [Eh]
	 Correlation Energy        =      -2.2562762199935338 [Eh]
	 Total Energy              =    -571.9315396228226973 [Eh]

	 ================> DF-SCS-MP2 Energies <==================
	-----------------------------------------------------------
	 SCS Same-Spin Scale       =       0.3333333333333333 [-]
	 SCS Opposite-Spin Scale   =       1.2000000000000000 [-]
	 SCS Same-Spin Energy      =      -0.1846136858209274 [Eh]
	 SCS Opposite-Spin Energy  =      -2.0429221950369016 [Eh]
	 SCS Correlation Energy    =      -2.2275358808578289 [Eh]
	 SCS Total Energy          =    -571.9027992836870453 [Eh]
	-----------------------------------------------------------

  Dipole Moment: [D]
     X:    -2.2861      Y:     1.0007      Z:     0.3563     Total:     2.5209

*** Psi4 exiting successfully. Buy a developer a beer!
