                               Psi4 1.3.2 release

  ==> Input File <==

--------------------------------------------------------------------------
#psi4
#
memory 32 gb

molecule  {
0 1
  O       -0.1147700    -1.8002930     0.4548730
  O        0.3584290     1.3939840    -1.0246780
  O       -1.9036752     1.4150140     0.4371167
  O        2.7148150     0.4505790    -0.2056670
  O       -1.6716310    -0.8002260    -0.9984850
  C        0.3927703     1.0763197     0.3191261
  C       -0.9093320     0.4742750     0.8400700
  C        1.5345100    -0.0288940     0.4204030
  C       -1.2151430    -0.9364420     0.3397180
  C        1.0549700    -1.3167000    -0.2286510
  H        0.7042560     1.8874530     0.9605880
  H       -0.8818830     0.4322700     1.9353370
  H        1.7837760    -0.2316310     1.4680400
  H       -1.9939520    -1.3968640     0.9617720
  H        0.8436020    -1.1475360    -1.2899680
  H        1.8059140    -2.1013880    -0.1265130
  H       -0.3930520     2.0121160    -1.0836700
  H       -2.3417080     0.9766970    -0.3400740
  H        2.3997000     0.9352960    -0.9928030
  H       -1.9956420    -1.6762600    -1.2784950
units angstrom
no_reorient  #important for SAPT in psi4, default
symmetry c1  #important for SAPT in psi4, default
}

set PROPERTIES_ORIGIN ["COM"]
properties('MP2/aug-cc-pvtz', properties = ['dipole'])
--------------------------------------------------------------------------

    Molecular point group: c1
  Charge       = 0
  Multiplicity = 1
  Basis Set: AUG-CC-PVTZ
    Blend: AUG-CC-PVTZ
  Basis Set: (AUG-CC-PVTZ AUX)
    Blend: AUG-CC-PVTZ-JKFIT

    Orbital Energies [Eh]
    ---------------------

    Doubly Occupied:

       1A    -20.592663     2A    -20.580544     3A    -20.575611
       4A    -20.573786     5A    -20.555183     6A    -11.355463
       7A    -11.296124     8A    -11.287550     9A    -11.283560
      10A    -11.276608    11A     -1.439300    12A     -1.403844
      13A     -1.373625    14A     -1.354020    15A     -1.350031
      16A     -1.047093    17A     -1.020272    18A     -0.898204
      19A     -0.863579    20A     -0.797856    21A     -0.752042
      22A     -0.731404    23A     -0.713841    24A     -0.692594
      25A     -0.673675    26A     -0.646598    27A     -0.621503
      28A     -0.617118    29A     -0.601755    30A     -0.583240
      31A     -0.569869    32A     -0.555686    33A     -0.551913
      34A     -0.513271    35A     -0.503095    36A     -0.492530
      37A     -0.485136    38A     -0.464883    39A     -0.430218
      40A     -0.412925

  @DF-RHF Final Energy:  -569.66649408232900

   => Energetics <=

    Nuclear Repulsion Energy =            633.8880221709326861
    One-Electron Energy =               -2042.0326046123786909
    Two-Electron Energy =                 838.4780883591168958
    Total Energy =                       -569.6664940823289953
  Basis Set: (AUG-CC-PVTZ AUX)
    Blend: AUG-CC-PVTZ-RI
    Molecular point group: c1

    Geometry (in Angstrom), charge = 0, multiplicity = 1:

       Center              X                  Y                   Z               Mass
    ------------   -----------------  -----------------  -----------------  -----------------
         O           -0.117153136665    -1.809969654151     0.460729357828    15.994914619570
         O            0.356045863335     1.384307345849    -1.018821642172    15.994914619570
         O           -1.906058336665     1.405337345849     0.442973057828    15.994914619570
         O            2.712431863335     0.440902345849    -0.199810642172    15.994914619570
         O           -1.674014136665    -0.809902654151    -0.992628642172    15.994914619570
         C            0.390387163335     1.066643045849     0.324982457828    12.000000000000
         C           -0.911715136665     0.464598345849     0.845926357828    12.000000000000
         C            1.532126863335    -0.038570654151     0.426259357828    12.000000000000
         C           -1.217526136665    -0.946118654151     0.345574357828    12.000000000000
         C            1.052586863335    -1.326376654151    -0.222794642172    12.000000000000
         H            0.701872863335     1.877776345849     0.966444357828     1.007825032230
         H           -0.884266136665     0.422593345849     1.941193357828     1.007825032230
         H            1.781392863335    -0.241307654151     1.473896357828     1.007825032230
         H           -1.996335136665    -1.406540654151     0.967628357828     1.007825032230
         H            0.841218863335    -1.157212654151    -1.284111642172     1.007825032230
         H            1.803530863335    -2.111064654151    -0.120656642172     1.007825032230
         H           -0.395435136665     2.002439345849    -1.077813642172     1.007825032230
         H           -2.344091136665     0.967020345849    -0.334217642172     1.007825032230
         H            2.397316863335     0.925619345849    -0.986946642172     1.007825032230
         H           -1.998025136665    -1.685936654151    -1.272638642172     1.007825032230

  Basis Set: AUG-CC-PVTZ
    Blend: AUG-CC-PVTZ
  Basis Set: (AUG-CC-PVTZ AUX)
    Blend: AUG-CC-PVTZ-JKFIT
	 Reference Energy          =    -569.6664940823289953 [Eh]
	 Singles Energy            =      -0.0000000000000000 [Eh]
	 Same-Spin Energy          =      -0.5550059619841230 [Eh]
	 Opposite-Spin Energy      =      -1.7044000452396255 [Eh]
	 Correlation Energy        =      -2.2594060072237485 [Eh]
	 Total Energy              =    -571.9259000895527834 [Eh]

	 ================> DF-SCS-MP2 Energies <==================
	-----------------------------------------------------------
	 SCS Same-Spin Scale       =       0.3333333333333333 [-]
	 SCS Opposite-Spin Scale   =       1.2000000000000000 [-]
	 SCS Same-Spin Energy      =      -0.1850019873280410 [Eh]
	 SCS Opposite-Spin Energy  =      -2.0452800542875504 [Eh]
	 SCS Correlation Energy    =      -2.2302820416155913 [Eh]
	 SCS Total Energy          =    -571.8967761239446190 [Eh]
	-----------------------------------------------------------

  Dipole Moment: [D]
     X:    -2.3550      Y:    -0.9875      Z:    -0.3518     Total:     2.5778

*** Psi4 exiting successfully. Buy a developer a beer!
