                               Psi4 1.3.2 release

  ==> Input File <==

--------------------------------------------------------------------------
#psi4
#
memory 32 gb

molecule  {
0 1
  O       -0.1147700    -1.8002930     0.4548730
  O        0.3584290     1.3939840    -1.0246780
  O       -1.9551560     1.3713260     0.4690830
  O        2.7148150     0.4505790    -0.2056670
  O       -1.6716310    -0.8002260    -0.9984850
  C        0.4902078     0.9704131     0.3326529
  C       -0.9093320     0.4742750     0.8400700
  C        1.5345100    -0.0288940     0.4204030
  C       -1.2151430    -0.9364420     0.3397180
  C        1.0549700    -1.3167000    -0.2286510
  H        0.7042560     1.8874530     0.9605880
  H       -0.8818830     0.4322700     1.9353370
  H        1.7837760    -0.2316310     1.4680400
  H       -1.9939520    -1.3968640     0.9617720
  H        0.8436020    -1.1475360    -1.2899680
  H        1.8059140    -2.1013880    -0.1265130
  H       -0.3838521     2.0164204    -1.1336851
  H       -2.3417080     0.9766970    -0.3400740
  H        2.3997000     0.9352960    -0.9928030
  H       -1.9956420    -1.6762600    -1.2784950
units angstrom
no_reorient  #important for SAPT in psi4, default
symmetry c1  #important for SAPT in psi4, default
}

set PROPERTIES_ORIGIN ["COM"]
properties('MP2/aug-cc-pvtz', properties = ['dipole'])
--------------------------------------------------------------------------

    Molecular point group: c1
  Charge       = 0
  Multiplicity = 1
  Basis Set: AUG-CC-PVTZ
    Blend: AUG-CC-PVTZ
  Basis Set: (AUG-CC-PVTZ AUX)
    Blend: AUG-CC-PVTZ-JKFIT

    Orbital Energies [Eh]
    ---------------------

    Doubly Occupied:

       1A    -20.591038     2A    -20.580923     3A    -20.575207
       4A    -20.568495     5A    -20.558473     6A    -11.352227
       7A    -11.299522     8A    -11.293789     9A    -11.283756
      10A    -11.278989    11A     -1.438314    12A     -1.390066
      13A     -1.376260    14A     -1.353747    15A     -1.346593
      16A     -1.065708    17A     -1.022638    18A     -0.900757
      19A     -0.869180    20A     -0.801566    21A     -0.752523
      22A     -0.724496    23A     -0.710929    24A     -0.696074
      25A     -0.673739    26A     -0.645431    27A     -0.620495
      28A     -0.617653    29A     -0.598706    30A     -0.585423
      31A     -0.572376    32A     -0.556186    33A     -0.535775
      34A     -0.520142    35A     -0.501393    36A     -0.489213
      37A     -0.488226    38A     -0.477034    39A     -0.438405
      40A     -0.410531

  @DF-RHF Final Energy:  -569.66778479491302

   => Energetics <=

    Nuclear Repulsion Energy =            634.2034208228525358
    One-Electron Energy =               -2042.6184185832921685
    Two-Electron Energy =                 838.7472129655267281
    Total Energy =                       -569.6677847949130182
  Basis Set: (AUG-CC-PVTZ AUX)
    Blend: AUG-CC-PVTZ-RI
    Molecular point group: c1

    Geometry (in Angstrom), charge = 0, multiplicity = 1:

       Center              X                  Y                   Z               Mass
    ------------   -----------------  -----------------  -----------------  -----------------
         O           -0.119519575902    -1.796872086887     0.456576064639    15.994914619570
         O            0.353679424098     1.397404913113    -1.022974935361    15.994914619570
         O           -1.959905575902     1.374746913113     0.470786064639    15.994914619570
         O            2.710065424098     0.453999913113    -0.203963935361    15.994914619570
         O           -1.676380575902    -0.796805086887    -0.996781935361    15.994914619570
         C            0.485458224098     0.973834013113     0.334355964639    12.000000000000
         C           -0.914081575902     0.477695913113     0.841773064639    12.000000000000
         C            1.529760424098    -0.025473086887     0.422106064639    12.000000000000
         C           -1.219892575902    -0.933021086887     0.341421064639    12.000000000000
         C            1.050220424098    -1.313279086887    -0.226947935361    12.000000000000
         H            0.699506424098     1.890873913113     0.962291064639     1.007825032230
         H           -0.886632575902     0.435690913113     1.937040064639     1.007825032230
         H            1.779026424098    -0.228210086887     1.469743064639     1.007825032230
         H           -1.998701575902    -1.393443086887     0.963475064639     1.007825032230
         H            0.838852424098    -1.144115086887    -1.288264935361     1.007825032230
         H            1.801164424098    -2.097967086887    -0.124809935361     1.007825032230
         H           -0.388601675902     2.019841313113    -1.131982035361     1.007825032230
         H           -2.346457575902     0.980117913113    -0.338370935361     1.007825032230
         H            2.394950424098     0.938716913113    -0.991099935361     1.007825032230
         H           -2.000391575902    -1.672839086887    -1.276791935361     1.007825032230

  Basis Set: AUG-CC-PVTZ
    Blend: AUG-CC-PVTZ
  Basis Set: (AUG-CC-PVTZ AUX)
    Blend: AUG-CC-PVTZ-JKFIT
	 Reference Energy          =    -569.6677847949130182 [Eh]
	 Singles Energy            =      -0.0000000000000000 [Eh]
	 Same-Spin Energy          =      -0.5549243904945192 [Eh]
	 Opposite-Spin Energy      =      -1.7041375911677790 [Eh]
	 Correlation Energy        =      -2.2590619816622981 [Eh]
	 Total Energy              =    -571.9268467765753030 [Eh]

	 ================> DF-SCS-MP2 Energies <==================
	-----------------------------------------------------------
	 SCS Same-Spin Scale       =       0.3333333333333333 [-]
	 SCS Opposite-Spin Scale   =       1.2000000000000000 [-]
	 SCS Same-Spin Energy      =      -0.1849747968315064 [Eh]
	 SCS Opposite-Spin Energy  =      -2.0449651094013346 [Eh]
	 SCS Correlation Energy    =      -2.2299399062328411 [Eh]
	 SCS Total Energy          =    -571.8977247011458758 [Eh]
	-----------------------------------------------------------

  Dipole Moment: [D]
     X:    -2.1533      Y:    -1.0153      Z:    -0.3681     Total:     2.4090

*** Psi4 exiting successfully. Buy a developer a beer!
