                               Psi4 1.3.2 release

  ==> Input File <==

--------------------------------------------------------------------------
#psi4
#
memory 32 gb

molecule  {
0 1
  O       -0.1147700    -1.8002930     0.4548730
  O        0.4137404     1.3457516    -1.0389394
  O       -1.9551560     1.3713260     0.4690830
  O        2.7148150     0.4505790    -0.2056670
  O       -1.6716310    -0.8002260    -0.9984850
  C        0.4315910     1.0135520     0.3497470
  C       -0.9093320     0.4742750     0.8400700
  C        1.5446221    -0.0204777     0.3419600
  C       -1.2151430    -0.9364420     0.3397180
  C        1.0549700    -1.3167000    -0.2286510
  H        0.7042560     1.8874530     0.9605880
  H       -0.8818830     0.4322700     1.9353370
  H        1.7837760    -0.2316310     1.4680400
  H       -1.9939520    -1.3968640     0.9617720
  H        0.8436020    -1.1475360    -1.2899680
  H        1.8059140    -2.1013880    -0.1265130
  H       -0.3930520     2.0121160    -1.0836700
  H       -2.3417080     0.9766970    -0.3400740
  H        2.3997000     0.9352960    -0.9928030
  H       -1.9956420    -1.6762600    -1.2784950
units angstrom
no_reorient  #important for SAPT in psi4, default
symmetry c1  #important for SAPT in psi4, default
}

set PROPERTIES_ORIGIN ["COM"]
properties('MP2/aug-cc-pvtz', properties = ['dipole'])
--------------------------------------------------------------------------

    Molecular point group: c1
  Charge       = 0
  Multiplicity = 1
  Basis Set: AUG-CC-PVTZ
    Blend: AUG-CC-PVTZ
  Basis Set: (AUG-CC-PVTZ AUX)
    Blend: AUG-CC-PVTZ-JKFIT

    Orbital Energies [Eh]
    ---------------------

    Doubly Occupied:

       1A    -20.591861     2A    -20.581744     3A    -20.578795
       4A    -20.576947     5A    -20.562774     6A    -11.354294
       7A    -11.299887     8A    -11.289821     9A    -11.285885
      10A    -11.275704    11A     -1.439050    12A     -1.396543
      13A     -1.381386    14A     -1.356464    15A     -1.347934
      16A     -1.054257    17A     -1.024349    18A     -0.898897
      19A     -0.868402    20A     -0.791079    21A     -0.751578
      22A     -0.731051    23A     -0.713215    24A     -0.697550
      25A     -0.664638    26A     -0.647563    27A     -0.624304
      28A     -0.611530    29A     -0.602770    30A     -0.580998
      31A     -0.575034    32A     -0.563151    33A     -0.546142
      34A     -0.509280    35A     -0.503048    36A     -0.492321
      37A     -0.486885    38A     -0.455635    39A     -0.442037
      40A     -0.417126

  @DF-RHF Final Energy:  -569.65478564937575

   => Energetics <=

    Nuclear Repulsion Energy =            634.7924855860001117
    One-Electron Energy =               -2043.7506887618719702
    Two-Electron Energy =                 839.3034175264961050
    Total Energy =                       -569.6547856493757536
  Basis Set: (AUG-CC-PVTZ AUX)
    Blend: AUG-CC-PVTZ-RI
    Molecular point group: c1

    Geometry (in Angstrom), charge = 0, multiplicity = 1:

       Center              X                  Y                   Z               Mass
    ------------   -----------------  -----------------  -----------------  -----------------
         O           -0.121474706265    -1.795824797017     0.462666521218    15.994914619570
         O            0.407035693735     1.350219802983    -1.031145878782    15.994914619570
         O           -1.961860706265     1.375794202983     0.476876521218    15.994914619570
         O            2.708110293735     0.455047202983    -0.197873478782    15.994914619570
         O           -1.678335706265    -0.795757797017    -0.990691478782    15.994914619570
         C            0.424886293735     1.018020202983     0.357540521218    12.000000000000
         C           -0.916036706265     0.478743202983     0.847863521218    12.000000000000
         C            1.537917393735    -0.016009497017     0.349753521218    12.000000000000
         C           -1.221847706265    -0.931973797017     0.347511521218    12.000000000000
         C            1.048265293735    -1.312231797017    -0.220857478782    12.000000000000
         H            0.697551293735     1.891921202983     0.968381521218     1.007825032230
         H           -0.888587706265     0.436738202983     1.943130521218     1.007825032230
         H            1.777071293735    -0.227162797017     1.475833521218     1.007825032230
         H           -2.000656706265    -1.392395797017     0.969565521218     1.007825032230
         H            0.836897293735    -1.143067797017    -1.282174478782     1.007825032230
         H            1.799209293735    -2.096919797017    -0.118719478782     1.007825032230
         H           -0.399756706265     2.016584202983    -1.075876478782     1.007825032230
         H           -2.348412706265     0.981165202983    -0.332280478782     1.007825032230
         H            2.392995293735     0.939764202983    -0.985009478782     1.007825032230
         H           -2.002346706265    -1.671791797017    -1.270701478782     1.007825032230

  Basis Set: AUG-CC-PVTZ
    Blend: AUG-CC-PVTZ
  Basis Set: (AUG-CC-PVTZ AUX)
    Blend: AUG-CC-PVTZ-JKFIT
	 Reference Energy          =    -569.6547856493757536 [Eh]
	 Singles Energy            =      -0.0000000000000000 [Eh]
	 Same-Spin Energy          =      -0.5566647456200731 [Eh]
	 Opposite-Spin Energy      =      -1.7076624493042598 [Eh]
	 Correlation Energy        =      -2.2643271949243329 [Eh]
	 Total Energy              =    -571.9191128443001162 [Eh]

	 ================> DF-SCS-MP2 Energies <==================
	-----------------------------------------------------------
	 SCS Same-Spin Scale       =       0.3333333333333333 [-]
	 SCS Opposite-Spin Scale   =       1.2000000000000000 [-]
	 SCS Same-Spin Energy      =      -0.1855549152066910 [Eh]
	 SCS Opposite-Spin Energy  =      -2.0491949391651119 [Eh]
	 SCS Correlation Energy    =      -2.2347498543718030 [Eh]
	 SCS Total Energy          =    -571.8895355037475383 [Eh]
	-----------------------------------------------------------

  Dipole Moment: [D]
     X:    -2.2349      Y:    -0.8283      Z:    -0.4467     Total:     2.4250

*** Psi4 exiting successfully. Buy a developer a beer!
