                               Psi4 1.3.2 release

  ==> Input File <==

--------------------------------------------------------------------------
#psi4
#
memory 32 gb

molecule  {
0 1
  O       -0.1147700    -1.8002930     0.4548730
  O        0.3584290     1.3939840    -1.0246780
  O       -1.9551560     1.3713260     0.4690830
  O        2.7148150     0.4505790    -0.2056670
  O       -1.6716310    -0.8002260    -0.9984850
  C        0.4315910     1.0135520     0.3497470
  C       -0.9093320     0.4742750     0.8400700
  C        1.3893173     0.1083378     0.4111016
  C       -1.2151430    -0.9364420     0.3397180
  C        1.0549700    -1.3167000    -0.2286510
  H        0.7042560     1.8874530     0.9605880
  H       -0.8818830     0.4322700     1.9353370
  H        1.7837760    -0.2316310     1.4680400
  H       -1.9939520    -1.3968640     0.9617720
  H        0.8436020    -1.1475360    -1.2899680
  H        1.8059140    -2.1013880    -0.1265130
  H       -0.3930520     2.0121160    -1.0836700
  H       -2.3417080     0.9766970    -0.3400740
  H        2.3997000     0.9352960    -0.9928030
  H       -1.9956420    -1.6762600    -1.2784950
units angstrom
no_reorient  #important for SAPT in psi4, default
symmetry c1  #important for SAPT in psi4, default
}

set PROPERTIES_ORIGIN ["COM"]
properties('MP2/aug-cc-pvtz', properties = ['dipole'])
--------------------------------------------------------------------------

    Molecular point group: c1
  Charge       = 0
  Multiplicity = 1
  Basis Set: AUG-CC-PVTZ
    Blend: AUG-CC-PVTZ
  Basis Set: (AUG-CC-PVTZ AUX)
    Blend: AUG-CC-PVTZ-JKFIT

    Orbital Energies [Eh]
    ---------------------

    Doubly Occupied:

       1A    -20.592917     2A    -20.578889     3A    -20.578289
       4A    -20.574721     5A    -20.554226     6A    -11.355956
       7A    -11.304663     8A    -11.288503     9A    -11.285692
      10A    -11.283813    11A     -1.440140    12A     -1.397273
      13A     -1.375566    14A     -1.354989    15A     -1.328536
      16A     -1.097630    17A     -1.017798    18A     -0.912183
      19A     -0.871906    20A     -0.788990    21A     -0.752689
      22A     -0.735938    23A     -0.715196    24A     -0.697734
      25A     -0.673484    26A     -0.641527    27A     -0.617090
      28A     -0.614054    29A     -0.605322    30A     -0.577521
      31A     -0.567393    32A     -0.555082    33A     -0.538430
      34A     -0.519605    35A     -0.502403    36A     -0.495048
      37A     -0.484514    38A     -0.481093    39A     -0.448783
      40A     -0.400304

  @DF-RHF Final Energy:  -569.61940305638143

   => Energetics <=

    Nuclear Repulsion Energy =            636.1527139794682171
    One-Electron Energy =               -2046.3324508380248972
    Two-Electron Energy =                 840.5603338021752506
    Total Energy =                       -569.6194030563814295
  Basis Set: (AUG-CC-PVTZ AUX)
    Blend: AUG-CC-PVTZ-RI
    Molecular point group: c1

    Geometry (in Angstrom), charge = 0, multiplicity = 1:

       Center              X                  Y                   Z               Mass
    ------------   -----------------  -----------------  -----------------  -----------------
         O           -0.103158764866    -1.811267752818     0.455616943268    15.994914619570
         O            0.370040235134     1.383009247182    -1.023934056732    15.994914619570
         O           -1.943544764866     1.360351247182     0.469826943268    15.994914619570
         O            2.726426235134     0.439604247182    -0.204923056732    15.994914619570
         O           -1.660019764866    -0.811200752818    -0.997741056732    15.994914619570
         C            0.443202235134     1.002577247182     0.350490943268    12.000000000000
         C           -0.897720764866     0.463300247182     0.840813943268    12.000000000000
         C            1.400928535134     0.097363047182     0.411845543268    12.000000000000
         C           -1.203531764866    -0.947416752818     0.340461943268    12.000000000000
         C            1.066581235134    -1.327674752818    -0.227907056732    12.000000000000
         H            0.715867235134     1.876478247182     0.961331943268     1.007825032230
         H           -0.870271764866     0.421295247182     1.936080943268     1.007825032230
         H            1.795387235134    -0.242605752818     1.468783943268     1.007825032230
         H           -1.982340764866    -1.407838752818     0.962515943268     1.007825032230
         H            0.855213235134    -1.158510752818    -1.289224056732     1.007825032230
         H            1.817525235134    -2.112362752818    -0.125769056732     1.007825032230
         H           -0.381440764866     2.001141247182    -1.082926056732     1.007825032230
         H           -2.330096764866     0.965722247182    -0.339330056732     1.007825032230
         H            2.411311235134     0.924321247182    -0.992059056732     1.007825032230
         H           -1.984030764866    -1.687234752818    -1.277751056732     1.007825032230

  Basis Set: AUG-CC-PVTZ
    Blend: AUG-CC-PVTZ
  Basis Set: (AUG-CC-PVTZ AUX)
    Blend: AUG-CC-PVTZ-JKFIT
	 Reference Energy          =    -569.6194030563814295 [Eh]
	 Singles Energy            =      -0.0000000000000000 [Eh]
	 Same-Spin Energy          =      -0.5580518160430450 [Eh]
	 Opposite-Spin Energy      =      -1.7103863253638409 [Eh]
	 Correlation Energy        =      -2.2684381414068859 [Eh]
	 Total Energy              =    -571.8878411977883616 [Eh]

	 ================> DF-SCS-MP2 Energies <==================
	-----------------------------------------------------------
	 SCS Same-Spin Scale       =       0.3333333333333333 [-]
	 SCS Opposite-Spin Scale   =       1.2000000000000000 [-]
	 SCS Same-Spin Energy      =      -0.1860172720143483 [Eh]
	 SCS Opposite-Spin Energy  =      -2.0524635904366089 [Eh]
	 SCS Correlation Energy    =      -2.2384808624509573 [Eh]
	 SCS Total Energy          =    -571.8578839188323855 [Eh]
	-----------------------------------------------------------

  Dipole Moment: [D]
     X:    -2.4970      Y:    -0.9518      Z:    -0.2624     Total:     2.6851

*** Psi4 exiting successfully. Buy a developer a beer!
