                               Psi4 1.3.2 release

  ==> Input File <==

--------------------------------------------------------------------------
#psi4
#
memory 32 gb

molecule  {
0 1
  O       -0.0895168    -1.7707073     0.4250821
  O        0.3584290     1.3939840    -1.0246780
  O       -1.9551560     1.3713260     0.4690830
  O        2.7148150     0.4505790    -0.2056670
  O       -1.6716310    -0.8002260    -0.9984850
  C        0.4315910     1.0135520     0.3497470
  C       -0.9093320     0.4742750     0.8400700
  C        1.5345100    -0.0288940     0.4204030
  C       -1.2151430    -0.9364420     0.3397180
  C        1.0549700    -1.3167000    -0.2286510
  H        0.7042560     1.8874530     0.9605880
  H       -0.8818830     0.4322700     1.9353370
  H        1.7837760    -0.2316310     1.4680400
  H       -2.0174502    -1.3680434     0.9525038
  H        0.8436020    -1.1475360    -1.2899680
  H        1.8059140    -2.1013880    -0.1265130
  H       -0.3930520     2.0121160    -1.0836700
  H       -2.3417080     0.9766970    -0.3400740
  H        2.3997000     0.9352960    -0.9928030
  H       -1.9956420    -1.6762600    -1.2784950
units angstrom
no_reorient  #important for SAPT in psi4, default
symmetry c1  #important for SAPT in psi4, default
}

set PROPERTIES_ORIGIN ["COM"]
properties('MP2/aug-cc-pvtz', properties = ['dipole'])
--------------------------------------------------------------------------

    Molecular point group: c1
  Charge       = 0
  Multiplicity = 1
  Basis Set: AUG-CC-PVTZ
    Blend: AUG-CC-PVTZ
  Basis Set: (AUG-CC-PVTZ AUX)
    Blend: AUG-CC-PVTZ-JKFIT

    Orbital Energies [Eh]
    ---------------------

    Doubly Occupied:

       1A    -20.591380     2A    -20.578982     3A    -20.574724
       4A    -20.570487     5A    -20.556120     6A    -11.356450
       7A    -11.298201     8A    -11.290354     9A    -11.283090
      10A    -11.274405    11A     -1.444650    12A     -1.391660
      13A     -1.378176    14A     -1.356969    15A     -1.346474
      16A     -1.057847    17A     -1.026653    18A     -0.897090
      19A     -0.872545    20A     -0.797965    21A     -0.752168
      22A     -0.729229    23A     -0.718232    24A     -0.695996
      25A     -0.669477    26A     -0.647699    27A     -0.624989
      28A     -0.614624    29A     -0.604332    30A     -0.586288
      31A     -0.571285    32A     -0.555382    33A     -0.542562
      34A     -0.516375    35A     -0.505585    36A     -0.489451
      37A     -0.486918    38A     -0.467329    39A     -0.439968
      40A     -0.412124

  @DF-RHF Final Energy:  -569.67476524234496

   => Energetics <=

    Nuclear Repulsion Energy =            635.1768870026425020
    One-Electron Energy =               -2044.5548351243733123
    Two-Electron Energy =                 839.7031828793857358
    Total Energy =                       -569.6747652423449608
  Basis Set: (AUG-CC-PVTZ AUX)
    Blend: AUG-CC-PVTZ-RI
    Molecular point group: c1

    Geometry (in Angstrom), charge = 0, multiplicity = 1:

       Center              X                  Y                   Z               Mass
    ------------   -----------------  -----------------  -----------------  -----------------
         O           -0.092050937511    -1.774054640642     0.428320010508    15.994914619570
         O            0.355894862489     1.390636659358    -1.021440089492    15.994914619570
         O           -1.957690137511     1.367978659358     0.472320910508    15.994914619570
         O            2.712280862489     0.447231659358    -0.202429089492    15.994914619570
         O           -1.674165137511    -0.803573340642    -0.995247089492    15.994914619570
         C            0.429056862489     1.010204659358     0.352984910508    12.000000000000
         C           -0.911866137511     0.470927659358     0.843307910508    12.000000000000
         C            1.531975862489    -0.032241340642     0.423640910508    12.000000000000
         C           -1.217677137511    -0.939789340642     0.342955910508    12.000000000000
         C            1.052435862489    -1.320047340642    -0.225413089492    12.000000000000
         H            0.701721862489     1.884105659358     0.963825910508     1.007825032230
         H           -0.884417137511     0.428922659358     1.938574910508     1.007825032230
         H            1.781241862489    -0.234978340642     1.471277910508     1.007825032230
         H           -2.019984337511    -1.371390740642     0.955741710508     1.007825032230
         H            0.841067862489    -1.150883340642    -1.286730089492     1.007825032230
         H            1.803379862489    -2.104735340642    -0.123275089492     1.007825032230
         H           -0.395586137511     2.008768659358    -1.080432089492     1.007825032230
         H           -2.344242137511     0.973349659358    -0.336836089492     1.007825032230
         H            2.397165862489     0.931948659358    -0.989565089492     1.007825032230
         H           -1.998176137511    -1.679607340642    -1.275257089492     1.007825032230

  Basis Set: AUG-CC-PVTZ
    Blend: AUG-CC-PVTZ
  Basis Set: (AUG-CC-PVTZ AUX)
    Blend: AUG-CC-PVTZ-JKFIT
	 Reference Energy          =    -569.6747652423449608 [Eh]
	 Singles Energy            =      -0.0000000000000000 [Eh]
	 Same-Spin Energy          =      -0.5543430501413853 [Eh]
	 Opposite-Spin Energy      =      -1.7025758395090083 [Eh]
	 Correlation Energy        =      -2.2569188896503936 [Eh]
	 Total Energy              =    -571.9316841319953255 [Eh]

	 ================> DF-SCS-MP2 Energies <==================
	-----------------------------------------------------------
	 SCS Same-Spin Scale       =       0.3333333333333333 [-]
	 SCS Opposite-Spin Scale   =       1.2000000000000000 [-]
	 SCS Same-Spin Energy      =      -0.1847810167137951 [Eh]
	 SCS Opposite-Spin Energy  =      -2.0430910074108097 [Eh]
	 SCS Correlation Energy    =      -2.2278720241246051 [Eh]
	 SCS Total Energy          =    -571.9026372664695828 [Eh]
	-----------------------------------------------------------

  Dipole Moment: [D]
     X:    -2.3175      Y:    -1.0699      Z:    -0.2158     Total:     2.5617

*** Psi4 exiting successfully. Buy a developer a beer!
