                               Psi4 1.4a3.dev225

  ==> Input File <==

--------------------------------------------------------------------------
#psi4
#
memory 32 gb

molecule  {
0 1
  O       -0.2343850     1.7978400    -0.4145210
  O        0.4791390    -1.3900560     0.9851260
  O       -1.8902550    -1.4798720    -0.4079610
  O        2.7489250    -0.2990660     0.0843650
  O       -1.6766260     0.6849030     1.0797040
  C        0.4758930    -0.9871420    -0.3839460
  C       -0.9153110    -0.5160320    -0.8112700
  C        1.5148540     0.1205520    -0.4811210
  C       -1.2794180     0.8705190    -0.2725550
  C        0.9914930     1.3693070     0.2124490
  H        0.7678397    -1.8196136    -1.0083910
  H       -0.9367810    -0.4539690    -1.9062570
  H        1.7061480     0.3550680    -1.5342930
  H       -2.1075740     1.2945610    -0.8542440
  H        0.8333730     1.1741050     1.2776920
  H        1.6908660     2.1982840     0.0933200
  H       -0.2684360    -2.0097880     1.0741120
  H       -2.2907410    -1.1048270     0.4011470
  H        2.5001980    -0.8049050     0.8819700
  H       -2.0397460     1.5332780     1.3914430
units angstrom
no_reorient  #important for SAPT in psi4, default
symmetry c1  #important for SAPT in psi4, default
}

set PROPERTIES_ORIGIN ["COM"]
properties('MP2/aug-cc-pvtz', properties = ['dipole'])
--------------------------------------------------------------------------

    Molecular point group: c1
  Charge       = 0
  Multiplicity = 1
  Basis Set: AUG-CC-PVTZ
    Blend: AUG-CC-PVTZ
  Basis Set: (AUG-CC-PVTZ AUX)
    Blend: AUG-CC-PVTZ-JKFIT

    Orbital Energies [Eh]
    ---------------------

    Doubly Occupied:

       1A    -20.591948     2A    -20.581097     3A    -20.575213
       4A    -20.569679     5A    -20.558639     6A    -11.354757
       7A    -11.299502     8A    -11.288823     9A    -11.286073
      10A    -11.278706    11A     -1.438009    12A     -1.390837
      13A     -1.375427    14A     -1.353859    15A     -1.347332
      16A     -1.058360    17A     -1.022577    18A     -0.899774
      19A     -0.870152    20A     -0.798081    21A     -0.752241
      22A     -0.728422    23A     -0.712321    24A     -0.695964
      25A     -0.668162    26A     -0.647568    27A     -0.621029
      28A     -0.614776    29A     -0.601759    30A     -0.584522
      31A     -0.572482    32A     -0.556697    33A     -0.542984
      34A     -0.515971    35A     -0.503046    36A     -0.490761
      37A     -0.487584    38A     -0.471295    39A     -0.441007
      40A     -0.416373

  @DF-RHF Final Energy:  -569.67466364809820

   => Energetics <=

    Nuclear Repulsion Energy =            633.2728459410444657
    One-Electron Energy =               -2040.7674063740012116
    Two-Electron Energy =                 837.8198967848586562
    Total Energy =                       -569.6746636480982033
  Basis Set: (AUG-CC-PVTZ AUX)
    Blend: AUG-CC-PVTZ-RI
    Molecular point group: c1

    Geometry (in Angstrom), charge = 0, multiplicity = 1:

       Center              X                  Y                   Z               Mass
    ------------   -----------------  -----------------  -----------------  -----------------
         O           -0.235290202351     1.800006240995    -0.415843256082    15.994914619570
         O            0.478233797649    -1.387889759005     0.983803743918    15.994914619570
         O           -1.891160202351    -1.477705759005    -0.409283256082    15.994914619570
         O            2.748019797649    -0.296899759005     0.083042743918    15.994914619570
         O           -1.677531202351     0.687069240995     1.078381743918    15.994914619570
         C            0.474987797649    -0.984975759005    -0.385268256082    12.000000000000
         C           -0.916216202351    -0.513865759005    -0.812592256082    12.000000000000
         C            1.513948797649     0.122718240995    -0.482443256082    12.000000000000
         C           -1.280323202351     0.872685240995    -0.273877256082    12.000000000000
         C            0.990587797649     1.371473240995     0.211126743918    12.000000000000
         H            0.766934497649    -1.817447359005    -1.009713256082     1.007825032230
         H           -0.937686202351    -0.451802759005    -1.907579256082     1.007825032230
         H            1.705242797649     0.357234240995    -1.535615256082     1.007825032230
         H           -2.108479202351     1.296727240995    -0.855566256082     1.007825032230
         H            0.832467797649     1.176271240995     1.276369743918     1.007825032230
         H            1.689960797649     2.200450240995     0.091997743918     1.007825032230
         H           -0.269341202351    -2.007621759005     1.072789743918     1.007825032230
         H           -2.291646202351    -1.102660759005     0.399824743918     1.007825032230
         H            2.499292797649    -0.802738759005     0.880647743918     1.007825032230
         H           -2.040651202351     1.535444240995     1.390120743918     1.007825032230

  Basis Set: AUG-CC-PVTZ
    Blend: AUG-CC-PVTZ
  Basis Set: (AUG-CC-PVTZ AUX)
    Blend: AUG-CC-PVTZ-JKFIT
	 Reference Energy          =    -569.6746636480982033 [Eh]
	 Singles Energy            =      -0.0000000000000000 [Eh]
	 Same-Spin Energy          =      -0.5544798400726518 [Eh]
	 Opposite-Spin Energy      =      -1.7038026686041365 [Eh]
	 Correlation Energy        =      -2.2582825086767881 [Eh]
	 Total Energy              =    -571.9329461567749604 [Eh]

	 ================> DF-SCS-MP2 Energies <==================
	-----------------------------------------------------------
	 SCS Same-Spin Scale       =       0.3333333333333333 [-]
	 SCS Opposite-Spin Scale   =       1.2000000000000000 [-]
	 SCS Same-Spin Energy      =      -0.1848266133575506 [Eh]
	 SCS Opposite-Spin Energy  =      -2.0445632023249636 [Eh]
	 SCS Correlation Energy    =      -2.2293898156825143 [Eh]
	 SCS Total Energy          =    -571.9040534637807696 [Eh]
	-----------------------------------------------------------

  Dipole Moment: [D]
     X:    -2.2907      Y:     0.9557      Z:     0.3868     Total:     2.5120

*** Psi4 exiting successfully. Buy a developer a beer!
