                               Psi4 1.3.2 release

  ==> Input File <==

--------------------------------------------------------------------------
#psi4
#
memory 32 gb

molecule  {
0 1
  O       -0.1147700    -1.8002930     0.4548730
  O        0.3584290     1.3939840    -1.0246780
  O       -1.9551560     1.3713260     0.4690830
  O        2.7148150     0.4505790    -0.2056670
  O       -1.6716310    -0.8002260    -0.9984850
  C        0.4345251     1.0082466     0.2704398
  C       -0.9093320     0.4742750     0.8400700
  C        1.5345100    -0.0288940     0.4204030
  C       -1.2151430    -0.9364420     0.3397180
  C        1.0549700    -1.3167000    -0.2286510
  H        0.7042560     1.8874530     0.9605880
  H       -0.8818830     0.4322700     1.9353370
  H        1.8229849    -0.2693498     1.4498409
  H       -1.9939520    -1.3968640     0.9617720
  H        0.8436020    -1.1475360    -1.2899680
  H        1.8059140    -2.1013880    -0.1265130
  H       -0.3930520     2.0121160    -1.0836700
  H       -2.3417080     0.9766970    -0.3400740
  H        2.3997000     0.9352960    -0.9928030
  H       -1.9956420    -1.6762600    -1.2784950
units angstrom
no_reorient  #important for SAPT in psi4, default
symmetry c1  #important for SAPT in psi4, default
}

set PROPERTIES_ORIGIN ["COM"]
properties('MP2/aug-cc-pvtz', properties = ['dipole'])
--------------------------------------------------------------------------

    Molecular point group: c1
  Charge       = 0
  Multiplicity = 1
  Basis Set: AUG-CC-PVTZ
    Blend: AUG-CC-PVTZ
  Basis Set: (AUG-CC-PVTZ AUX)
    Blend: AUG-CC-PVTZ-JKFIT

    Orbital Energies [Eh]
    ---------------------

    Doubly Occupied:

       1A    -20.591708     2A    -20.580121     3A    -20.579923
       4A    -20.574175     5A    -20.556981     6A    -11.351864
       7A    -11.296934     8A    -11.293471     9A    -11.283929
      10A    -11.276537    11A     -1.440251    12A     -1.413610
      13A     -1.376156    14A     -1.356116    15A     -1.353160
      16A     -1.052767    17A     -1.021761    18A     -0.895214
      19A     -0.866506    20A     -0.806135    21A     -0.755302
      22A     -0.727030    23A     -0.713365    24A     -0.698777
      25A     -0.679138    26A     -0.645496    27A     -0.623255
      28A     -0.619577    29A     -0.603430    30A     -0.584869
      31A     -0.570462    32A     -0.554748    33A     -0.550766
      34A     -0.519990    35A     -0.501861    36A     -0.490888
      37A     -0.487381    38A     -0.470441    39A     -0.432691
      40A     -0.406086

  @DF-RHF Final Energy:  -569.66857162581664

   => Energetics <=

    Nuclear Repulsion Energy =            634.6840956170561867
    One-Electron Energy =               -2043.4995910912653017
    Two-Electron Energy =                 839.1469238483923618
    Total Energy =                       -569.6685716258166394
  Basis Set: (AUG-CC-PVTZ AUX)
    Blend: AUG-CC-PVTZ-RI
    Molecular point group: c1

    Geometry (in Angstrom), charge = 0, multiplicity = 1:

       Center              X                  Y                   Z               Mass
    ------------   -----------------  -----------------  -----------------  -----------------
         O           -0.115268082568    -1.799615453908     0.461337669403    15.994914619570
         O            0.357930917432     1.394661546092    -1.018213330597    15.994914619570
         O           -1.955654082568     1.372003546092     0.475547669403    15.994914619570
         O            2.714316917432     0.451256546092    -0.199202330597    15.994914619570
         O           -1.672129082568    -0.799548453908    -0.992020330597    15.994914619570
         C            0.434027017432     1.008924146092     0.276904469403    12.000000000000
         C           -0.909830082568     0.474952546092     0.846534669403    12.000000000000
         C            1.534011917432    -0.028216453908     0.426867669403    12.000000000000
         C           -1.215641082568    -0.935764453908     0.346182669403    12.000000000000
         C            1.054471917432    -1.316022453908    -0.222186330597    12.000000000000
         H            0.703757917432     1.888130546092     0.967052669403     1.007825032230
         H           -0.882381082568     0.432947546092     1.941801669403     1.007825032230
         H            1.822486817432    -0.268672253908     1.456305569403     1.007825032230
         H           -1.994450082568    -1.396186453908     0.968236669403     1.007825032230
         H            0.843103917432    -1.146858453908    -1.283503330597     1.007825032230
         H            1.805415917432    -2.100710453908    -0.120048330597     1.007825032230
         H           -0.393550082568     2.012793546092    -1.077205330597     1.007825032230
         H           -2.342206082568     0.977374546092    -0.333609330597     1.007825032230
         H            2.399201917432     0.935973546092    -0.986338330597     1.007825032230
         H           -1.996140082568    -1.675582453908    -1.272030330597     1.007825032230

  Basis Set: AUG-CC-PVTZ
    Blend: AUG-CC-PVTZ
  Basis Set: (AUG-CC-PVTZ AUX)
    Blend: AUG-CC-PVTZ-JKFIT
	 Reference Energy          =    -569.6685716258166394 [Eh]
	 Singles Energy            =      -0.0000000000000000 [Eh]
	 Same-Spin Energy          =      -0.5547790508641088 [Eh]
	 Opposite-Spin Energy      =      -1.7032395670406888 [Eh]
	 Correlation Energy        =      -2.2580186179047974 [Eh]
	 Total Energy              =    -571.9265902437214208 [Eh]

	 ================> DF-SCS-MP2 Energies <==================
	-----------------------------------------------------------
	 SCS Same-Spin Scale       =       0.3333333333333333 [-]
	 SCS Opposite-Spin Scale   =       1.2000000000000000 [-]
	 SCS Same-Spin Energy      =      -0.1849263502880363 [Eh]
	 SCS Opposite-Spin Energy  =      -2.0438874804488263 [Eh]
	 SCS Correlation Energy    =      -2.2288138307368626 [Eh]
	 SCS Total Energy          =    -571.8973854565534793 [Eh]
	-----------------------------------------------------------

  Dipole Moment: [D]
     X:    -2.2019      Y:    -0.9579      Z:    -0.5212     Total:     2.4571

*** Psi4 exiting successfully. Buy a developer a beer!
