                               Psi4 1.3.2 release

  ==> Input File <==

--------------------------------------------------------------------------
#psi4
#
memory 32 gb

molecule  {
0 1
  O       -0.1147700    -1.8002930     0.4548730
  O        0.3105933     1.3799865    -1.0251023
  O       -1.9551560     1.3713260     0.4690830
  O        2.7148150     0.4505790    -0.2056670
  O       -1.6716310    -0.8002260    -0.9984850
  C        0.4315910     1.0135520     0.3497470
  C       -0.9294006     0.4825792     0.7914264
  C        1.5345100    -0.0288940     0.4204030
  C       -1.2151430    -0.9364420     0.3397180
  C        1.0549700    -1.3167000    -0.2286510
  H        0.7042560     1.8874530     0.9605880
  H       -0.8818830     0.4322700     1.9353370
  H        1.7837760    -0.2316310     1.4680400
  H       -1.9939520    -1.3968640     0.9617720
  H        0.8436020    -1.1475360    -1.2899680
  H        1.8059140    -2.1013880    -0.1265130
  H       -0.3930520     2.0121160    -1.0836700
  H       -2.3417080     0.9766970    -0.3400740
  H        2.3997000     0.9352960    -0.9928030
  H       -1.9956420    -1.6762600    -1.2784950
units angstrom
no_reorient  #important for SAPT in psi4, default
symmetry c1  #important for SAPT in psi4, default
}

set PROPERTIES_ORIGIN ["COM"]
properties('MP2/aug-cc-pvtz', properties = ['dipole'])
--------------------------------------------------------------------------

    Molecular point group: c1
  Charge       = 0
  Multiplicity = 1
  Basis Set: AUG-CC-PVTZ
    Blend: AUG-CC-PVTZ
  Basis Set: (AUG-CC-PVTZ AUX)
    Blend: AUG-CC-PVTZ-JKFIT

    Orbital Energies [Eh]
    ---------------------

    Doubly Occupied:

       1A    -20.589817     2A    -20.581378     3A    -20.577714
       4A    -20.566431     5A    -20.560000     6A    -11.352706
       7A    -11.298000     8A    -11.290968     9A    -11.286822
      10A    -11.278458    11A     -1.440326    12A     -1.397905
      13A     -1.381218    14A     -1.355519    15A     -1.351814
      16A     -1.058279    17A     -1.022534    18A     -0.900974
      19A     -0.868842    20A     -0.799236    21A     -0.754056
      22A     -0.726946    23A     -0.712934    24A     -0.699745
      25A     -0.674342    26A     -0.645896    27A     -0.621774
      28A     -0.617094    29A     -0.603522    30A     -0.587065
      31A     -0.570657    32A     -0.556862    33A     -0.541282
      34A     -0.514054    35A     -0.502364    36A     -0.492518
      37A     -0.484204    38A     -0.472818    39A     -0.436001
      40A     -0.417554

  @DF-RHF Final Energy:  -569.67152636741866

   => Energetics <=

    Nuclear Repulsion Energy =            634.9729824581580715
    One-Electron Energy =               -2044.1077590786130713
    Two-Electron Energy =                 839.4632502530362217
    Total Energy =                       -569.6715263674186644
  Basis Set: (AUG-CC-PVTZ AUX)
    Blend: AUG-CC-PVTZ-RI
    Molecular point group: c1

    Geometry (in Angstrom), charge = 0, multiplicity = 1:

       Center              X                  Y                   Z               Mass
    ------------   -----------------  -----------------  -----------------  -----------------
         O           -0.108066111798    -1.799465109076     0.458808439645    15.994914619570
         O            0.317297188202     1.380814390924    -1.021166860355    15.994914619570
         O           -1.948452111798     1.372153890924     0.473018439645    15.994914619570
         O            2.721518888202     0.451406890924    -0.201731560355    15.994914619570
         O           -1.664927111798    -0.799398109076    -0.994549560355    15.994914619570
         C            0.438294888202     1.014379890924     0.353682439645    12.000000000000
         C           -0.922696711798     0.483407090924     0.795361839645    12.000000000000
         C            1.541213888202    -0.028066109076     0.424338439645    12.000000000000
         C           -1.208439111798    -0.935614109076     0.343653439645    12.000000000000
         C            1.061673888202    -1.315872109076    -0.224715560355    12.000000000000
         H            0.710959888202     1.888280890924     0.964523439645     1.007825032230
         H           -0.875179111798     0.433097890924     1.939272439645     1.007825032230
         H            1.790479888202    -0.230803109076     1.471975439645     1.007825032230
         H           -1.987248111798    -1.396036109076     0.965707439645     1.007825032230
         H            0.850305888202    -1.146708109076    -1.286032560355     1.007825032230
         H            1.812617888202    -2.100560109076    -0.122577560355     1.007825032230
         H           -0.386348111798     2.012943890924    -1.079734560355     1.007825032230
         H           -2.335004111798     0.977524890924    -0.336138560355     1.007825032230
         H            2.406403888202     0.936123890924    -0.988867560355     1.007825032230
         H           -1.988938111798    -1.675432109076    -1.274559560355     1.007825032230

  Basis Set: AUG-CC-PVTZ
    Blend: AUG-CC-PVTZ
  Basis Set: (AUG-CC-PVTZ AUX)
    Blend: AUG-CC-PVTZ-JKFIT
	 Reference Energy          =    -569.6715263674186644 [Eh]
	 Singles Energy            =      -0.0000000000000000 [Eh]
	 Same-Spin Energy          =      -0.5545244415850787 [Eh]
	 Opposite-Spin Energy      =      -1.7032241808838653 [Eh]
	 Correlation Energy        =      -2.2577486224689443 [Eh]
	 Total Energy              =    -571.9292749898876309 [Eh]

	 ================> DF-SCS-MP2 Energies <==================
	-----------------------------------------------------------
	 SCS Same-Spin Scale       =       0.3333333333333333 [-]
	 SCS Opposite-Spin Scale   =       1.2000000000000000 [-]
	 SCS Same-Spin Energy      =      -0.1848414805283596 [Eh]
	 SCS Opposite-Spin Energy  =      -2.0438690170606382 [Eh]
	 SCS Correlation Energy    =      -2.2287104975889980 [Eh]
	 SCS Total Energy          =    -571.9002368650076278 [Eh]
	-----------------------------------------------------------

  Dipole Moment: [D]
     X:    -2.1235      Y:    -0.9053      Z:    -0.3727     Total:     2.3383

*** Psi4 exiting successfully. Buy a developer a beer!
