                               Psi4 1.4a3.dev225

  ==> Input File <==

--------------------------------------------------------------------------
#psi4
#
memory 32 gb

molecule  {
0 1
  O       -0.2343850     1.7978400    -0.4145210
  O        0.4791390    -1.3900560     0.9851260
  O       -1.8902550    -1.4798720    -0.4079610
  O        2.7489250    -0.2990660     0.0843650
  O       -1.6766260     0.6849030     1.0797040
  C        0.4758930    -0.9871420    -0.3839460
  C       -0.9153110    -0.5160320    -0.8112700
  C        1.5148540     0.1205520    -0.4811210
  C       -1.2794180     0.8705190    -0.2725550
  C        0.9914930     1.3693070     0.2124490
  H        0.7732420    -1.8350180    -1.0199460
  H       -0.9377596    -0.4511401    -1.9561673
  H        1.7061480     0.3550680    -1.5342930
  H       -2.1075740     1.2945610    -0.8542440
  H        0.8333730     1.1741050     1.2776920
  H        1.6908660     2.1982840     0.0933200
  H       -0.2684360    -2.0097880     1.0741120
  H       -2.2907410    -1.1048270     0.4011470
  H        2.5001980    -0.8049050     0.8819700
  H       -2.0397460     1.5332780     1.3914430
units angstrom
no_reorient  #important for SAPT in psi4, default
symmetry c1  #important for SAPT in psi4, default
}

set PROPERTIES_ORIGIN ["COM"]
properties('MP2/aug-cc-pvtz', properties = ['dipole'])
--------------------------------------------------------------------------

    Molecular point group: c1
  Charge       = 0
  Multiplicity = 1
  Basis Set: AUG-CC-PVTZ
    Blend: AUG-CC-PVTZ
  Basis Set: (AUG-CC-PVTZ AUX)
    Blend: AUG-CC-PVTZ-JKFIT

    Orbital Energies [Eh]
    ---------------------

    Doubly Occupied:

       1A    -20.592366     2A    -20.581225     3A    -20.576069
       4A    -20.570465     5A    -20.558706     6A    -11.355297
       7A    -11.305620     8A    -11.291649     9A    -11.286254
      10A    -11.278893    11A     -1.438324    12A     -1.391283
      13A     -1.375800    14A     -1.354166    15A     -1.347681
      16A     -1.056883    17A     -1.021808    18A     -0.898644
      19A     -0.868347    20A     -0.796210    21A     -0.752035
      22A     -0.726708    23A     -0.712260    24A     -0.696174
      25A     -0.667331    26A     -0.645807    27A     -0.620883
      28A     -0.614881    29A     -0.600340    30A     -0.583980
      31A     -0.571893    32A     -0.556538    33A     -0.542672
      34A     -0.514287    35A     -0.503170    36A     -0.490820
      37A     -0.486441    38A     -0.471172    39A     -0.440754
      40A     -0.416193

  @DF-RHF Final Energy:  -569.67218884378565

   => Energetics <=

    Nuclear Repulsion Energy =            632.8497350496975287
    One-Electron Energy =               -2039.9237900934708705
    Two-Electron Energy =                 837.4018661999876940
    Total Energy =                       -569.6721888437856478
  Basis Set: (AUG-CC-PVTZ AUX)
    Blend: AUG-CC-PVTZ-RI
    Molecular point group: c1

    Geometry (in Angstrom), charge = 0, multiplicity = 1:

       Center              X                  Y                   Z               Mass
    ------------   -----------------  -----------------  -----------------  -----------------
         O           -0.235319913992     1.800090703943    -0.415430426343    15.994914619570
         O            0.478204086008    -1.387805296057     0.984216573657    15.994914619570
         O           -1.891189913992    -1.477621296057    -0.408870426343    15.994914619570
         O            2.747990086008    -0.296815296057     0.083455573657    15.994914619570
         O           -1.677560913992     0.687153703943     1.078794573657    15.994914619570
         C            0.474958086008    -0.984891296057    -0.384855426343    12.000000000000
         C           -0.916245913992    -0.513781296057    -0.812179426343    12.000000000000
         C            1.513919086008     0.122802703943    -0.482030426343    12.000000000000
         C           -1.280352913992     0.872769703943    -0.273464426343    12.000000000000
         C            0.990558086008     1.371557703943     0.211539573657    12.000000000000
         H            0.772307086008    -1.832767296057    -1.020855426343     1.007825032230
         H           -0.938694513992    -0.448889396057    -1.957076726343     1.007825032230
         H            1.705213086008     0.357318703943    -1.535202426343     1.007825032230
         H           -2.108508913992     1.296811703943    -0.855153426343     1.007825032230
         H            0.832438086008     1.176355703943     1.276782573657     1.007825032230
         H            1.689931086008     2.200534703943     0.092410573657     1.007825032230
         H           -0.269370913992    -2.007537296057     1.073202573657     1.007825032230
         H           -2.291675913992    -1.102576296057     0.400237573657     1.007825032230
         H            2.499263086008    -0.802654296057     0.881060573657     1.007825032230
         H           -2.040680913992     1.535528703943     1.390533573657     1.007825032230

  Basis Set: AUG-CC-PVTZ
    Blend: AUG-CC-PVTZ
  Basis Set: (AUG-CC-PVTZ AUX)
    Blend: AUG-CC-PVTZ-JKFIT
	 Reference Energy          =    -569.6721888437856478 [Eh]
	 Singles Energy            =      -0.0000000000000000 [Eh]
	 Same-Spin Energy          =      -0.5545960842577663 [Eh]
	 Opposite-Spin Energy      =      -1.7044027683446252 [Eh]
	 Correlation Energy        =      -2.2589988526023914 [Eh]
	 Total Energy              =    -571.9311876963880650 [Eh]

	 ================> DF-SCS-MP2 Energies <==================
	-----------------------------------------------------------
	 SCS Same-Spin Scale       =       0.3333333333333333 [-]
	 SCS Opposite-Spin Scale   =       1.2000000000000000 [-]
	 SCS Same-Spin Energy      =      -0.1848653614192554 [Eh]
	 SCS Opposite-Spin Energy  =      -2.0452833220135500 [Eh]
	 SCS Correlation Energy    =      -2.2301486834328053 [Eh]
	 SCS Total Energy          =    -571.9023375272184921 [Eh]
	-----------------------------------------------------------

  Dipole Moment: [D]
     X:    -2.3011      Y:     0.9576      Z:     0.4224     Total:     2.5279

*** Psi4 exiting successfully. Buy a developer a beer!
