                               Psi4 1.3.2 release

  ==> Input File <==

--------------------------------------------------------------------------
#psi4
#
memory 32 gb

molecule  {
0 1
  O       -0.1147700    -1.8002930     0.4548730
  O        0.3584290     1.3939840    -1.0246780
  O       -1.9551560     1.3713260     0.4690830
  O        2.7148150     0.4505790    -0.2056670
  O       -1.6716310    -0.8002260    -0.9984850
  C        0.4315910     1.0135520     0.3497470
  C       -0.8859547     0.4273422     0.8494893
  C        1.4993005    -0.0634829     0.4397933
  C       -1.2151430    -0.9364420     0.3397180
  C        1.0549700    -1.3167000    -0.2286510
  H        0.7042560     1.8874530     0.9605880
  H       -0.8818830     0.4322700     1.9353370
  H        1.7837760    -0.2316310     1.4680400
  H       -1.9939520    -1.3968640     0.9617720
  H        0.8436020    -1.1475360    -1.2899680
  H        1.8059140    -2.1013880    -0.1265130
  H       -0.3930520     2.0121160    -1.0836700
  H       -2.3417080     0.9766970    -0.3400740
  H        2.3997000     0.9352960    -0.9928030
  H       -1.9956420    -1.6762600    -1.2784950
units angstrom
no_reorient  #important for SAPT in psi4, default
symmetry c1  #important for SAPT in psi4, default
}

set PROPERTIES_ORIGIN ["COM"]
properties('MP2/aug-cc-pvtz', properties = ['dipole'])
--------------------------------------------------------------------------

    Molecular point group: c1
  Charge       = 0
  Multiplicity = 1
  Basis Set: AUG-CC-PVTZ
    Blend: AUG-CC-PVTZ
  Basis Set: (AUG-CC-PVTZ AUX)
    Blend: AUG-CC-PVTZ-JKFIT

    Orbital Energies [Eh]
    ---------------------

    Doubly Occupied:

       1A    -20.593412     2A    -20.581637     3A    -20.572440
       4A    -20.569887     5A    -20.552719     6A    -11.355379
       7A    -11.298624     8A    -11.294611     9A    -11.285757
      10A    -11.280228    11A     -1.440979    12A     -1.386553
      13A     -1.368706    14A     -1.346549    15A     -1.333927
      16A     -1.067073    17A     -1.033046    18A     -0.905003
      19A     -0.868165    20A     -0.798427    21A     -0.753765
      22A     -0.729927    23A     -0.712955    24A     -0.687956
      25A     -0.665013    26A     -0.644243    27A     -0.621807
      28A     -0.617256    29A     -0.598082    30A     -0.580896
      31A     -0.568887    32A     -0.552974    33A     -0.540773
      34A     -0.516054    35A     -0.503643    36A     -0.492370
      37A     -0.488075    38A     -0.475578    39A     -0.439686
      40A     -0.425705

  @DF-RHF Final Energy:  -569.66684233694627

   => Energetics <=

    Nuclear Repulsion Energy =            634.1352288284017504
    One-Electron Energy =               -2042.5066075208362690
    Two-Electron Energy =                 838.7045363554882442
    Total Energy =                       -569.6668423369462744
  Basis Set: (AUG-CC-PVTZ AUX)
    Blend: AUG-CC-PVTZ-RI
    Molecular point group: c1

    Geometry (in Angstrom), charge = 0, multiplicity = 1:

       Center              X                  Y                   Z               Mass
    ------------   -----------------  -----------------  -----------------  -----------------
         O           -0.113823849091    -1.793773633479     0.452569136572    15.994914619570
         O            0.359375150909     1.400503366521    -1.026981863428    15.994914619570
         O           -1.954209849091     1.377845366521     0.466779136572    15.994914619570
         O            2.715761150909     0.457098366521    -0.207970863428    15.994914619570
         O           -1.670684849091    -0.793706633479    -1.000788863428    15.994914619570
         C            0.432537150909     1.020071366521     0.347443136572    12.000000000000
         C           -0.885008549091     0.433861566521     0.847185436572    12.000000000000
         C            1.500246650909    -0.056963533479     0.437489436572    12.000000000000
         C           -1.214196849091    -0.929922633479     0.337414136572    12.000000000000
         C            1.055916150909    -1.310180633479    -0.230954863428    12.000000000000
         H            0.705202150909     1.893972366521     0.958284136572     1.007825032230
         H           -0.880936849091     0.438789366521     1.933033136572     1.007825032230
         H            1.784722150909    -0.225111633479     1.465736136572     1.007825032230
         H           -1.993005849091    -1.390344633479     0.959468136572     1.007825032230
         H            0.844548150909    -1.141016633479    -1.292271863428     1.007825032230
         H            1.806860150909    -2.094868633479    -0.128816863428     1.007825032230
         H           -0.392105849091     2.018635366521    -1.085973863428     1.007825032230
         H           -2.340761849091     0.983216366521    -0.342377863428     1.007825032230
         H            2.400646150909     0.941815366521    -0.995106863428     1.007825032230
         H           -1.994695849091    -1.669740633479    -1.280798863428     1.007825032230

  Basis Set: AUG-CC-PVTZ
    Blend: AUG-CC-PVTZ
  Basis Set: (AUG-CC-PVTZ AUX)
    Blend: AUG-CC-PVTZ-JKFIT
	 Reference Energy          =    -569.6668423369462744 [Eh]
	 Singles Energy            =      -0.0000000000000000 [Eh]
	 Same-Spin Energy          =      -0.5552280286619737 [Eh]
	 Opposite-Spin Energy      =      -1.7059198147542625 [Eh]
	 Correlation Energy        =      -2.2611478434162362 [Eh]
	 Total Energy              =    -571.9279901803624853 [Eh]

	 ================> DF-SCS-MP2 Energies <==================
	-----------------------------------------------------------
	 SCS Same-Spin Scale       =       0.3333333333333333 [-]
	 SCS Opposite-Spin Scale   =       1.2000000000000000 [-]
	 SCS Same-Spin Energy      =      -0.1850760095539912 [Eh]
	 SCS Opposite-Spin Energy  =      -2.0471037777051149 [Eh]
	 SCS Correlation Energy    =      -2.2321797872591063 [Eh]
	 SCS Total Energy          =    -571.8990221242054304 [Eh]
	-----------------------------------------------------------

  Dipole Moment: [D]
     X:    -2.2102      Y:    -1.1657      Z:    -0.2096     Total:     2.5076

*** Psi4 exiting successfully. Buy a developer a beer!
