                               Psi4 1.3.2 release

  ==> Input File <==

--------------------------------------------------------------------------
#psi4
#
memory 32 gb

molecule  {
0 1
  O       -0.1279013    -1.8146934     0.4697181
  O        0.3584290     1.3939840    -1.0246780
  O       -1.9551560     1.3713260     0.4690830
  O        2.7148150     0.4505790    -0.2056670
  O       -1.6716310    -0.8002260    -0.9984850
  C        0.4315910     1.0135520     0.3497470
  C       -0.9093320     0.4742750     0.8400700
  C        1.5345100    -0.0288940     0.4204030
  C       -1.2151430    -0.9364420     0.3397180
  C        1.0549700    -1.3167000    -0.2286510
  H        0.7042560     1.8874530     0.9605880
  H       -0.8818830     0.4322700     1.9353370
  H        1.7837760    -0.2316310     1.4680400
  H       -1.9818452    -1.4110661     0.9661226
  H        0.8436020    -1.1475360    -1.2899680
  H        1.8059140    -2.1013880    -0.1265130
  H       -0.3930520     2.0121160    -1.0836700
  H       -2.3417080     0.9766970    -0.3400740
  H        2.3997000     0.9352960    -0.9928030
  H       -1.9956420    -1.6762600    -1.2784950
units angstrom
no_reorient  #important for SAPT in psi4, default
symmetry c1  #important for SAPT in psi4, default
}

set PROPERTIES_ORIGIN ["COM"]
properties('MP2/aug-cc-pvtz', properties = ['dipole'])
--------------------------------------------------------------------------

    Molecular point group: c1
  Charge       = 0
  Multiplicity = 1
  Basis Set: AUG-CC-PVTZ
    Blend: AUG-CC-PVTZ
  Basis Set: (AUG-CC-PVTZ AUX)
    Blend: AUG-CC-PVTZ-JKFIT

    Orbital Energies [Eh]
    ---------------------

    Doubly Occupied:

       1A    -20.591727     2A    -20.581544     3A    -20.574614
       4A    -20.571589     5A    -20.559319     6A    -11.352707
       7A    -11.298495     8A    -11.291401     9A    -11.286902
      10A    -11.280064    11A     -1.436333    12A     -1.391602
      13A     -1.374739    14A     -1.352096    15A     -1.348370
      16A     -1.059790    17A     -1.021243    18A     -0.899531
      19A     -0.868819    20A     -0.798642    21A     -0.752395
      22A     -0.727168    23A     -0.708879    24A     -0.696138
      25A     -0.669910    26A     -0.645633    27A     -0.619780
      28A     -0.613875    29A     -0.602086    30A     -0.583785
      31A     -0.571724    32A     -0.556414    33A     -0.542873
      34A     -0.516156    35A     -0.500961    36A     -0.492111
      37A     -0.487442    38A     -0.473427    39A     -0.440956
      40A     -0.417449

  @DF-RHF Final Energy:  -569.67284865374370

   => Energetics <=

    Nuclear Repulsion Energy =            633.1691788480427476
    One-Electron Energy =               -2040.5666832517617877
    Two-Electron Energy =                 837.7246557499753408
    Total Energy =                       -569.6728486537436993
  Basis Set: (AUG-CC-PVTZ AUX)
    Blend: AUG-CC-PVTZ-RI
    Molecular point group: c1

    Geometry (in Angstrom), charge = 0, multiplicity = 1:

       Center              X                  Y                   Z               Mass
    ------------   -----------------  -----------------  -----------------  -----------------
         O           -0.126582972913    -1.813063071772     0.468106555763    15.994914619570
         O            0.359747327087     1.395614328228    -1.026289544237    15.994914619570
         O           -1.953837672913     1.372956328228     0.467471455763    15.994914619570
         O            2.716133327087     0.452209328228    -0.207278544237    15.994914619570
         O           -1.670312672913    -0.798595671772    -1.000096544237    15.994914619570
         C            0.432909327087     1.015182328228     0.348135455763    12.000000000000
         C           -0.908013672913     0.475905328228     0.838458455763    12.000000000000
         C            1.535828327087    -0.027263671772     0.418791455763    12.000000000000
         C           -1.213824672913    -0.934811671772     0.338106455763    12.000000000000
         C            1.056288327087    -1.315069671772    -0.230262544237    12.000000000000
         H            0.705574327087     1.889083328228     0.958976455763     1.007825032230
         H           -0.880564672913     0.433900328228     1.933725455763     1.007825032230
         H            1.785094327087    -0.230000671772     1.466428455763     1.007825032230
         H           -1.980526872913    -1.409435771772     0.964511055763     1.007825032230
         H            0.844920327087    -1.145905671772    -1.291579544237     1.007825032230
         H            1.807232327087    -2.099757671772    -0.128124544237     1.007825032230
         H           -0.391733672913     2.013746328228    -1.085281544237     1.007825032230
         H           -2.340389672913     0.978327328228    -0.341685544237     1.007825032230
         H            2.401018327087     0.936926328228    -0.994414544237     1.007825032230
         H           -1.994323672913    -1.674629671772    -1.280106544237     1.007825032230

  Basis Set: AUG-CC-PVTZ
    Blend: AUG-CC-PVTZ
  Basis Set: (AUG-CC-PVTZ AUX)
    Blend: AUG-CC-PVTZ-JKFIT
	 Reference Energy          =    -569.6728486537436993 [Eh]
	 Singles Energy            =      -0.0000000000000000 [Eh]
	 Same-Spin Energy          =      -0.5548309166302872 [Eh]
	 Opposite-Spin Energy      =      -1.7047272106518514 [Eh]
	 Correlation Energy        =      -2.2595581272821388 [Eh]
	 Total Energy              =    -571.9324067810258612 [Eh]

	 ================> DF-SCS-MP2 Energies <==================
	-----------------------------------------------------------
	 SCS Same-Spin Scale       =       0.3333333333333333 [-]
	 SCS Opposite-Spin Scale   =       1.2000000000000000 [-]
	 SCS Same-Spin Energy      =      -0.1849436388767624 [Eh]
	 SCS Opposite-Spin Energy  =      -2.0456726527822218 [Eh]
	 SCS Correlation Energy    =      -2.2306162916589840 [Eh]
	 SCS Total Energy          =    -571.9034649454026749 [Eh]
	-----------------------------------------------------------

  Dipole Moment: [D]
     X:    -2.1166      Y:    -0.9569      Z:    -0.3394     Total:     2.3476

*** Psi4 exiting successfully. Buy a developer a beer!
