                               Psi4 1.3.2 release

  ==> Input File <==

--------------------------------------------------------------------------
#psi4
#
memory 32 gb

molecule  {
0 1
  O       -0.1147700    -1.8002930     0.4548730
  O        0.3584290     1.3939840    -1.0246780
  O       -1.9551560     1.3713260     0.4690830
  O        2.7031562     0.4718026    -0.2109027
  O       -1.6716310    -0.8002260    -0.9984850
  C        0.4480834     1.0297867     0.3368044
  C       -0.9093320     0.4742750     0.8400700
  C        1.5345100    -0.0288940     0.4204030
  C       -1.2151430    -0.9364420     0.3397180
  C        1.0549700    -1.3167000    -0.2286510
  H        0.7042560     1.8874530     0.9605880
  H       -0.8818830     0.4322700     1.9353370
  H        1.7837760    -0.2316310     1.4680400
  H       -1.9939520    -1.3968640     0.9617720
  H        0.8436020    -1.1475360    -1.2899680
  H        1.8059140    -2.1013880    -0.1265130
  H       -0.3930520     2.0121160    -1.0836700
  H       -2.3417080     0.9766970    -0.3400740
  H        2.3997000     0.9352960    -0.9928030
  H       -1.9956420    -1.6762600    -1.2784950
units angstrom
no_reorient  #important for SAPT in psi4, default
symmetry c1  #important for SAPT in psi4, default
}

set PROPERTIES_ORIGIN ["COM"]
properties('MP2/aug-cc-pvtz', properties = ['dipole'])
--------------------------------------------------------------------------

    Molecular point group: c1
  Charge       = 0
  Multiplicity = 1
  Basis Set: AUG-CC-PVTZ
    Blend: AUG-CC-PVTZ
  Basis Set: (AUG-CC-PVTZ AUX)
    Blend: AUG-CC-PVTZ-JKFIT

    Orbital Energies [Eh]
    ---------------------

    Doubly Occupied:

       1A    -20.591284     2A    -20.580736     3A    -20.573686
       4A    -20.572232     5A    -20.555364     6A    -11.353402
       7A    -11.297549     8A    -11.289888     9A    -11.285497
      10A    -11.278709    11A     -1.438439    12A     -1.395197
      13A     -1.376110    14A     -1.353982    15A     -1.350884
      16A     -1.055483    17A     -1.022338    18A     -0.899174
      19A     -0.868629    20A     -0.799951    21A     -0.752131
      22A     -0.729131    23A     -0.711763    24A     -0.696443
      25A     -0.671378    26A     -0.647868    27A     -0.620920
      28A     -0.615992    29A     -0.602334    30A     -0.585264
      31A     -0.571174    32A     -0.555936    33A     -0.544526
      34A     -0.516726    35A     -0.502545    36A     -0.491442
      37A     -0.487636    38A     -0.471776    39A     -0.434676
      40A     -0.416134

  @DF-RHF Final Energy:  -569.67540911338665

   => Energetics <=

    Nuclear Repulsion Energy =            633.8973333824626479
    One-Electron Energy =               -2042.0168215186411089
    Two-Electron Energy =                 838.4440790227918114
    Total Energy =                       -569.6754091133866496
  Basis Set: (AUG-CC-PVTZ AUX)
    Blend: AUG-CC-PVTZ-RI
    Molecular point group: c1

    Geometry (in Angstrom), charge = 0, multiplicity = 1:

       Center              X                  Y                   Z               Mass
    ------------   -----------------  -----------------  -----------------  -----------------
         O           -0.114846246977    -1.803853726846     0.456466237347    15.994914619570
         O            0.358352753023     1.390423273154    -1.023084762653    15.994914619570
         O           -1.955232246977     1.367765273154     0.470676237347    15.994914619570
         O            2.703079953023     0.468241873154    -0.209309462653    15.994914619570
         O           -1.671707246977    -0.803786726846    -0.996891762653    15.994914619570
         C            0.448007153023     1.026225973154     0.338397637347    12.000000000000
         C           -0.909408246977     0.470714273154     0.841663237347    12.000000000000
         C            1.534433753023    -0.032454726846     0.421996237347    12.000000000000
         C           -1.215219246977    -0.940002726846     0.341311237347    12.000000000000
         C            1.054893753023    -1.320260726846    -0.227057762653    12.000000000000
         H            0.704179753023     1.883892273154     0.962181237347     1.007825032230
         H           -0.881959246977     0.428709273154     1.936930237347     1.007825032230
         H            1.783699753023    -0.235191726846     1.469633237347     1.007825032230
         H           -1.994028246977    -1.400424726846     0.963365237347     1.007825032230
         H            0.843525753023    -1.151096726846    -1.288374762653     1.007825032230
         H            1.805837753023    -2.104948726846    -0.124919762653     1.007825032230
         H           -0.393128246977     2.008555273154    -1.082076762653     1.007825032230
         H           -2.341784246977     0.973136273154    -0.338480762653     1.007825032230
         H            2.399623753023     0.931735273154    -0.991209762653     1.007825032230
         H           -1.995718246977    -1.679820726846    -1.276901762653     1.007825032230

  Basis Set: AUG-CC-PVTZ
    Blend: AUG-CC-PVTZ
  Basis Set: (AUG-CC-PVTZ AUX)
    Blend: AUG-CC-PVTZ-JKFIT
	 Reference Energy          =    -569.6754091133866496 [Eh]
	 Singles Energy            =      -0.0000000000000000 [Eh]
	 Same-Spin Energy          =      -0.5542068193308396 [Eh]
	 Opposite-Spin Energy      =      -1.7029267801435859 [Eh]
	 Correlation Energy        =      -2.2571335994744253 [Eh]
	 Total Energy              =    -571.9325427128610499 [Eh]

	 ================> DF-SCS-MP2 Energies <==================
	-----------------------------------------------------------
	 SCS Same-Spin Scale       =       0.3333333333333333 [-]
	 SCS Opposite-Spin Scale   =       1.2000000000000000 [-]
	 SCS Same-Spin Energy      =      -0.1847356064436132 [Eh]
	 SCS Opposite-Spin Energy  =      -2.0435121361723030 [Eh]
	 SCS Correlation Energy    =      -2.2282477426159160 [Eh]
	 SCS Total Energy          =    -571.9036568560026126 [Eh]
	-----------------------------------------------------------

  Dipole Moment: [D]
     X:    -2.1496      Y:    -1.0087      Z:    -0.3286     Total:     2.3971

*** Psi4 exiting successfully. Buy a developer a beer!
