                               Psi4 1.3.2 release

  ==> Input File <==

--------------------------------------------------------------------------
#psi4
#
memory 32 gb

molecule  {
0 1
  O       -0.1145352    -1.7921639     0.5031886
  O        0.3584290     1.3939840    -1.0246780
  O       -1.9551560     1.3713260     0.4690830
  O        2.7148150     0.4505790    -0.2056670
  O       -1.7068109    -0.7692065    -0.9824085
  C        0.4315910     1.0135520     0.3497470
  C       -0.9093320     0.4742750     0.8400700
  C        1.5345100    -0.0288940     0.4204030
  C       -1.2151430    -0.9364420     0.3397180
  C        1.0549700    -1.3167000    -0.2286510
  H        0.7042560     1.8874530     0.9605880
  H       -0.8818830     0.4322700     1.9353370
  H        1.7837760    -0.2316310     1.4680400
  H       -1.9939520    -1.3968640     0.9617720
  H        0.8436020    -1.1475360    -1.2899680
  H        1.8059140    -2.1013880    -0.1265130
  H       -0.3930520     2.0121160    -1.0836700
  H       -2.3417080     0.9766970    -0.3400740
  H        2.3997000     0.9352960    -0.9928030
  H       -1.9956420    -1.6762600    -1.2784950
units angstrom
no_reorient  #important for SAPT in psi4, default
symmetry c1  #important for SAPT in psi4, default
}

set PROPERTIES_ORIGIN ["COM"]
properties('MP2/aug-cc-pvtz', properties = ['dipole'])
--------------------------------------------------------------------------

    Molecular point group: c1
  Charge       = 0
  Multiplicity = 1
  Basis Set: AUG-CC-PVTZ
    Blend: AUG-CC-PVTZ
  Basis Set: (AUG-CC-PVTZ AUX)
    Blend: AUG-CC-PVTZ-JKFIT

    Orbital Energies [Eh]
    ---------------------

    Doubly Occupied:

       1A    -20.596669     2A    -20.584300     3A    -20.571911
       4A    -20.571105     5A    -20.558604     6A    -11.352605
       7A    -11.295936     8A    -11.290576     9A    -11.286227
      10A    -11.281584    11A     -1.435601    12A     -1.390415
      13A     -1.375027    14A     -1.352925    15A     -1.347519
      16A     -1.058415    17A     -1.021567    18A     -0.898688
      19A     -0.867076    20A     -0.797419    21A     -0.752515
      22A     -0.727418    23A     -0.709954    24A     -0.693544
      25A     -0.668852    26A     -0.645972    27A     -0.621245
      28A     -0.613182    29A     -0.600463    30A     -0.584510
      31A     -0.571181    32A     -0.556500    33A     -0.541568
      34A     -0.516560    35A     -0.501437    36A     -0.493193
      37A     -0.486493    38A     -0.475327    39A     -0.439789
      40A     -0.415775

  @DF-RHF Final Energy:  -569.66953307726214

   => Energetics <=

    Nuclear Repulsion Energy =            633.3212045888351440
    One-Electron Energy =               -2040.8821844725482606
    Two-Electron Energy =                 837.8914468064509720
    Total Energy =                       -569.6695330772621446
  Basis Set: (AUG-CC-PVTZ AUX)
    Blend: AUG-CC-PVTZ-RI
    Molecular point group: c1

    Geometry (in Angstrom), charge = 0, multiplicity = 1:

       Center              X                  Y                   Z               Mass
    ------------   -----------------  -----------------  -----------------  -----------------
         O           -0.110810311035    -1.796337027482     0.496324802769    15.994914619570
         O            0.362153888965     1.389810872518    -1.031541797231    15.994914619570
         O           -1.951431111035     1.367152872518     0.462219202769    15.994914619570
         O            2.718539888965     0.446405872518    -0.212530797231    15.994914619570
         O           -1.703086011035    -0.773379627482    -0.989272297231    15.994914619570
         C            0.435315888965     1.009378872518     0.342883202769    12.000000000000
         C           -0.905607111035     0.470101872518     0.833206202769    12.000000000000
         C            1.538234888965    -0.033067127482     0.413539202769    12.000000000000
         C           -1.211418111035    -0.940615127482     0.332854202769    12.000000000000
         C            1.058694888965    -1.320873127482    -0.235514797231    12.000000000000
         H            0.707980888965     1.883279872518     0.953724202769     1.007825032230
         H           -0.878158111035     0.428096872518     1.928473202769     1.007825032230
         H            1.787500888965    -0.235804127482     1.461176202769     1.007825032230
         H           -1.990227111035    -1.401037127482     0.954908202769     1.007825032230
         H            0.847326888965    -1.151709127482    -1.296831797231     1.007825032230
         H            1.809638888965    -2.105561127482    -0.133376797231     1.007825032230
         H           -0.389327111035     2.007942872518    -1.090533797231     1.007825032230
         H           -2.337983111035     0.972523872518    -0.346937797231     1.007825032230
         H            2.403424888965     0.931122872518    -0.999666797231     1.007825032230
         H           -1.991917111035    -1.680433127482    -1.285358797231     1.007825032230

  Basis Set: AUG-CC-PVTZ
    Blend: AUG-CC-PVTZ
  Basis Set: (AUG-CC-PVTZ AUX)
    Blend: AUG-CC-PVTZ-JKFIT
	 Reference Energy          =    -569.6695330772621446 [Eh]
	 Singles Energy            =      -0.0000000000000000 [Eh]
	 Same-Spin Energy          =      -0.5553203726910430 [Eh]
	 Opposite-Spin Energy      =      -1.7056800907524532 [Eh]
	 Correlation Energy        =      -2.2610004634434961 [Eh]
	 Total Energy              =    -571.9305335407055964 [Eh]

	 ================> DF-SCS-MP2 Energies <==================
	-----------------------------------------------------------
	 SCS Same-Spin Scale       =       0.3333333333333333 [-]
	 SCS Opposite-Spin Scale   =       1.2000000000000000 [-]
	 SCS Same-Spin Energy      =      -0.1851067908970143 [Eh]
	 SCS Opposite-Spin Energy  =      -2.0468161089029437 [Eh]
	 SCS Correlation Energy    =      -2.2319228997999581 [Eh]
	 SCS Total Energy          =    -571.9014559770621418 [Eh]
	-----------------------------------------------------------

  Dipole Moment: [D]
     X:    -2.0614      Y:    -1.0968      Z:    -0.4555     Total:     2.3790

*** Psi4 exiting successfully. Buy a developer a beer!
