                               Psi4 1.3.2 release

  ==> Input File <==

--------------------------------------------------------------------------
#psi4
#
memory 32 gb

molecule  {
0 1
  O       -0.1147700    -1.8002930     0.4548730
  O        0.3584290     1.3939840    -1.0246780
  O       -1.9551560     1.3713260     0.4690830
  O        2.7148150     0.4505790    -0.2056670
  O       -1.6716310    -0.8002260    -0.9984850
  C        0.4315910     1.0135520     0.3497470
  C       -0.9208137     0.4459948     0.8007120
  C        1.5345100    -0.0288940     0.4204030
  C       -1.2151430    -0.9364420     0.3397180
  C        1.0549700    -1.3167000    -0.2286510
  H        0.7042560     1.8874530     0.9605880
  H       -0.8818830     0.4322700     1.9353370
  H        1.7837760    -0.2316310     1.4680400
  H       -1.9939520    -1.3968640     0.9617720
  H        0.8436020    -1.1475360    -1.2899680
  H        1.8059140    -2.1013880    -0.1265130
  H       -0.3930520     2.0121160    -1.0836700
  H       -2.3190787     0.9511665    -0.3377105
  H        2.3997000     0.9352960    -0.9928030
  H       -1.9956420    -1.6762600    -1.2784950
units angstrom
no_reorient  #important for SAPT in psi4, default
symmetry c1  #important for SAPT in psi4, default
}

set PROPERTIES_ORIGIN ["COM"]
properties('MP2/aug-cc-pvtz', properties = ['dipole'])
--------------------------------------------------------------------------

    Molecular point group: c1
  Charge       = 0
  Multiplicity = 1
  Basis Set: AUG-CC-PVTZ
    Blend: AUG-CC-PVTZ
  Basis Set: (AUG-CC-PVTZ AUX)
    Blend: AUG-CC-PVTZ-JKFIT

    Orbital Energies [Eh]
    ---------------------

    Doubly Occupied:

       1A    -20.592816     2A    -20.582387     3A    -20.576553
       4A    -20.570462     5A    -20.558416     6A    -11.354055
       7A    -11.298978     8A    -11.291986     9A    -11.285604
      10A    -11.278894    11A     -1.441932    12A     -1.392311
      13A     -1.377870    14A     -1.355548    15A     -1.348107
      16A     -1.059042    17A     -1.027323    18A     -0.903515
      19A     -0.867015    20A     -0.796933    21A     -0.755583
      22A     -0.728175    23A     -0.715023    24A     -0.693429
      25A     -0.669674    26A     -0.645299    27A     -0.622425
      28A     -0.616390    29A     -0.601010    30A     -0.585081
      31A     -0.570663    32A     -0.559318    33A     -0.541390
      34A     -0.514302    35A     -0.504370    36A     -0.494352
      37A     -0.487733    38A     -0.472948    39A     -0.437584
      40A     -0.419532

  @DF-RHF Final Energy:  -569.66983007119200

   => Energetics <=

    Nuclear Repulsion Energy =            634.6484775149235702
    One-Electron Energy =               -2043.4485565353570564
    Two-Electron Energy =                 839.1302489492414907
    Total Energy =                       -569.6698300711919956
  Basis Set: (AUG-CC-PVTZ AUX)
    Blend: AUG-CC-PVTZ-RI
    Molecular point group: c1

    Geometry (in Angstrom), charge = 0, multiplicity = 1:

       Center              X                  Y                   Z               Mass
    ------------   -----------------  -----------------  -----------------  -----------------
         O           -0.114003868196    -1.797859979268     0.458004750424    15.994914619570
         O            0.359195131804     1.396417020732    -1.021546249576    15.994914619570
         O           -1.954389868196     1.373759020732     0.472214750424    15.994914619570
         O            2.715581131804     0.453012020732    -0.202535249576    15.994914619570
         O           -1.670864868196    -0.797792979268    -0.995353249576    15.994914619570
         C            0.432357131804     1.015985020732     0.352878750424    12.000000000000
         C           -0.920047568196     0.448427820732     0.803843750424    12.000000000000
         C            1.535276131804    -0.026460979268     0.423534750424    12.000000000000
         C           -1.214376868196    -0.934008979268     0.342849750424    12.000000000000
         C            1.055736131804    -1.314266979268    -0.225519249576    12.000000000000
         H            0.705022131804     1.889886020732     0.963719750424     1.007825032230
         H           -0.881116868196     0.434703020732     1.938468750424     1.007825032230
         H            1.784542131804    -0.229197979268     1.471171750424     1.007825032230
         H           -1.993185868196    -1.394430979268     0.964903750424     1.007825032230
         H            0.844368131804    -1.145102979268    -1.286836249576     1.007825032230
         H            1.806680131804    -2.098954979268    -0.123381249576     1.007825032230
         H           -0.392285868196     2.014549020732    -1.080538249576     1.007825032230
         H           -2.318312568196     0.953599520732    -0.334578749576     1.007825032230
         H            2.400466131804     0.937729020732    -0.989671249576     1.007825032230
         H           -1.994875868196    -1.673826979268    -1.275363249576     1.007825032230

  Basis Set: AUG-CC-PVTZ
    Blend: AUG-CC-PVTZ
  Basis Set: (AUG-CC-PVTZ AUX)
    Blend: AUG-CC-PVTZ-JKFIT
	 Reference Energy          =    -569.6698300711919956 [Eh]
	 Singles Energy            =      -0.0000000000000000 [Eh]
	 Same-Spin Energy          =      -0.5552426436287334 [Eh]
	 Opposite-Spin Energy      =      -1.7049386929741848 [Eh]
	 Correlation Energy        =      -2.2601813366029182 [Eh]
	 Total Energy              =    -571.9300114077949502 [Eh]

	 ================> DF-SCS-MP2 Energies <==================
	-----------------------------------------------------------
	 SCS Same-Spin Scale       =       0.3333333333333333 [-]
	 SCS Opposite-Spin Scale   =       1.2000000000000000 [-]
	 SCS Same-Spin Energy      =      -0.1850808812095778 [Eh]
	 SCS Opposite-Spin Energy  =      -2.0459264315690215 [Eh]
	 SCS Correlation Energy    =      -2.2310073127785994 [Eh]
	 SCS Total Energy          =    -571.9008373839706110 [Eh]
	-----------------------------------------------------------

  Dipole Moment: [D]
     X:    -2.1537      Y:    -1.0444      Z:    -0.3350     Total:     2.4169

*** Psi4 exiting successfully. Buy a developer a beer!
