                               Psi4 1.4a3.dev225

  ==> Input File <==

--------------------------------------------------------------------------
#psi4
#
memory 32 gb

molecule  {
0 1
  O       -0.2343850     1.7978400    -0.4145210
  O        0.4791390    -1.3900560     0.9851260
  O       -1.8902550    -1.4798720    -0.4079610
  O        2.7489250    -0.2990660     0.0843650
  O       -1.6766260     0.6849030     1.0797040
  C        0.4758930    -0.9871420    -0.3839460
  C       -0.9153110    -0.5160320    -0.8112700
  C        1.5148540     0.1205520    -0.4811210
  C       -1.2794180     0.8705190    -0.2725550
  C        0.9914930     1.3693070     0.2124490
  H        0.7732420    -1.8350180    -1.0199460
  H       -0.9367810    -0.4539690    -1.9062570
  H        1.7148766     0.3657687    -1.5823482
  H       -2.1075740     1.2945610    -0.8542440
  H        0.8333730     1.1741050     1.2776920
  H        1.6908660     2.1982840     0.0933200
  H       -0.2684360    -2.0097880     1.0741120
  H       -2.2907410    -1.1048270     0.4011470
  H        2.5001980    -0.8049050     0.8819700
  H       -2.0397460     1.5332780     1.3914430
units angstrom
no_reorient  #important for SAPT in psi4, default
symmetry c1  #important for SAPT in psi4, default
}

set PROPERTIES_ORIGIN ["COM"]
properties('MP2/aug-cc-pvtz', properties = ['dipole'])
--------------------------------------------------------------------------

    Molecular point group: c1
  Charge       = 0
  Multiplicity = 1
  Basis Set: AUG-CC-PVTZ
    Blend: AUG-CC-PVTZ
  Basis Set: (AUG-CC-PVTZ AUX)
    Blend: AUG-CC-PVTZ-JKFIT

    Orbital Energies [Eh]
    ---------------------

    Doubly Occupied:

       1A    -20.592113     2A    -20.581229     3A    -20.575297
       4A    -20.570406     5A    -20.559450     6A    -11.354919
       7A    -11.299679     8A    -11.292429     9A    -11.291507
      10A    -11.279403    11A     -1.438172    12A     -1.391222
      13A     -1.375646    14A     -1.354057    15A     -1.347850
      16A     -1.057071    17A     -1.022232    18A     -0.898802
      19A     -0.868312    20A     -0.795066    21A     -0.751656
      22A     -0.726992    23A     -0.712346    24A     -0.696055
      25A     -0.667770    26A     -0.647332    27A     -0.620650
      28A     -0.614836    29A     -0.601387    30A     -0.581725
      31A     -0.572554    32A     -0.556848    33A     -0.542685
      34A     -0.513896    35A     -0.503114    36A     -0.490686
      37A     -0.486936    38A     -0.469728    39A     -0.441370
      40A     -0.416214

  @DF-RHF Final Energy:  -569.67226250401086

   => Energetics <=

    Nuclear Repulsion Energy =            632.8591006593098882
    One-Electron Energy =               -2039.9434431666848013
    Two-Electron Energy =                 837.4120800033640535
    Total Energy =                       -569.6722625040108596
  Basis Set: (AUG-CC-PVTZ AUX)
    Blend: AUG-CC-PVTZ-RI
    Molecular point group: c1

    Geometry (in Angstrom), charge = 0, multiplicity = 1:

       Center              X                  Y                   Z               Mass
    ------------   -----------------  -----------------  -----------------  -----------------
         O           -0.235385112093     1.800037833247    -0.415442886063    15.994914619570
         O            0.478138887907    -1.387858166753     0.984204113937    15.994914619570
         O           -1.891255112093    -1.477674166753    -0.408882886063    15.994914619570
         O            2.747924887907    -0.296868166753     0.083443113937    15.994914619570
         O           -1.677626112093     0.687100833247     1.078782113937    15.994914619570
         C            0.474892887907    -0.984944166753    -0.384867886063    12.000000000000
         C           -0.916311112093    -0.513834166753    -0.812191886063    12.000000000000
         C            1.513853887907     0.122749833247    -0.482042886063    12.000000000000
         C           -1.280418112093     0.872716833247    -0.273476886063    12.000000000000
         C            0.990492887907     1.371504833247     0.211527113937    12.000000000000
         H            0.772241887907    -1.832820166753    -1.020867886063     1.007825032230
         H           -0.937781112093    -0.451771166753    -1.907178886063     1.007825032230
         H            1.713876487907     0.367966533247    -1.583270086063     1.007825032230
         H           -2.108574112093     1.296758833247    -0.855165886063     1.007825032230
         H            0.832372887907     1.176302833247     1.276770113937     1.007825032230
         H            1.689865887907     2.200481833247     0.092398113937     1.007825032230
         H           -0.269436112093    -2.007590166753     1.073190113937     1.007825032230
         H           -2.291741112093    -1.102629166753     0.400225113937     1.007825032230
         H            2.499197887907    -0.802707166753     0.881048113937     1.007825032230
         H           -2.040746112093     1.535475833247     1.390521113937     1.007825032230

  Basis Set: AUG-CC-PVTZ
    Blend: AUG-CC-PVTZ
  Basis Set: (AUG-CC-PVTZ AUX)
    Blend: AUG-CC-PVTZ-JKFIT
	 Reference Energy          =    -569.6722625040108596 [Eh]
	 Singles Energy            =      -0.0000000000000000 [Eh]
	 Same-Spin Energy          =      -0.5545852223293963 [Eh]
	 Opposite-Spin Energy      =      -1.7043700996977895 [Eh]
	 Correlation Energy        =      -2.2589553220271856 [Eh]
	 Total Energy              =    -571.9312178260380506 [Eh]

	 ================> DF-SCS-MP2 Energies <==================
	-----------------------------------------------------------
	 SCS Same-Spin Scale       =       0.3333333333333333 [-]
	 SCS Opposite-Spin Scale   =       1.2000000000000000 [-]
	 SCS Same-Spin Energy      =      -0.1848617407764654 [Eh]
	 SCS Opposite-Spin Energy  =      -2.0452441196373474 [Eh]
	 SCS Correlation Energy    =      -2.2301058604138126 [Eh]
	 SCS Total Energy          =    -571.9023683644246603 [Eh]
	-----------------------------------------------------------

  Dipole Moment: [D]
     X:    -2.2922      Y:     0.9595      Z:     0.4244     Total:     2.5209

*** Psi4 exiting successfully. Buy a developer a beer!
