                               Psi4 1.3.2 release

  ==> Input File <==

--------------------------------------------------------------------------
#psi4
#
memory 32 gb

molecule  {
0 1
  O       -0.1144850    -1.7963594     0.4790520
  O        0.3584290     1.3939840    -1.0246780
  O       -1.9551560     1.3713260     0.4690830
  O        2.7148150     0.4505790    -0.2056670
  O       -1.6892931    -0.7846932    -0.9906494
  C        0.4315910     1.0135520     0.3497470
  C       -0.9093320     0.4742750     0.8400700
  C        1.5345100    -0.0288940     0.4204030
  C       -1.2151430    -0.9364420     0.3397180
  C        1.0549700    -1.3167000    -0.2286510
  H        0.7042560     1.8874530     0.9605880
  H       -0.8818830     0.4322700     1.9353370
  H        1.7837760    -0.2316310     1.4680400
  H       -1.9939520    -1.3968640     0.9617720
  H        0.8436020    -1.1475360    -1.2899680
  H        1.8059140    -2.1013880    -0.1265130
  H       -0.3930520     2.0121160    -1.0836700
  H       -2.3417080     0.9766970    -0.3400740
  H        2.3997000     0.9352960    -0.9928030
  H       -1.9956420    -1.6762600    -1.2784950
units angstrom
no_reorient  #important for SAPT in psi4, default
symmetry c1  #important for SAPT in psi4, default
}

set PROPERTIES_ORIGIN ["COM"]
properties('MP2/aug-cc-pvtz', properties = ['dipole'])
--------------------------------------------------------------------------

    Molecular point group: c1
  Charge       = 0
  Multiplicity = 1
  Basis Set: AUG-CC-PVTZ
    Blend: AUG-CC-PVTZ
  Basis Set: (AUG-CC-PVTZ AUX)
    Blend: AUG-CC-PVTZ-JKFIT

    Orbital Energies [Eh]
    ---------------------

    Doubly Occupied:

       1A    -20.594148     2A    -20.582563     3A    -20.573285
       4A    -20.571162     5A    -20.558429     6A    -11.353235
       7A    -11.297168     8A    -11.290813     9A    -11.285930
      10A    -11.279855    11A     -1.437143    12A     -1.390953
      13A     -1.375397    14A     -1.353477    15A     -1.347669
      16A     -1.058723    17A     -1.022311    18A     -0.898704
      19A     -0.868565    20A     -0.797893    21A     -0.752400
      22A     -0.727569    23A     -0.710921    24A     -0.694862
      25A     -0.669281    26A     -0.646057    27A     -0.621170
      28A     -0.613736    29A     -0.601740    30A     -0.584562
      31A     -0.571449    32A     -0.556351    33A     -0.542200
      34A     -0.516288    35A     -0.502082    36A     -0.491807
      37A     -0.487318    38A     -0.473743    39A     -0.440192
      40A     -0.415839

  @DF-RHF Final Energy:  -569.67257409795263

   => Energetics <=

    Nuclear Repulsion Energy =            633.5696819467104888
    One-Electron Energy =               -2041.3705308575142681
    Two-Electron Energy =                 838.1282748128511457
    Total Energy =                       -569.6725740979526336
  Basis Set: (AUG-CC-PVTZ AUX)
    Blend: AUG-CC-PVTZ-RI
    Molecular point group: c1

    Geometry (in Angstrom), charge = 0, multiplicity = 1:

       Center              X                  Y                   Z               Mass
    ------------   -----------------  -----------------  -----------------  -----------------
         O           -0.112632775965    -1.798434498925     0.475639489698    15.994914619570
         O            0.360281224035     1.391908901075    -1.028090510302    15.994914619570
         O           -1.953303775965     1.369250901075     0.465670489698    15.994914619570
         O            2.716667224035     0.448503901075    -0.209079510302    15.994914619570
         O           -1.687440875965    -0.786768298925    -0.994061910302    15.994914619570
         C            0.433443224035     1.011476901075     0.346334489698    12.000000000000
         C           -0.907479775965     0.472199901075     0.836657489698    12.000000000000
         C            1.536362224035    -0.030969098925     0.416990489698    12.000000000000
         C           -1.213290775965    -0.938517098925     0.336305489698    12.000000000000
         C            1.056822224035    -1.318775098925    -0.232063510302    12.000000000000
         H            0.706108224035     1.885377901075     0.957175489698     1.007825032230
         H           -0.880030775965     0.430194901075     1.931924489698     1.007825032230
         H            1.785628224035    -0.233706098925     1.464627489698     1.007825032230
         H           -1.992099775965    -1.398939098925     0.958359489698     1.007825032230
         H            0.845454224035    -1.149611098925    -1.293380510302     1.007825032230
         H            1.807766224035    -2.103463098925    -0.129925510302     1.007825032230
         H           -0.391199775965     2.010040901075    -1.087082510302     1.007825032230
         H           -2.339855775965     0.974621901075    -0.343486510302     1.007825032230
         H            2.401552224035     0.933220901075    -0.996215510302     1.007825032230
         H           -1.993789775965    -1.678335098925    -1.281907510302     1.007825032230

  Basis Set: AUG-CC-PVTZ
    Blend: AUG-CC-PVTZ
  Basis Set: (AUG-CC-PVTZ AUX)
    Blend: AUG-CC-PVTZ-JKFIT
	 Reference Energy          =    -569.6725740979526336 [Eh]
	 Singles Energy            =      -0.0000000000000000 [Eh]
	 Same-Spin Energy          =      -0.5549511302131586 [Eh]
	 Opposite-Spin Energy      =      -1.7047559669962493 [Eh]
	 Correlation Energy        =      -2.2597070972094078 [Eh]
	 Total Energy              =    -571.9322811951620906 [Eh]

	 ================> DF-SCS-MP2 Energies <==================
	-----------------------------------------------------------
	 SCS Same-Spin Scale       =       0.3333333333333333 [-]
	 SCS Opposite-Spin Scale   =       1.2000000000000000 [-]
	 SCS Same-Spin Energy      =      -0.1849837100710529 [Eh]
	 SCS Opposite-Spin Energy  =      -2.0457071603954993 [Eh]
	 SCS Correlation Energy    =      -2.2306908704665522 [Eh]
	 SCS Total Energy          =    -571.9032649684191938 [Eh]
	-----------------------------------------------------------

  Dipole Moment: [D]
     X:    -2.1216      Y:    -1.0454      Z:    -0.3777     Total:     2.3951

*** Psi4 exiting successfully. Buy a developer a beer!
