                               Psi4 1.3.2 release

  ==> Input File <==

--------------------------------------------------------------------------
#psi4
#
memory 32 gb

molecule  {
0 1
  O       -0.1275376    -1.7992802     0.4332788
  O        0.3584290     1.3939840    -1.0246780
  O       -1.9551560     1.3713260     0.4690830
  O        2.7148150     0.4505790    -0.2056670
  O       -1.6716310    -0.8002260    -0.9984850
  C        0.4315910     1.0135520     0.3497470
  C       -0.9093320     0.4742750     0.8400700
  C        1.5345100    -0.0288940     0.4204030
  C       -1.2151430    -0.9364420     0.3397180
  C        1.0549700    -1.3167000    -0.2286510
  H        0.7042560     1.8874530     0.9605880
  H       -0.8818830     0.4322700     1.9353370
  H        1.7837760    -0.2316310     1.4680400
  H       -1.9939520    -1.3968640     0.9617720
  H        0.8256018    -1.1533142    -1.2871320
  H        1.8059140    -2.1013880    -0.1265130
  H       -0.3930520     2.0121160    -1.0836700
  H       -2.3417080     0.9766970    -0.3400740
  H        2.3997000     0.9352960    -0.9928030
  H       -1.9956420    -1.6762600    -1.2784950
units angstrom
no_reorient  #important for SAPT in psi4, default
symmetry c1  #important for SAPT in psi4, default
}

set PROPERTIES_ORIGIN ["COM"]
properties('MP2/aug-cc-pvtz', properties = ['dipole'])
--------------------------------------------------------------------------

    Molecular point group: c1
  Charge       = 0
  Multiplicity = 1
  Basis Set: AUG-CC-PVTZ
    Blend: AUG-CC-PVTZ
  Basis Set: (AUG-CC-PVTZ AUX)
    Blend: AUG-CC-PVTZ-JKFIT

    Orbital Energies [Eh]
    ---------------------

    Doubly Occupied:

       1A    -20.589439     2A    -20.579612     3A    -20.574494
       4A    -20.571220     5A    -20.558800     6A    -11.352668
       7A    -11.298229     8A    -11.291216     9A    -11.286475
      10A    -11.278716    11A     -1.440817    12A     -1.391903
      13A     -1.375865    14A     -1.353329    15A     -1.347984
      16A     -1.059443    17A     -1.023782    18A     -0.898406
      19A     -0.871293    20A     -0.798384    21A     -0.751676
      22A     -0.727587    23A     -0.713433    24A     -0.696194
      25A     -0.669966    26A     -0.646442    27A     -0.620926
      28A     -0.614779    29A     -0.603264    30A     -0.585269
      31A     -0.572048    32A     -0.556458    33A     -0.543063
      34A     -0.516177    35A     -0.502787    36A     -0.490648
      37A     -0.486959    38A     -0.470257    39A     -0.440735
      40A     -0.416223

  @DF-RHF Final Energy:  -569.67506686679872

   => Energetics <=

    Nuclear Repulsion Energy =            634.1593312855536624
    One-Electron Energy =               -2042.5348631359743194
    Two-Electron Energy =                 838.7004649836219414
    Total Energy =                       -569.6750668667987156
  Basis Set: (AUG-CC-PVTZ AUX)
    Blend: AUG-CC-PVTZ-RI
    Molecular point group: c1

    Geometry (in Angstrom), charge = 0, multiplicity = 1:

       Center              X                  Y                   Z               Mass
    ------------   -----------------  -----------------  -----------------  -----------------
         O           -0.126055828886    -1.799349424166     0.435561683944    15.994914619570
         O            0.359910771114     1.393914775834    -1.022395116056    15.994914619570
         O           -1.953674228886     1.371256775834     0.471365883944    15.994914619570
         O            2.716296771114     0.450509775834    -0.203384116056    15.994914619570
         O           -1.670149228886    -0.800295224166    -0.996202116056    15.994914619570
         C            0.433072771114     1.013482775834     0.352029883944    12.000000000000
         C           -0.907850228886     0.474205775834     0.842352883944    12.000000000000
         C            1.535991771114    -0.028963224166     0.422685883944    12.000000000000
         C           -1.213661228886    -0.936511224166     0.342000883944    12.000000000000
         C            1.056451771114    -1.316769224166    -0.226368116056    12.000000000000
         H            0.705737771114     1.887383775834     0.962870883944     1.007825032230
         H           -0.880401228886     0.432200775834     1.937619883944     1.007825032230
         H            1.785257771114    -0.231700224166     1.470322883944     1.007825032230
         H           -1.992470228886    -1.396933224166     0.964054883944     1.007825032230
         H            0.827083571114    -1.153383424166    -1.284849116056     1.007825032230
         H            1.807395771114    -2.101457224166    -0.124230116056     1.007825032230
         H           -0.391570228886     2.012046775834    -1.081387116056     1.007825032230
         H           -2.340226228886     0.976627775834    -0.337791116056     1.007825032230
         H            2.401181771114     0.935226775834    -0.990520116056     1.007825032230
         H           -1.994160228886    -1.676329224166    -1.276212116056     1.007825032230

  Basis Set: AUG-CC-PVTZ
    Blend: AUG-CC-PVTZ
  Basis Set: (AUG-CC-PVTZ AUX)
    Blend: AUG-CC-PVTZ-JKFIT
	 Reference Energy          =    -569.6750668667987156 [Eh]
	 Singles Energy            =      -0.0000000000000000 [Eh]
	 Same-Spin Energy          =      -0.5545010333457899 [Eh]
	 Opposite-Spin Energy      =      -1.7034688597485133 [Eh]
	 Correlation Energy        =      -2.2579698930943031 [Eh]
	 Total Energy              =    -571.9330367598930707 [Eh]

	 ================> DF-SCS-MP2 Energies <==================
	-----------------------------------------------------------
	 SCS Same-Spin Scale       =       0.3333333333333333 [-]
	 SCS Opposite-Spin Scale   =       1.2000000000000000 [-]
	 SCS Same-Spin Energy      =      -0.1848336777819300 [Eh]
	 SCS Opposite-Spin Energy  =      -2.0441626316982160 [Eh]
	 SCS Correlation Energy    =      -2.2289963094801459 [Eh]
	 SCS Total Energy          =    -571.9040631762788962 [Eh]
	-----------------------------------------------------------

  Dipole Moment: [D]
     X:    -2.1236      Y:    -0.9963      Z:    -0.2506     Total:     2.3590

*** Psi4 exiting successfully. Buy a developer a beer!
