                               Psi4 1.4a3.dev225

  ==> Input File <==

--------------------------------------------------------------------------
#psi4
#
memory 32 gb

molecule  {
0 1
  O       -0.2343850     1.7978400    -0.4145210
  O        0.4791390    -1.3900560     0.9851260
  O       -1.8902550    -1.4798720    -0.4079610
  O        2.7489250    -0.2990660     0.0843650
  O       -1.6766260     0.6849030     1.0797040
  C        0.4758930    -0.9871420    -0.3839460
  C       -0.9153110    -0.5160320    -0.8112700
  C        1.5148540     0.1205520    -0.4811210
  C       -1.2794180     0.8705190    -0.2725550
  C        0.9914930     1.3693070     0.2124490
  H        0.7732420    -1.8350180    -1.0199460
  H       -0.9367810    -0.4539690    -1.9062570
  H        1.7061480     0.3550680    -1.5342930
  H       -2.1075740     1.2945610    -0.8542440
  H        0.8333730     1.1741050     1.2776920
  H        1.6908660     2.1982840     0.0933200
  H       -0.2684360    -2.0097880     1.0741120
  H       -2.2907410    -1.1048270     0.4011470
  H        2.5001980    -0.8049050     0.8819700
  H       -2.0583857     1.5768267     1.4074452
units angstrom
no_reorient  #important for SAPT in psi4, default
symmetry c1  #important for SAPT in psi4, default
}

set PROPERTIES_ORIGIN ["COM"]
properties('MP2/aug-cc-pvtz', properties = ['dipole'])
--------------------------------------------------------------------------

    Molecular point group: c1
  Charge       = 0
  Multiplicity = 1
  Basis Set: AUG-CC-PVTZ
    Blend: AUG-CC-PVTZ
  Basis Set: (AUG-CC-PVTZ AUX)
    Blend: AUG-CC-PVTZ-JKFIT

    Orbital Energies [Eh]
    ---------------------

    Doubly Occupied:

       1A    -20.595786     2A    -20.580715     3A    -20.574992
       4A    -20.569859     5A    -20.558457     6A    -11.354220
       7A    -11.299469     8A    -11.290988     9A    -11.286022
      10A    -11.278531    11A     -1.434327    12A     -1.390296
      13A     -1.374514    14A     -1.348064    15A     -1.347086
      16A     -1.057539    17A     -1.021232    18A     -0.896578
      19A     -0.869270    20A     -0.795527    21A     -0.748551
      22A     -0.725256    23A     -0.711653    24A     -0.693920
      25A     -0.667289    26A     -0.646916    27A     -0.617408
      28A     -0.614336    29A     -0.600488    30A     -0.584027
      31A     -0.571305    32A     -0.555963    33A     -0.542535
      34A     -0.515245    35A     -0.501731    36A     -0.490151
      37A     -0.487050    38A     -0.470569    39A     -0.440732
      40A     -0.415628

  @DF-RHF Final Energy:  -569.66934948346420

   => Energetics <=

    Nuclear Repulsion Energy =            632.8092276798312241
    One-Electron Energy =               -2039.9087012106508610
    Two-Electron Energy =                 837.4301240473553207
    Total Energy =                       -569.6693494834642024
  Basis Set: (AUG-CC-PVTZ AUX)
    Blend: AUG-CC-PVTZ-RI
    Molecular point group: c1

    Geometry (in Angstrom), charge = 0, multiplicity = 1:

       Center              X                  Y                   Z               Mass
    ------------   -----------------  -----------------  -----------------  -----------------
         O           -0.235201293773     1.799817210697    -0.415873125560    15.994914619570
         O            0.478322706227    -1.388078789303     0.983773874440    15.994914619570
         O           -1.891071293773    -1.477894789303    -0.409313125560    15.994914619570
         O            2.748108706227    -0.297088789303     0.083012874440    15.994914619570
         O           -1.677442293773     0.686880210697     1.078351874440    15.994914619570
         C            0.475076706227    -0.985164789303    -0.385298125560    12.000000000000
         C           -0.916127293773    -0.514054789303    -0.812622125560    12.000000000000
         C            1.514037706227     0.122529210697    -0.482473125560    12.000000000000
         C           -1.280234293773     0.872496210697    -0.273907125560    12.000000000000
         C            0.990676706227     1.371284210697     0.211096874440    12.000000000000
         H            0.772425706227    -1.833040789303    -1.021298125560     1.007825032230
         H           -0.937597293773    -0.451991789303    -1.907609125560     1.007825032230
         H            1.705331706227     0.357045210697    -1.535645125560     1.007825032230
         H           -2.108390293773     1.296538210697    -0.855596125560     1.007825032230
         H            0.832556706227     1.176082210697     1.276339874440     1.007825032230
         H            1.690049706227     2.200261210697     0.091967874440     1.007825032230
         H           -0.269252293773    -2.007810789303     1.072759874440     1.007825032230
         H           -2.291557293773    -1.102849789303     0.399794874440     1.007825032230
         H            2.499381706227    -0.802927789303     0.880617874440     1.007825032230
         H           -2.059201993773     1.578803910697     1.406093074440     1.007825032230

  Basis Set: AUG-CC-PVTZ
    Blend: AUG-CC-PVTZ
  Basis Set: (AUG-CC-PVTZ AUX)
    Blend: AUG-CC-PVTZ-JKFIT
	 Reference Energy          =    -569.6693494834642024 [Eh]
	 Singles Energy            =      -0.0000000000000000 [Eh]
	 Same-Spin Energy          =      -0.5551193844794644 [Eh]
	 Opposite-Spin Energy      =      -1.7055746118080635 [Eh]
	 Correlation Energy        =      -2.2606939962875279 [Eh]
	 Total Energy              =    -571.9300434797517028 [Eh]

	 ================> DF-SCS-MP2 Energies <==================
	-----------------------------------------------------------
	 SCS Same-Spin Scale       =       0.3333333333333333 [-]
	 SCS Opposite-Spin Scale   =       1.2000000000000000 [-]
	 SCS Same-Spin Energy      =      -0.1850397948264881 [Eh]
	 SCS Opposite-Spin Energy  =      -2.0466895341696763 [Eh]
	 SCS Correlation Energy    =      -2.2317293289961642 [Eh]
	 SCS Total Energy          =    -571.9010788124603550 [Eh]
	-----------------------------------------------------------

  Dipole Moment: [D]
     X:    -2.3188      Y:     1.0056      Z:     0.4232     Total:     2.5627

*** Psi4 exiting successfully. Buy a developer a beer!
