                               Psi4 1.4a3.dev225

  ==> Input File <==

--------------------------------------------------------------------------
#psi4
#
memory 32 gb

molecule  {
0 1
  O       -0.2343850     1.7978400    -0.4145210
  O        0.4791390    -1.3900560     0.9851260
  O       -1.8902550    -1.4798720    -0.4079610
  O        2.7489250    -0.2990660     0.0843650
  O       -1.6766260     0.6849030     1.0797040
  C        0.4758930    -0.9871420    -0.3839460
  C       -0.9153110    -0.5160320    -0.8112700
  C        1.4714265     0.1353186    -0.5010207
  C       -1.2794180     0.8705190    -0.2725550
  C        0.9914930     1.3693070     0.2124490
  H        0.7732420    -1.8350180    -1.0199460
  H       -0.9367810    -0.4539690    -1.9062570
  H        1.7061480     0.3550680    -1.5342930
  H       -2.1075740     1.2945610    -0.8542440
  H        0.8333730     1.1741050     1.2776920
  H        1.6908660     2.1982840     0.0933200
  H       -0.2684360    -2.0097880     1.0741120
  H       -2.2907410    -1.1048270     0.4011470
  H        2.5001980    -0.8049050     0.8819700
  H       -2.0397460     1.5332780     1.3914430
units angstrom
no_reorient  #important for SAPT in psi4, default
symmetry c1  #important for SAPT in psi4, default
}

set PROPERTIES_ORIGIN ["COM"]
properties('MP2/aug-cc-pvtz', properties = ['dipole'])
--------------------------------------------------------------------------

    Molecular point group: c1
  Charge       = 0
  Multiplicity = 1
  Basis Set: AUG-CC-PVTZ
    Blend: AUG-CC-PVTZ
  Basis Set: (AUG-CC-PVTZ AUX)
    Blend: AUG-CC-PVTZ-JKFIT

    Orbital Energies [Eh]
    ---------------------

    Doubly Occupied:

       1A    -20.592786     2A    -20.581329     3A    -20.575481
       4A    -20.570865     5A    -20.553251     6A    -11.355740
       7A    -11.300067     8A    -11.292444     9A    -11.286148
      10A    -11.280486    11A     -1.439174    12A     -1.389961
      13A     -1.372678    14A     -1.354070    15A     -1.334203
      16A     -1.063735    17A     -1.025631    18A     -0.901028
      19A     -0.870621    20A     -0.797661    21A     -0.752941
      22A     -0.727612    23A     -0.712987    24A     -0.695052
      25A     -0.665652    26A     -0.644880    27A     -0.620298
      28A     -0.615378    29A     -0.601113    30A     -0.584399
      31A     -0.569258    32A     -0.552000    33A     -0.542125
      34A     -0.518793    35A     -0.503108    36A     -0.490446
      37A     -0.486217    38A     -0.475185    39A     -0.441660
      40A     -0.420077

  @DF-RHF Final Energy:  -569.67118512831053

   => Energetics <=

    Nuclear Repulsion Energy =            633.3839584696593192
    One-Electron Energy =               -2040.9972144068278794
    Two-Electron Energy =                 837.9420708088580341
    Total Energy =                       -569.6711851283105261
  Basis Set: (AUG-CC-PVTZ AUX)
    Blend: AUG-CC-PVTZ-RI
    Molecular point group: c1

    Geometry (in Angstrom), charge = 0, multiplicity = 1:

       Center              X                  Y                   Z               Mass
    ------------   -----------------  -----------------  -----------------  -----------------
         O           -0.231853509758     1.798928792025    -0.414174231718    15.994914619570
         O            0.481670490242    -1.388967207975     0.985472768282    15.994914619570
         O           -1.887723509758    -1.478783207975    -0.407614231718    15.994914619570
         O            2.751456490242    -0.297977207975     0.084711768282    15.994914619570
         O           -1.674094509758     0.685991792025     1.080050768282    15.994914619570
         C            0.478424490242    -0.986053207975    -0.383599231718    12.000000000000
         C           -0.912779509758    -0.514943207975    -0.810923231718    12.000000000000
         C            1.473957990242     0.136407392025    -0.500673931718    12.000000000000
         C           -1.276886509758     0.871607792025    -0.272208231718    12.000000000000
         C            0.994024490242     1.370395792025     0.212795768282    12.000000000000
         H            0.775773490242    -1.833929207975    -1.019599231718     1.007825032230
         H           -0.934249509758    -0.452880207975    -1.905910231718     1.007825032230
         H            1.708679490242     0.356156792025    -1.533946231718     1.007825032230
         H           -2.105042509758     1.295649792025    -0.853897231718     1.007825032230
         H            0.835904490242     1.175193792025     1.278038768282     1.007825032230
         H            1.693397490242     2.199372792025     0.093666768282     1.007825032230
         H           -0.265904509758    -2.008699207975     1.074458768282     1.007825032230
         H           -2.288209509758    -1.103738207975     0.401493768282     1.007825032230
         H            2.502729490242    -0.803816207975     0.882316768282     1.007825032230
         H           -2.037214509758     1.534366792025     1.391789768282     1.007825032230

  Basis Set: AUG-CC-PVTZ
    Blend: AUG-CC-PVTZ
  Basis Set: (AUG-CC-PVTZ AUX)
    Blend: AUG-CC-PVTZ-JKFIT
	 Reference Energy          =    -569.6711851283105261 [Eh]
	 Singles Energy            =      -0.0000000000000000 [Eh]
	 Same-Spin Energy          =      -0.5548056294473873 [Eh]
	 Opposite-Spin Energy      =      -1.7049333123344002 [Eh]
	 Correlation Energy        =      -2.2597389417817872 [Eh]
	 Total Energy              =    -571.9309240700922601 [Eh]

	 ================> DF-SCS-MP2 Energies <==================
	-----------------------------------------------------------
	 SCS Same-Spin Scale       =       0.3333333333333333 [-]
	 SCS Opposite-Spin Scale   =       1.2000000000000000 [-]
	 SCS Same-Spin Energy      =      -0.1849352098157958 [Eh]
	 SCS Opposite-Spin Energy  =      -2.0459199748012802 [Eh]
	 SCS Correlation Energy    =      -2.2308551846170759 [Eh]
	 SCS Total Energy          =    -571.9020403129276247 [Eh]
	-----------------------------------------------------------

  Dipole Moment: [D]
     X:    -2.4384      Y:     1.0311      Z:     0.3457     Total:     2.6699

*** Psi4 exiting successfully. Buy a developer a beer!
