                               Psi4 1.3.2 release

  ==> Input File <==

--------------------------------------------------------------------------
#psi4
#
memory 32 gb

molecule  {
0 1
  O       -0.1147700    -1.8002930     0.4548730
  O        0.3584290     1.3939840    -1.0246780
  O       -1.9551560     1.3713260     0.4690830
  O        2.7148150     0.4505790    -0.2056670
  O       -1.6716310    -0.8002260    -0.9984850
  C        0.4315910     1.0135520     0.3497470
  C       -0.9093320     0.4742750     0.8400700
  C        1.5345100    -0.0288940     0.4204030
  C       -1.2151430    -0.9364420     0.3397180
  C        0.8923397    -1.3839345    -0.1336199
  H        0.7042560     1.8874530     0.9605880
  H       -0.8818830     0.4322700     1.9353370
  H        1.7837760    -0.2316310     1.4680400
  H       -1.9939520    -1.3968640     0.9617720
  H        0.8436020    -1.1475360    -1.2899680
  H        1.8059140    -2.1013880    -0.1265130
  H       -0.3930520     2.0121160    -1.0836700
  H       -2.3417080     0.9766970    -0.3400740
  H        2.3997000     0.9352960    -0.9928030
  H       -1.9956420    -1.6762600    -1.2784950
units angstrom
no_reorient  #important for SAPT in psi4, default
symmetry c1  #important for SAPT in psi4, default
}

set PROPERTIES_ORIGIN ["COM"]
properties('MP2/aug-cc-pvtz', properties = ['dipole'])
--------------------------------------------------------------------------

    Molecular point group: c1
  Charge       = 0
  Multiplicity = 1
  Basis Set: AUG-CC-PVTZ
    Blend: AUG-CC-PVTZ
  Basis Set: (AUG-CC-PVTZ AUX)
    Blend: AUG-CC-PVTZ-JKFIT

    Orbital Energies [Eh]
    ---------------------

    Doubly Occupied:

       1A    -20.600460     2A    -20.599604     3A    -20.578835
       4A    -20.568778     5A    -20.558430     6A    -11.367309
       7A    -11.303498     8A    -11.287751     9A    -11.283366
      10A    -11.280234    11A     -1.499470    12A     -1.405623
      13A     -1.386557    14A     -1.365933    15A     -1.344729
      16A     -1.062295    17A     -1.026300    18A     -0.887046
      19A     -0.886607    20A     -0.800208    21A     -0.755377
      22A     -0.739959    23A     -0.732250    24A     -0.701289
      25A     -0.678242    26A     -0.653013    27A     -0.648350
      28A     -0.627738    29A     -0.604220    30A     -0.584710
      31A     -0.568261    32A     -0.552017    33A     -0.543099
      34A     -0.522380    35A     -0.510613    36A     -0.500660
      37A     -0.483194    38A     -0.445535    39A     -0.435341
      40A     -0.385198

  @DF-RHF Final Energy:  -569.63136068431334

   => Energetics <=

    Nuclear Repulsion Energy =            636.2111377469914260
    One-Electron Energy =               -2046.1560398120816444
    Two-Electron Energy =                 840.3135413807768828
    Total Energy =                       -569.6313606843133357
  Basis Set: (AUG-CC-PVTZ AUX)
    Blend: AUG-CC-PVTZ-RI
    Molecular point group: c1

    Geometry (in Angstrom), charge = 0, multiplicity = 1:

       Center              X                  Y                   Z               Mass
    ------------   -----------------  -----------------  -----------------  -----------------
         O           -0.101764247953    -1.794916207115     0.447273281540    15.994914619570
         O            0.371434752047     1.399360792885    -1.032277718460    15.994914619570
         O           -1.942150247953     1.376702792885     0.461483281540    15.994914619570
         O            2.727820752047     0.455955792885    -0.213266718460    15.994914619570
         O           -1.658625247953    -0.794849207115    -1.006084718460    15.994914619570
         C            0.444596752047     1.018928792885     0.342147281540    12.000000000000
         C           -0.896326247953     0.479651792885     0.832470281540    12.000000000000
         C            1.547515752047    -0.023517207115     0.412803281540    12.000000000000
         C           -1.202137247953    -0.931065207115     0.332118281540    12.000000000000
         C            0.905345452047    -1.378557707115    -0.141219618460    12.000000000000
         H            0.717261752047     1.892829792885     0.952988281540     1.007825032230
         H           -0.868877247953     0.437646792885     1.927737281540     1.007825032230
         H            1.796781752047    -0.226254207115     1.460440281540     1.007825032230
         H           -1.980946247953    -1.391487207115     0.954172281540     1.007825032230
         H            0.856607752047    -1.142159207115    -1.297567718460     1.007825032230
         H            1.818919752047    -2.096011207115    -0.134112718460     1.007825032230
         H           -0.380046247953     2.017492792885    -1.091269718460     1.007825032230
         H           -2.328702247953     0.982073792885    -0.347673718460     1.007825032230
         H            2.412705752047     0.940672792885    -1.000402718460     1.007825032230
         H           -1.982636247953    -1.670883207115    -1.286094718460     1.007825032230

  Basis Set: AUG-CC-PVTZ
    Blend: AUG-CC-PVTZ
  Basis Set: (AUG-CC-PVTZ AUX)
    Blend: AUG-CC-PVTZ-JKFIT
	 Reference Energy          =    -569.6313606843133357 [Eh]
	 Singles Energy            =      -0.0000000000000000 [Eh]
	 Same-Spin Energy          =      -0.5560021917612112 [Eh]
	 Opposite-Spin Energy      =      -1.7040880558792018 [Eh]
	 Correlation Energy        =      -2.2600902476404130 [Eh]
	 Total Energy              =    -571.8914509319537274 [Eh]

	 ================> DF-SCS-MP2 Energies <==================
	-----------------------------------------------------------
	 SCS Same-Spin Scale       =       0.3333333333333333 [-]
	 SCS Opposite-Spin Scale   =       1.2000000000000000 [-]
	 SCS Same-Spin Energy      =      -0.1853340639204037 [Eh]
	 SCS Opposite-Spin Energy  =      -2.0449056670550418 [Eh]
	 SCS Correlation Energy    =      -2.2302397309754456 [Eh]
	 SCS Total Energy          =    -571.8616004152887626 [Eh]
	-----------------------------------------------------------

  Dipole Moment: [D]
     X:    -2.8732      Y:    -1.1417      Z:    -0.0048     Total:     3.0917

*** Psi4 exiting successfully. Buy a developer a beer!
