                               Psi4 1.3.2 release

  ==> Input File <==

--------------------------------------------------------------------------
#psi4
#
memory 32 gb

molecule  {
0 1
  O       -0.1147700    -1.8002930     0.4548730
  O        0.3584290     1.3939840    -1.0246780
  O       -1.9551560     1.3713260     0.4690830
  O        2.7148150     0.4505790    -0.2056670
  O       -1.6716310    -0.8002260    -0.9984850
  C        0.4315910     1.0135520     0.3497470
  C       -0.9093320     0.4742750     0.8400700
  C        1.5345100    -0.0288940     0.4204030
  C       -1.2168761    -0.9530238     0.3903703
  C        1.0549700    -1.3167000    -0.2286510
  H        0.7042560     1.8874530     0.9605880
  H       -0.8896229     0.3948394     1.9334268
  H        1.7837760    -0.2316310     1.4680400
  H       -1.9939520    -1.3968640     0.9617720
  H        0.8436020    -1.1475360    -1.2899680
  H        1.8059140    -2.1013880    -0.1265130
  H       -0.3930520     2.0121160    -1.0836700
  H       -2.3417080     0.9766970    -0.3400740
  H        2.3997000     0.9352960    -0.9928030
  H       -1.9956420    -1.6762600    -1.2784950
units angstrom
no_reorient  #important for SAPT in psi4, default
symmetry c1  #important for SAPT in psi4, default
}

set PROPERTIES_ORIGIN ["COM"]
properties('MP2/aug-cc-pvtz', properties = ['dipole'])
--------------------------------------------------------------------------

    Molecular point group: c1
  Charge       = 0
  Multiplicity = 1
  Basis Set: AUG-CC-PVTZ
    Blend: AUG-CC-PVTZ
  Basis Set: (AUG-CC-PVTZ AUX)
    Blend: AUG-CC-PVTZ-JKFIT

    Orbital Energies [Eh]
    ---------------------

    Doubly Occupied:

       1A    -20.583093     2A    -20.583032     3A    -20.575045
       4A    -20.571162     5A    -20.558956     6A    -11.353930
       7A    -11.299289     8A    -11.292466     9A    -11.286625
      10A    -11.280064    11A     -1.433299    12A     -1.391458
      13A     -1.374731    14A     -1.348203    15A     -1.343951
      16A     -1.059842    17A     -1.027349    18A     -0.899701
      19A     -0.872688    20A     -0.795467    21A     -0.751810
      22A     -0.726367    23A     -0.712649    24A     -0.692983
      25A     -0.668037    26A     -0.646472    27A     -0.619437
      28A     -0.615921    29A     -0.601237    30A     -0.584413
      31A     -0.569785    32A     -0.555601    33A     -0.542761
      34A     -0.516513    35A     -0.503668    36A     -0.491799
      37A     -0.483779    38A     -0.471561    39A     -0.443375
      40A     -0.417416

  @DF-RHF Final Energy:  -569.67121176866726

   => Energetics <=

    Nuclear Repulsion Energy =            633.1892239842344452
    One-Electron Energy =               -2040.6290047881579994
    Two-Electron Energy =                 837.7685690352561778
    Total Energy =                       -569.6712117686672627
  Basis Set: (AUG-CC-PVTZ AUX)
    Blend: AUG-CC-PVTZ-RI
    Molecular point group: c1

    Geometry (in Angstrom), charge = 0, multiplicity = 1:

       Center              X                  Y                   Z               Mass
    ------------   -----------------  -----------------  -----------------  -----------------
         O           -0.114579507881    -1.798715595166     0.450835165516    15.994914619570
         O            0.358619492119     1.395561404834    -1.028715834484    15.994914619570
         O           -1.954965507881     1.372903404834     0.465045165516    15.994914619570
         O            2.715005492119     0.452156404834    -0.209704834484    15.994914619570
         O           -1.671440507881    -0.798648595166    -1.002522834484    15.994914619570
         C            0.431781492119     1.015129404834     0.345709165516    12.000000000000
         C           -0.909141507881     0.475852404834     0.836032165516    12.000000000000
         C            1.534700492119    -0.027316595166     0.416365165516    12.000000000000
         C           -1.216685607881    -0.951446395166     0.386332465516    12.000000000000
         C            1.055160492119    -1.315122595166    -0.232688834484    12.000000000000
         H            0.704446492119     1.889030404834     0.956550165516     1.007825032230
         H           -0.889432407881     0.396416804834     1.929388965516     1.007825032230
         H            1.783966492119    -0.230053595166     1.464002165516     1.007825032230
         H           -1.993761507881    -1.395286595166     0.957734165516     1.007825032230
         H            0.843792492119    -1.145958595166    -1.294005834484     1.007825032230
         H            1.806104492119    -2.099810595166    -0.130550834484     1.007825032230
         H           -0.392861507881     2.013693404834    -1.087707834484     1.007825032230
         H           -2.341517507881     0.978274404834    -0.344111834484     1.007825032230
         H            2.399890492119     0.936873404834    -0.996840834484     1.007825032230
         H           -1.995451507881    -1.674682595166    -1.282532834484     1.007825032230

  Basis Set: AUG-CC-PVTZ
    Blend: AUG-CC-PVTZ
  Basis Set: (AUG-CC-PVTZ AUX)
    Blend: AUG-CC-PVTZ-JKFIT
	 Reference Energy          =    -569.6712117686672627 [Eh]
	 Singles Energy            =      -0.0000000000000000 [Eh]
	 Same-Spin Energy          =      -0.5546611320149619 [Eh]
	 Opposite-Spin Energy      =      -1.7044169083313643 [Eh]
	 Correlation Energy        =      -2.2590780403463260 [Eh]
	 Total Energy              =    -571.9302898090136296 [Eh]

	 ================> DF-SCS-MP2 Energies <==================
	-----------------------------------------------------------
	 SCS Same-Spin Scale       =       0.3333333333333333 [-]
	 SCS Opposite-Spin Scale   =       1.2000000000000000 [-]
	 SCS Same-Spin Energy      =      -0.1848870440049873 [Eh]
	 SCS Opposite-Spin Energy  =      -2.0453002899976371 [Eh]
	 SCS Correlation Energy    =      -2.2301873340026246 [Eh]
	 SCS Total Energy          =    -571.9013991026698704 [Eh]
	-----------------------------------------------------------

  Dipole Moment: [D]
     X:    -2.0765      Y:    -1.0313      Z:    -0.1062     Total:     2.3210

*** Psi4 exiting successfully. Buy a developer a beer!
