                               Psi4 1.3.2 release

  ==> Input File <==

--------------------------------------------------------------------------
#psi4
#
memory 32 gb

molecule  {
0 1
  O       -0.1147700    -1.8002930     0.4548730
  O        0.3584290     1.3939840    -1.0246780
  O       -1.9551560     1.3713260     0.4690830
  O        2.7148150     0.4505790    -0.2056670
  O       -1.6716310    -0.8002260    -0.9984850
  C        0.4315910     1.0135520     0.3497470
  C       -0.9093320     0.4742750     0.8400700
  C        1.5345100    -0.0288940     0.4204030
  C       -1.1875238    -0.9062409     0.3127810
  C        1.0288590    -1.2762346    -0.2428623
  H        0.7042560     1.8874530     0.9605880
  H       -0.8818830     0.4322700     1.9353370
  H        1.7837760    -0.2316310     1.4680400
  H       -1.9939520    -1.3968640     0.9617720
  H        0.8436020    -1.1475360    -1.2899680
  H        1.8059140    -2.1013880    -0.1265130
  H       -0.3930520     2.0121160    -1.0836700
  H       -2.3417080     0.9766970    -0.3400740
  H        2.3997000     0.9352960    -0.9928030
  H       -1.9956420    -1.6762600    -1.2784950
units angstrom
no_reorient  #important for SAPT in psi4, default
symmetry c1  #important for SAPT in psi4, default
}

set PROPERTIES_ORIGIN ["COM"]
properties('MP2/aug-cc-pvtz', properties = ['dipole'])
--------------------------------------------------------------------------

    Molecular point group: c1
  Charge       = 0
  Multiplicity = 1
  Basis Set: AUG-CC-PVTZ
    Blend: AUG-CC-PVTZ
  Basis Set: (AUG-CC-PVTZ AUX)
    Blend: AUG-CC-PVTZ-JKFIT

    Orbital Energies [Eh]
    ---------------------

    Doubly Occupied:

       1A    -20.593747     2A    -20.584252     3A    -20.576091
       4A    -20.572502     5A    -20.559439     6A    -11.354741
       7A    -11.298831     8A    -11.290437     9A    -11.286002
      10A    -11.278426    11A     -1.444963    12A     -1.393311
      13A     -1.378587    14A     -1.358411    15A     -1.349059
      16A     -1.064274    17A     -1.023819    18A     -0.900857
      19A     -0.867793    20A     -0.803141    21A     -0.752837
      22A     -0.729643    23A     -0.712195    24A     -0.697402
      25A     -0.671690    26A     -0.651133    27A     -0.623357
      28A     -0.615840    29A     -0.604036    30A     -0.582969
      31A     -0.570764    32A     -0.553123    33A     -0.544602
      34A     -0.518501    35A     -0.494362    36A     -0.492671
      37A     -0.492244    38A     -0.473703    39A     -0.437955
      40A     -0.419274

  @DF-RHF Final Energy:  -569.66679092552988

   => Energetics <=

    Nuclear Repulsion Energy =            635.6228252113421604
    One-Electron Energy =               -2045.3452644124365634
    Two-Electron Energy =                 840.0556482755645220
    Total Energy =                       -569.6667909255298810
  Basis Set: (AUG-CC-PVTZ AUX)
    Blend: AUG-CC-PVTZ-RI
    Molecular point group: c1

    Geometry (in Angstrom), charge = 0, multiplicity = 1:

       Center              X                  Y                   Z               Mass
    ------------   -----------------  -----------------  -----------------  -----------------
         O           -0.114890705391    -1.805944403468     0.458163798377    15.994914619570
         O            0.358308294609     1.388332596532    -1.021387201623    15.994914619570
         O           -1.955276705391     1.365674596532     0.472373798377    15.994914619570
         O            2.714694294609     0.444927596532    -0.202376201623    15.994914619570
         O           -1.671751705391    -0.805877403468    -0.995194201623    15.994914619570
         C            0.431470294609     1.007900596532     0.353037798377    12.000000000000
         C           -0.909452705391     0.468623596532     0.843360798377    12.000000000000
         C            1.534389294609    -0.034545403468     0.423693798377    12.000000000000
         C           -1.187644505391    -0.911892303468     0.316071798377    12.000000000000
         C            1.028738294609    -1.281886003468    -0.239571501623    12.000000000000
         H            0.704135294609     1.881801596532     0.963878798377     1.007825032230
         H           -0.882003705391     0.426618596532     1.938627798377     1.007825032230
         H            1.783655294609    -0.237282403468     1.471330798377     1.007825032230
         H           -1.994072705391    -1.402515403468     0.965062798377     1.007825032230
         H            0.843481294609    -1.153187403468    -1.286677201623     1.007825032230
         H            1.805793294609    -2.107039403468    -0.123222201623     1.007825032230
         H           -0.393172705391     2.006464596532    -1.080379201623     1.007825032230
         H           -2.341828705391     0.971045596532    -0.336783201623     1.007825032230
         H            2.399579294609     0.929644596532    -0.989512201623     1.007825032230
         H           -1.995762705391    -1.681911403468    -1.275204201623     1.007825032230

  Basis Set: AUG-CC-PVTZ
    Blend: AUG-CC-PVTZ
  Basis Set: (AUG-CC-PVTZ AUX)
    Blend: AUG-CC-PVTZ-JKFIT
	 Reference Energy          =    -569.6667909255298810 [Eh]
	 Singles Energy            =      -0.0000000000000000 [Eh]
	 Same-Spin Energy          =      -0.5554487837752990 [Eh]
	 Opposite-Spin Energy      =      -1.7049945617178881 [Eh]
	 Correlation Energy        =      -2.2604433454931874 [Eh]
	 Total Energy              =    -571.9272342710230532 [Eh]

	 ================> DF-SCS-MP2 Energies <==================
	-----------------------------------------------------------
	 SCS Same-Spin Scale       =       0.3333333333333333 [-]
	 SCS Opposite-Spin Scale   =       1.2000000000000000 [-]
	 SCS Same-Spin Energy      =      -0.1851495945917663 [Eh]
	 SCS Opposite-Spin Energy  =      -2.0459934740614658 [Eh]
	 SCS Correlation Energy    =      -2.2311430686532323 [Eh]
	 SCS Total Energy          =    -571.8979339941830631 [Eh]
	-----------------------------------------------------------

  Dipole Moment: [D]
     X:    -2.1709      Y:    -0.8896      Z:    -0.4025     Total:     2.3804

*** Psi4 exiting successfully. Buy a developer a beer!
