                               Psi4 1.4a3.dev225

  ==> Input File <==

--------------------------------------------------------------------------
#psi4
#
memory 32 gb

molecule  {
0 1
  O       -0.2343850     1.7978400    -0.4145210
  O        0.4791390    -1.3900560     0.9851260
  O       -1.8902550    -1.4798720    -0.4079610
  O        2.7489250    -0.2990660     0.0843650
  O       -1.6766260     0.6849030     1.0797040
  C        0.4758930    -0.9871420    -0.3839460
  C       -0.9153110    -0.5160320    -0.8112700
  C        1.5148540     0.1205520    -0.4811210
  C       -1.2794180     0.8705190    -0.2725550
  C        0.9914930     1.3693070     0.2124490
  H        0.7732420    -1.8350180    -1.0199460
  H       -0.9367810    -0.4539690    -1.9062570
  H        1.7061480     0.3550680    -1.5342930
  H       -2.0924792     1.2868320    -0.8436416
  H        0.8333730     1.1741050     1.2776920
  H        1.6908660     2.1982840     0.0933200
  H       -0.2684360    -2.0097880     1.0741120
  H       -2.2907410    -1.1048270     0.4011470
  H        2.5001980    -0.8049050     0.8819700
  H       -2.0397460     1.5332780     1.3914430
units angstrom
no_reorient  #important for SAPT in psi4, default
symmetry c1  #important for SAPT in psi4, default
}

set PROPERTIES_ORIGIN ["COM"]
properties('MP2/aug-cc-pvtz', properties = ['dipole'])
--------------------------------------------------------------------------

    Molecular point group: c1
  Charge       = 0
  Multiplicity = 1
  Basis Set: AUG-CC-PVTZ
    Blend: AUG-CC-PVTZ
  Basis Set: (AUG-CC-PVTZ AUX)
    Blend: AUG-CC-PVTZ-JKFIT

    Orbital Energies [Eh]
    ---------------------

    Doubly Occupied:

       1A    -20.591755     2A    -20.580979     3A    -20.575237
       4A    -20.569968     5A    -20.558574     6A    -11.352492
       7A    -11.299525     8A    -11.291096     9A    -11.286162
      10A    -11.278714    11A     -1.438077    12A     -1.390857
      13A     -1.375404    14A     -1.353784    15A     -1.347365
      16A     -1.057827    17A     -1.023437    18A     -0.898950
      19A     -0.870999    20A     -0.797910    21A     -0.753894
      22A     -0.727178    23A     -0.712650    24A     -0.696063
      25A     -0.667853    26A     -0.647500    27A     -0.620722
      28A     -0.614596    29A     -0.601409    30A     -0.584587
      31A     -0.573174    32A     -0.556506    33A     -0.542856
      34A     -0.515768    35A     -0.503873    36A     -0.490680
      37A     -0.487476    38A     -0.471163    39A     -0.441201
      40A     -0.416011

  @DF-RHF Final Energy:  -569.67466896764597

   => Energetics <=

    Nuclear Repulsion Energy =            633.2749700749257045
    One-Electron Energy =               -2040.7707335858249280
    Two-Electron Energy =                 837.8210945432532526
    Total Energy =                       -569.6746689676459710
  Basis Set: (AUG-CC-PVTZ AUX)
    Blend: AUG-CC-PVTZ-RI
    Molecular point group: c1

    Geometry (in Angstrom), charge = 0, multiplicity = 1:

       Center              X                  Y                   Z               Mass
    ------------   -----------------  -----------------  -----------------  -----------------
         O           -0.235427870473     1.800161615743    -0.415836857975    15.994914619570
         O            0.478096129527    -1.387734384257     0.983810142025    15.994914619570
         O           -1.891297870473    -1.477550384257    -0.409276857975    15.994914619570
         O            2.747882129527    -0.296744384257     0.083049142025    15.994914619570
         O           -1.677668870473     0.687224615743     1.078388142025    15.994914619570
         C            0.474850129527    -0.984820384257    -0.385261857975    12.000000000000
         C           -0.916353870473    -0.513710384257    -0.812585857975    12.000000000000
         C            1.513811129527     0.122873615743    -0.482436857975    12.000000000000
         C           -1.280460870473     0.872840615743    -0.273870857975    12.000000000000
         C            0.990450129527     1.371628615743     0.211133142025    12.000000000000
         H            0.772199129527    -1.832696384257    -1.021261857975     1.007825032230
         H           -0.937823870473    -0.451647384257    -1.907572857975     1.007825032230
         H            1.705105129527     0.357389615743    -1.535608857975     1.007825032230
         H           -2.093522070473     1.289153615743    -0.844957457975     1.007825032230
         H            0.832330129527     1.176426615743     1.276376142025     1.007825032230
         H            1.689823129527     2.200605615743     0.092004142025     1.007825032230
         H           -0.269478870473    -2.007466384257     1.072796142025     1.007825032230
         H           -2.291783870473    -1.102505384257     0.399831142025     1.007825032230
         H            2.499155129527    -0.802583384257     0.880654142025     1.007825032230
         H           -2.040788870473     1.535599615743     1.390127142025     1.007825032230

  Basis Set: AUG-CC-PVTZ
    Blend: AUG-CC-PVTZ
  Basis Set: (AUG-CC-PVTZ AUX)
    Blend: AUG-CC-PVTZ-JKFIT
	 Reference Energy          =    -569.6746689676459710 [Eh]
	 Singles Energy            =      -0.0000000000000000 [Eh]
	 Same-Spin Energy          =      -0.5544752342220856 [Eh]
	 Opposite-Spin Energy      =      -1.7038031952594614 [Eh]
	 Correlation Energy        =      -2.2582784294815470 [Eh]
	 Total Energy              =    -571.9329473971274638 [Eh]

	 ================> DF-SCS-MP2 Energies <==================
	-----------------------------------------------------------
	 SCS Same-Spin Scale       =       0.3333333333333333 [-]
	 SCS Opposite-Spin Scale   =       1.2000000000000000 [-]
	 SCS Same-Spin Energy      =      -0.1848250780740285 [Eh]
	 SCS Opposite-Spin Energy  =      -2.0445638343113535 [Eh]
	 SCS Correlation Energy    =      -2.2293889123853821 [Eh]
	 SCS Total Energy          =    -571.9040578800313597 [Eh]
	-----------------------------------------------------------

  Dipole Moment: [D]
     X:    -2.3044      Y:     0.9691      Z:     0.3900     Total:     2.5301

*** Psi4 exiting successfully. Buy a developer a beer!
