                               Psi4 1.3.2 release

  ==> Input File <==

--------------------------------------------------------------------------
#psi4
#
memory 32 gb

molecule  {
0 1
  O       -0.1147700    -1.8002930     0.4548730
  O        0.3584290     1.3939840    -1.0246780
  O       -1.9551560     1.3713260     0.4690830
  O        2.7148150     0.4505790    -0.2056670
  O       -1.6059902    -0.7698143    -1.0157144
  C        0.4315910     1.0135520     0.3497470
  C       -0.9093320     0.4742750     0.8400700
  C        1.5345100    -0.0288940     0.4204030
  C       -1.2151430    -0.9364420     0.3397180
  C        1.0549700    -1.3167000    -0.2286510
  H        0.7042560     1.8874530     0.9605880
  H       -0.8818830     0.4322700     1.9353370
  H        1.7837760    -0.2316310     1.4680400
  H       -1.9581709    -1.3932195     1.0066114
  H        0.8436020    -1.1475360    -1.2899680
  H        1.8059140    -2.1013880    -0.1265130
  H       -0.3930520     2.0121160    -1.0836700
  H       -2.3417080     0.9766970    -0.3400740
  H        2.3997000     0.9352960    -0.9928030
  H       -1.9956420    -1.6762600    -1.2784950
units angstrom
no_reorient  #important for SAPT in psi4, default
symmetry c1  #important for SAPT in psi4, default
}

set PROPERTIES_ORIGIN ["COM"]
properties('MP2/aug-cc-pvtz', properties = ['dipole'])
--------------------------------------------------------------------------

    Molecular point group: c1
  Charge       = 0
  Multiplicity = 1
  Basis Set: AUG-CC-PVTZ
    Blend: AUG-CC-PVTZ
  Basis Set: (AUG-CC-PVTZ AUX)
    Blend: AUG-CC-PVTZ-JKFIT

    Orbital Energies [Eh]
    ---------------------

    Doubly Occupied:

       1A    -20.598753     2A    -20.578666     3A    -20.574282
       4A    -20.569869     5A    -20.557257     6A    -11.353548
       7A    -11.296404     8A    -11.289818     9A    -11.284478
      10A    -11.276341    11A     -1.437456    12A     -1.390246
      13A     -1.374361    14A     -1.348807    15A     -1.346744
      16A     -1.057815    17A     -1.021723    18A     -0.895883
      19A     -0.868530    20A     -0.795111    21A     -0.751250
      22A     -0.723411    23A     -0.711717    24A     -0.693917
      25A     -0.668542    26A     -0.644100    27A     -0.619500
      28A     -0.612947    29A     -0.600861    30A     -0.582135
      31A     -0.573338    32A     -0.553688    33A     -0.541866
      34A     -0.514948    35A     -0.505008    36A     -0.490089
      37A     -0.485670    38A     -0.470467    39A     -0.439924
      40A     -0.413978

  @DF-RHF Final Energy:  -569.66692753335849

   => Energetics <=

    Nuclear Repulsion Energy =            634.7861291111894388
    One-Electron Energy =               -2043.8792195676014671
    Two-Electron Energy =                 839.4261629230535391
    Total Energy =                       -569.6669275333584892
  Basis Set: (AUG-CC-PVTZ AUX)
    Blend: AUG-CC-PVTZ-RI
    Molecular point group: c1

    Geometry (in Angstrom), charge = 0, multiplicity = 1:

       Center              X                  Y                   Z               Mass
    ------------   -----------------  -----------------  -----------------  -----------------
         O           -0.122007410398    -1.803559293821     0.456408502597    15.994914619570
         O            0.351191589602     1.390717706179    -1.023142497403    15.994914619570
         O           -1.962393410398     1.368059706179     0.470618502597    15.994914619570
         O            2.707577589602     0.447312706179    -0.204131497403    15.994914619570
         O           -1.613227610398    -0.773080593821    -1.014178897403    15.994914619570
         C            0.424353589602     1.010285706179     0.351282502597    12.000000000000
         C           -0.916569410398     0.471008706179     0.841605502597    12.000000000000
         C            1.527272589602    -0.032160293821     0.421938502597    12.000000000000
         C           -1.222380410398    -0.939708293821     0.341253502597    12.000000000000
         C            1.047732589602    -1.319966293821    -0.227115497403    12.000000000000
         H            0.697018589602     1.884186706179     0.962123502597     1.007825032230
         H           -0.889120410398     0.429003706179     1.936872502597     1.007825032230
         H            1.776538589602    -0.234897293821     1.469575502597     1.007825032230
         H           -1.965408310398    -1.396485793821     1.008146902597     1.007825032230
         H            0.836364589602    -1.150802293821    -1.288432497403     1.007825032230
         H            1.798676589602    -2.104654293821    -0.124977497403     1.007825032230
         H           -0.400289410398     2.008849706179    -1.082134497403     1.007825032230
         H           -2.348945410398     0.973430706179    -0.338538497403     1.007825032230
         H            2.392462589602     0.932029706179    -0.991267497403     1.007825032230
         H           -2.002879410398    -1.679526293821    -1.276959497403     1.007825032230

  Basis Set: AUG-CC-PVTZ
    Blend: AUG-CC-PVTZ
  Basis Set: (AUG-CC-PVTZ AUX)
    Blend: AUG-CC-PVTZ-JKFIT
	 Reference Energy          =    -569.6669275333584892 [Eh]
	 Singles Energy            =      -0.0000000000000000 [Eh]
	 Same-Spin Energy          =      -0.5556880563329399 [Eh]
	 Opposite-Spin Energy      =      -1.7062789851327285 [Eh]
	 Correlation Energy        =      -2.2619670414656685 [Eh]
	 Total Energy              =    -571.9288945748241986 [Eh]

	 ================> DF-SCS-MP2 Energies <==================
	-----------------------------------------------------------
	 SCS Same-Spin Scale       =       0.3333333333333333 [-]
	 SCS Opposite-Spin Scale   =       1.2000000000000000 [-]
	 SCS Same-Spin Energy      =      -0.1852293521109800 [Eh]
	 SCS Opposite-Spin Energy  =      -2.0475347821592740 [Eh]
	 SCS Correlation Energy    =      -2.2327641342702540 [Eh]
	 SCS Total Energy          =    -571.8996916676287583 [Eh]
	-----------------------------------------------------------

  Dipole Moment: [D]
     X:    -2.3453      Y:    -1.0409      Z:    -0.2994     Total:     2.5833

*** Psi4 exiting successfully. Buy a developer a beer!
