                               Psi4 1.3.2 release

  ==> Input File <==

--------------------------------------------------------------------------
#psi4
#
memory 32 gb

molecule  {
0 1
  O       -0.1147700    -1.8002930     0.4548730
  O        0.3584290     1.3939840    -1.0246780
  O       -1.9551560     1.3713260     0.4690830
  O        2.7148150     0.4505790    -0.2056670
  O       -1.6716310    -0.8002260    -0.9984850
  C        0.4238040     1.0048075     0.3435286
  C       -0.9093320     0.4742750     0.8400700
  C        1.5345100    -0.0288940     0.4204030
  C       -1.2151430    -0.9364420     0.3397180
  C        1.0433041    -1.3109641    -0.2312772
  H        0.7042560     1.8874530     0.9605880
  H       -0.8818830     0.4322700     1.9353370
  H        1.7837760    -0.2316310     1.4680400
  H       -1.9939520    -1.3968640     0.9617720
  H        0.8436020    -1.1475360    -1.2899680
  H        1.8059140    -2.1013880    -0.1265130
  H       -0.3930520     2.0121160    -1.0836700
  H       -2.3417080     0.9766970    -0.3400740
  H        2.3997000     0.9352960    -0.9928030
  H       -1.9956420    -1.6762600    -1.2784950
units angstrom
no_reorient  #important for SAPT in psi4, default
symmetry c1  #important for SAPT in psi4, default
}

set PROPERTIES_ORIGIN ["COM"]
properties('MP2/aug-cc-pvtz', properties = ['dipole'])
--------------------------------------------------------------------------

    Molecular point group: c1
  Charge       = 0
  Multiplicity = 1
  Basis Set: AUG-CC-PVTZ
    Blend: AUG-CC-PVTZ
  Basis Set: (AUG-CC-PVTZ AUX)
    Blend: AUG-CC-PVTZ-JKFIT

    Orbital Energies [Eh]
    ---------------------

    Doubly Occupied:

       1A    -20.592119     2A    -20.581896     3A    -20.574996
       4A    -20.571716     5A    -20.558628     6A    -11.354033
       7A    -11.298468     8A    -11.291171     9A    -11.285532
      10A    -11.277890    11A     -1.440312    12A     -1.392788
      13A     -1.376571    14A     -1.355097    15A     -1.348452
      16A     -1.060366    17A     -1.023276    18A     -0.897418
      19A     -0.870869    20A     -0.799238    21A     -0.753156
      22A     -0.726720    23A     -0.712890    24A     -0.696789
      25A     -0.670675    26A     -0.646994    27A     -0.621954
      28A     -0.614632    29A     -0.602819    30A     -0.584181
      31A     -0.572082    32A     -0.554392    33A     -0.543608
      34A     -0.516767    35A     -0.502404    36A     -0.491274
      37A     -0.488554    38A     -0.471708    39A     -0.441679
      40A     -0.414361

  @DF-RHF Final Energy:  -569.67394006066922

   => Energetics <=

    Nuclear Repulsion Energy =            634.2834465384106579
    One-Electron Energy =               -2042.7578250269136788
    Two-Electron Energy =                 838.8004384278339103
    Total Energy =                       -569.6739400606692243
  Basis Set: (AUG-CC-PVTZ AUX)
    Blend: AUG-CC-PVTZ-RI
    Molecular point group: c1

    Geometry (in Angstrom), charge = 0, multiplicity = 1:

       Center              X                  Y                   Z               Mass
    ------------   -----------------  -----------------  -----------------  -----------------
         O           -0.113214407709    -1.800052470349     0.455580412133    15.994914619570
         O            0.359984592291     1.394224529651    -1.023970587867    15.994914619570
         O           -1.953600407709     1.371566529651     0.469790412133    15.994914619570
         O            2.716370592291     0.450819529651    -0.204959587867    15.994914619570
         O           -1.670075407709    -0.799985470349    -0.997777587867    15.994914619570
         C            0.425359592291     1.005048029651     0.344236012133    12.000000000000
         C           -0.907776407709     0.474515529651     0.840777412133    12.000000000000
         C            1.536065592291    -0.028653470349     0.421110412133    12.000000000000
         C           -1.213587407709    -0.936201470349     0.340425412133    12.000000000000
         C            1.044859692291    -1.310723570349    -0.230569787867    12.000000000000
         H            0.705811592291     1.887693529651     0.961295412133     1.007825032230
         H           -0.880327407709     0.432510529651     1.936044412133     1.007825032230
         H            1.785331592291    -0.231390470349     1.468747412133     1.007825032230
         H           -1.992396407709    -1.396623470349     0.962479412133     1.007825032230
         H            0.845157592291    -1.147295470349    -1.289260587867     1.007825032230
         H            1.807469592291    -2.101147470349    -0.125805587867     1.007825032230
         H           -0.391496407709     2.012356529651    -1.082962587867     1.007825032230
         H           -2.340152407709     0.976937529651    -0.339366587867     1.007825032230
         H            2.401255592291     0.935536529651    -0.992095587867     1.007825032230
         H           -1.994086407709    -1.676019470349    -1.277787587867     1.007825032230

  Basis Set: AUG-CC-PVTZ
    Blend: AUG-CC-PVTZ
  Basis Set: (AUG-CC-PVTZ AUX)
    Blend: AUG-CC-PVTZ-JKFIT
	 Reference Energy          =    -569.6739400606692243 [Eh]
	 Singles Energy            =      -0.0000000000000000 [Eh]
	 Same-Spin Energy          =      -0.5547814107911085 [Eh]
	 Opposite-Spin Energy      =      -1.7040132874965686 [Eh]
	 Correlation Energy        =      -2.2587946982876770 [Eh]
	 Total Energy              =    -571.9327347589569399 [Eh]

	 ================> DF-SCS-MP2 Energies <==================
	-----------------------------------------------------------
	 SCS Same-Spin Scale       =       0.3333333333333333 [-]
	 SCS Opposite-Spin Scale   =       1.2000000000000000 [-]
	 SCS Same-Spin Energy      =      -0.1849271369303695 [Eh]
	 SCS Opposite-Spin Energy  =      -2.0448159449958823 [Eh]
	 SCS Correlation Energy    =      -2.2297430819262516 [Eh]
	 SCS Total Energy          =    -571.9036831425954688 [Eh]
	-----------------------------------------------------------

  Dipole Moment: [D]
     X:    -2.2165      Y:    -1.0013      Z:    -0.3153     Total:     2.4525

*** Psi4 exiting successfully. Buy a developer a beer!
