                               Psi4 1.3.2 release

  ==> Input File <==

--------------------------------------------------------------------------
#psi4
#
memory 32 gb

molecule  {
0 1
  O       -0.1147700    -1.8002930     0.4548730
  O        0.3523406     1.3705565    -1.0306125
  O       -1.9551560     1.3713260     0.4690830
  O        2.7148150     0.4505790    -0.2056670
  O       -1.6716310    -0.8002260    -0.9984850
  C        0.4315910     1.0135520     0.3497470
  C       -0.9093320     0.4742750     0.8400700
  C        1.5345100    -0.0288940     0.4204030
  C       -1.2151430    -0.9364420     0.3397180
  C        1.0549700    -1.3167000    -0.2286510
  H        0.7035650     1.8764590     0.9763230
  H       -0.8818830     0.4322700     1.9353370
  H        1.7837760    -0.2316310     1.4680400
  H       -1.9939520    -1.3968640     0.9617720
  H        0.8436020    -1.1475360    -1.2899680
  H        1.8059140    -2.1013880    -0.1265130
  H       -0.3930520     2.0121160    -1.0836700
  H       -2.3417080     0.9766970    -0.3400740
  H        2.3997000     0.9352960    -0.9928030
  H       -1.9956420    -1.6762600    -1.2784950
units angstrom
no_reorient  #important for SAPT in psi4, default
symmetry c1  #important for SAPT in psi4, default
}

set PROPERTIES_ORIGIN ["COM"]
properties('MP2/aug-cc-pvtz', properties = ['dipole'])
--------------------------------------------------------------------------

    Molecular point group: c1
  Charge       = 0
  Multiplicity = 1
  Basis Set: AUG-CC-PVTZ
    Blend: AUG-CC-PVTZ
  Basis Set: (AUG-CC-PVTZ AUX)
    Blend: AUG-CC-PVTZ-JKFIT

    Orbital Energies [Eh]
    ---------------------

    Doubly Occupied:

       1A    -20.591033     2A    -20.580323     3A    -20.574450
       4A    -20.573091     5A    -20.558199     6A    -11.353397
       7A    -11.297826     8A    -11.291111     9A    -11.285220
      10A    -11.277665    11A     -1.438303    12A     -1.390940
      13A     -1.375454    14A     -1.353540    15A     -1.347054
      16A     -1.058622    17A     -1.022589    18A     -0.898270
      19A     -0.869780    20A     -0.797303    21A     -0.751648
      22A     -0.727791    23A     -0.711200    24A     -0.695539
      25A     -0.669995    26A     -0.645843    27A     -0.620763
      28A     -0.612347    29A     -0.602858    30A     -0.584084
      31A     -0.571421    32A     -0.555875    33A     -0.543207
      34A     -0.515886    35A     -0.502329    36A     -0.491314
      37A     -0.487383    38A     -0.471490    39A     -0.439989
      40A     -0.415720

  @DF-RHF Final Energy:  -569.67329362072519

   => Energetics <=

    Nuclear Repulsion Energy =            634.1218796739040044
    One-Electron Energy =               -2042.4886420117104535
    Two-Electron Energy =                 838.6934687170812595
    Total Energy =                       -569.6732936207251896
  Basis Set: (AUG-CC-PVTZ AUX)
    Blend: AUG-CC-PVTZ-RI
    Molecular point group: c1

    Geometry (in Angstrom), charge = 0, multiplicity = 1:

       Center              X                  Y                   Z               Mass
    ------------   -----------------  -----------------  -----------------  -----------------
         O           -0.114116456412    -1.797721973110     0.455399998959    15.994914619570
         O            0.352994143588     1.373127526890    -1.030085501041    15.994914619570
         O           -1.954502456412     1.373897026890     0.469609998959    15.994914619570
         O            2.715468543588     0.453150026890    -0.205140001041    15.994914619570
         O           -1.670977456412    -0.797654973110    -0.997958001041    15.994914619570
         C            0.432244543588     1.016123026890     0.350273998959    12.000000000000
         C           -0.908678456412     0.476846026890     0.840596998959    12.000000000000
         C            1.535163543588    -0.026322973110     0.420929998959    12.000000000000
         C           -1.214489456412    -0.933870973110     0.340244998959    12.000000000000
         C            1.055623543588    -1.314128973110    -0.228124001041    12.000000000000
         H            0.704218543588     1.879030026890     0.976849998959     1.007825032230
         H           -0.881229456412     0.434841026890     1.935863998959     1.007825032230
         H            1.784429543588    -0.229059973110     1.468566998959     1.007825032230
         H           -1.993298456412    -1.394292973110     0.962298998959     1.007825032230
         H            0.844255543588    -1.144964973110    -1.289441001041     1.007825032230
         H            1.806567543588    -2.098816973110    -0.125986001041     1.007825032230
         H           -0.392398456412     2.014687026890    -1.083143001041     1.007825032230
         H           -2.341054456412     0.979268026890    -0.339547001041     1.007825032230
         H            2.400353543588     0.937867026890    -0.992276001041     1.007825032230
         H           -1.994988456412    -1.673688973110    -1.277968001041     1.007825032230

  Basis Set: AUG-CC-PVTZ
    Blend: AUG-CC-PVTZ
  Basis Set: (AUG-CC-PVTZ AUX)
    Blend: AUG-CC-PVTZ-JKFIT
	 Reference Energy          =    -569.6732936207251896 [Eh]
	 Singles Energy            =      -0.0000000000000000 [Eh]
	 Same-Spin Energy          =      -0.5548878995622757 [Eh]
	 Opposite-Spin Energy      =      -1.7044724119473991 [Eh]
	 Correlation Energy        =      -2.2593603115096750 [Eh]
	 Total Energy              =    -571.9326539322348708 [Eh]

	 ================> DF-SCS-MP2 Energies <==================
	-----------------------------------------------------------
	 SCS Same-Spin Scale       =       0.3333333333333333 [-]
	 SCS Opposite-Spin Scale   =       1.2000000000000000 [-]
	 SCS Same-Spin Energy      =      -0.1849626331874252 [Eh]
	 SCS Opposite-Spin Energy  =      -2.0453668943368788 [Eh]
	 SCS Correlation Energy    =      -2.2303295275243040 [Eh]
	 SCS Total Energy          =    -571.9036231482494941 [Eh]
	-----------------------------------------------------------

  Dipole Moment: [D]
     X:    -2.1628      Y:    -0.9371      Z:    -0.3016     Total:     2.3764

*** Psi4 exiting successfully. Buy a developer a beer!
