                               Psi4 1.3.2 release

  ==> Input File <==

--------------------------------------------------------------------------
#psi4
#
memory 32 gb

molecule  {
0 1
  O       -0.1147700    -1.8002930     0.4548730
  O        0.3768513     1.3780159    -1.0298525
  O       -1.9551560     1.3713260     0.4690830
  O        2.7148150     0.4505790    -0.2056670
  O       -1.6716310    -0.8002260    -0.9984850
  C        0.4315910     1.0135520     0.3497470
  C       -0.9093320     0.4742750     0.8400700
  C        1.5382181    -0.0264051     0.3942662
  C       -1.2151430    -0.9364420     0.3397180
  C        1.0549700    -1.3167000    -0.2286510
  H        0.7042560     1.8874530     0.9605880
  H       -0.8818830     0.4322700     1.9353370
  H        1.7837760    -0.2316310     1.4680400
  H       -1.9939520    -1.3968640     0.9617720
  H        0.8436020    -1.1475360    -1.2899680
  H        1.8059140    -2.1013880    -0.1265130
  H       -0.3930520     2.0121160    -1.0836700
  H       -2.3417080     0.9766970    -0.3400740
  H        2.3997000     0.9352960    -0.9928030
  H       -1.9956420    -1.6762600    -1.2784950
units angstrom
no_reorient  #important for SAPT in psi4, default
symmetry c1  #important for SAPT in psi4, default
}

set PROPERTIES_ORIGIN ["COM"]
properties('MP2/aug-cc-pvtz', properties = ['dipole'])
--------------------------------------------------------------------------

    Molecular point group: c1
  Charge       = 0
  Multiplicity = 1
  Basis Set: AUG-CC-PVTZ
    Blend: AUG-CC-PVTZ
  Basis Set: (AUG-CC-PVTZ AUX)
    Blend: AUG-CC-PVTZ-JKFIT

    Orbital Energies [Eh]
    ---------------------

    Doubly Occupied:

       1A    -20.591653     2A    -20.581051     3A    -20.575376
       4A    -20.573786     5A    -20.559735     6A    -11.353978
       7A    -11.298842     8A    -11.290442     9A    -11.285428
      10A    -11.277190    11A     -1.438768    12A     -1.391620
      13A     -1.377876    14A     -1.354807    15A     -1.348438
      16A     -1.057323    17A     -1.023402    18A     -0.898637
      19A     -0.869311    20A     -0.795425    21A     -0.751920
      22A     -0.728704    23A     -0.712259    24A     -0.696346
      25A     -0.668146    26A     -0.646761    27A     -0.621994
      28A     -0.613174    29A     -0.602699    30A     -0.582797
      31A     -0.573022    32A     -0.558330    33A     -0.543960
      34A     -0.513149    35A     -0.502939    36A     -0.491362
      37A     -0.487502    38A     -0.467856    39A     -0.441148
      40A     -0.416484

  @DF-RHF Final Energy:  -569.67092053545446

   => Energetics <=

    Nuclear Repulsion Energy =            634.1333057617241593
    One-Electron Energy =               -2042.4811735093114748
    Two-Electron Energy =                 838.6769472121328590
    Total Energy =                       -569.6709205354544565
  Basis Set: (AUG-CC-PVTZ AUX)
    Blend: AUG-CC-PVTZ-RI
    Molecular point group: c1

    Geometry (in Angstrom), charge = 0, multiplicity = 1:

       Center              X                  Y                   Z               Mass
    ------------   -----------------  -----------------  -----------------  -----------------
         O           -0.117030364667    -1.798789992297     0.457514878137    15.994914619570
         O            0.374590935333     1.379518907703    -1.027210621863    15.994914619570
         O           -1.957416364667     1.372829007703     0.471724878137    15.994914619570
         O            2.712554635333     0.452082007703    -0.203025121863    15.994914619570
         O           -1.673891364667    -0.798722992297    -0.995843121863    15.994914619570
         C            0.429330635333     1.015055007703     0.352388878137    12.000000000000
         C           -0.911592364667     0.475778007703     0.842711878137    12.000000000000
         C            1.535957735333    -0.024902092297     0.396908078137    12.000000000000
         C           -1.217403364667    -0.934938992297     0.342359878137    12.000000000000
         C            1.052709635333    -1.315196992297    -0.226009121863    12.000000000000
         H            0.701995635333     1.888956007703     0.963229878137     1.007825032230
         H           -0.884143364667     0.433773007703     1.937978878137     1.007825032230
         H            1.781515635333    -0.230127992297     1.470681878137     1.007825032230
         H           -1.996212364667    -1.395360992297     0.964413878137     1.007825032230
         H            0.841341635333    -1.146032992297    -1.287326121863     1.007825032230
         H            1.803653635333    -2.099884992297    -0.123871121863     1.007825032230
         H           -0.395312364667     2.013619007703    -1.081028121863     1.007825032230
         H           -2.343968364667     0.978200007703    -0.337432121863     1.007825032230
         H            2.397439635333     0.936799007703    -0.990161121863     1.007825032230
         H           -1.997902364667    -1.674756992297    -1.275853121863     1.007825032230

  Basis Set: AUG-CC-PVTZ
    Blend: AUG-CC-PVTZ
  Basis Set: (AUG-CC-PVTZ AUX)
    Blend: AUG-CC-PVTZ-JKFIT
	 Reference Energy          =    -569.6709205354544565 [Eh]
	 Singles Energy            =      -0.0000000000000000 [Eh]
	 Same-Spin Energy          =      -0.5552369154578509 [Eh]
	 Opposite-Spin Energy      =      -1.7050019524377935 [Eh]
	 Correlation Energy        =      -2.2602388678956444 [Eh]
	 Total Energy              =    -571.9311594033500796 [Eh]

	 ================> DF-SCS-MP2 Energies <==================
	-----------------------------------------------------------
	 SCS Same-Spin Scale       =       0.3333333333333333 [-]
	 SCS Opposite-Spin Scale   =       1.2000000000000000 [-]
	 SCS Same-Spin Energy      =      -0.1850789718192836 [Eh]
	 SCS Opposite-Spin Energy  =      -2.0460023429253522 [Eh]
	 SCS Correlation Energy    =      -2.2310813147446358 [Eh]
	 SCS Total Energy          =    -571.9020018501990990 [Eh]
	-----------------------------------------------------------

  Dipole Moment: [D]
     X:    -2.1979      Y:    -0.9386      Z:    -0.3451     Total:     2.4147

*** Psi4 exiting successfully. Buy a developer a beer!
