                               Psi4 1.4a3.dev225

  ==> Input File <==

--------------------------------------------------------------------------
#psi4
#
memory 32 gb

molecule  {
0 1
  O       -0.2343850     1.7978400    -0.4145210
  O        0.4791390    -1.3900560     0.9851260
  O       -1.8902550    -1.4798720    -0.4079610
  O        2.7489250    -0.2990660     0.0843650
  O       -1.6766260     0.6849030     1.0797040
  C        0.4758930    -0.9871420    -0.3839460
  C       -0.9153110    -0.5160320    -0.8112700
  C        1.5285084     0.1351097    -0.4823981
  C       -1.2794180     0.8705190    -0.2725550
  C        0.9914930     1.3693070     0.2124490
  H        0.7732420    -1.8350180    -1.0199460
  H       -0.9367810    -0.4539690    -1.9062570
  H        1.7061480     0.3550680    -1.5342930
  H       -2.1075740     1.2945610    -0.8542440
  H        0.8333730     1.1741050     1.2776920
  H        1.6908660     2.1982840     0.0933200
  H       -0.2684360    -2.0097880     1.0741120
  H       -2.2907410    -1.1048270     0.4011470
  H        2.5001980    -0.8049050     0.8819700
  H       -2.0397460     1.5332780     1.3914430
units angstrom
no_reorient  #important for SAPT in psi4, default
symmetry c1  #important for SAPT in psi4, default
}

set PROPERTIES_ORIGIN ["COM"]
properties('MP2/aug-cc-pvtz', properties = ['dipole'])
--------------------------------------------------------------------------

    Molecular point group: c1
  Charge       = 0
  Multiplicity = 1
  Basis Set: AUG-CC-PVTZ
    Blend: AUG-CC-PVTZ
  Basis Set: (AUG-CC-PVTZ AUX)
    Blend: AUG-CC-PVTZ-JKFIT

    Orbital Energies [Eh]
    ---------------------

    Doubly Occupied:

       1A    -20.591928     2A    -20.581523     3A    -20.574806
       4A    -20.569693     5A    -20.559061     6A    -11.354712
       7A    -11.299112     8A    -11.291175     9A    -11.286363
      10A    -11.278575    11A     -1.438026    12A     -1.390604
      13A     -1.375900    14A     -1.354111    15A     -1.348451
      16A     -1.055310    17A     -1.023434    18A     -0.897717
      19A     -0.869766    20A     -0.798625    21A     -0.752404
      22A     -0.726296    23A     -0.712078    24A     -0.695693
      25A     -0.668014    26A     -0.648485    27A     -0.621553
      28A     -0.614360    29A     -0.601310    30A     -0.585963
      31A     -0.572976    32A     -0.556742    33A     -0.542881
      34A     -0.514710    35A     -0.502960    36A     -0.490342
      37A     -0.488086    38A     -0.469801    39A     -0.439034
      40A     -0.416416

  @DF-RHF Final Energy:  -569.67445938090918

   => Energetics <=

    Nuclear Repulsion Energy =            632.9278182197479055
    One-Electron Energy =               -2040.0865638352033784
    Two-Electron Energy =                 837.4842862345462891
    Total Energy =                       -569.6744593809091839
  Basis Set: (AUG-CC-PVTZ AUX)
    Blend: AUG-CC-PVTZ-RI
    Molecular point group: c1

    Geometry (in Angstrom), charge = 0, multiplicity = 1:

       Center              X                  Y                   Z               Mass
    ------------   -----------------  -----------------  -----------------  -----------------
         O           -0.236418454184     1.798945498142    -0.415663515257    15.994914619570
         O            0.477105545816    -1.388950501858     0.983983484743    15.994914619570
         O           -1.892288454184    -1.478766501858    -0.409103515257    15.994914619570
         O            2.746891545816    -0.297960501858     0.083222484743    15.994914619570
         O           -1.678659454184     0.686008498142     1.078561484743    15.994914619570
         C            0.473859545816    -0.986036501858    -0.385088515257    12.000000000000
         C           -0.917344454184    -0.514926501858    -0.812412515257    12.000000000000
         C            1.526474945816     0.136215198142    -0.483540615257    12.000000000000
         C           -1.281451454184     0.871624498142    -0.273697515257    12.000000000000
         C            0.989459545816     1.370412498142     0.211306484743    12.000000000000
         H            0.771208545816    -1.833912501858    -1.021088515257     1.007825032230
         H           -0.938814454184    -0.452863501858    -1.907399515257     1.007825032230
         H            1.704114545816     0.356173498142    -1.535435515257     1.007825032230
         H           -2.109607454184     1.295666498142    -0.855386515257     1.007825032230
         H            0.831339545816     1.175210498142     1.276549484743     1.007825032230
         H            1.688832545816     2.199389498142     0.092177484743     1.007825032230
         H           -0.270469454184    -2.008682501858     1.072969484743     1.007825032230
         H           -2.292774454184    -1.103721501858     0.400004484743     1.007825032230
         H            2.498164545816    -0.803799501858     0.880827484743     1.007825032230
         H           -2.041779454184     1.534383498142     1.390300484743     1.007825032230

  Basis Set: AUG-CC-PVTZ
    Blend: AUG-CC-PVTZ
  Basis Set: (AUG-CC-PVTZ AUX)
    Blend: AUG-CC-PVTZ-JKFIT
	 Reference Energy          =    -569.6744593809091839 [Eh]
	 Singles Energy            =      -0.0000000000000000 [Eh]
	 Same-Spin Energy          =      -0.5544283035715072 [Eh]
	 Opposite-Spin Energy      =      -1.7037512387462805 [Eh]
	 Correlation Energy        =      -2.2581795423177877 [Eh]
	 Total Energy              =    -571.9326389232269321 [Eh]

	 ================> DF-SCS-MP2 Energies <==================
	-----------------------------------------------------------
	 SCS Same-Spin Scale       =       0.3333333333333333 [-]
	 SCS Opposite-Spin Scale   =       1.2000000000000000 [-]
	 SCS Same-Spin Energy      =      -0.1848094345238357 [Eh]
	 SCS Opposite-Spin Energy  =      -2.0445014864955366 [Eh]
	 SCS Correlation Energy    =      -2.2293109210193722 [Eh]
	 SCS Total Energy          =    -571.9037703019286027 [Eh]
	-----------------------------------------------------------

  Dipole Moment: [D]
     X:    -2.2622      Y:     0.9753      Z:     0.4010     Total:     2.4959

*** Psi4 exiting successfully. Buy a developer a beer!
