                               Psi4 1.3.2 release

  ==> Input File <==

--------------------------------------------------------------------------
#psi4
#
memory 32 gb

molecule  {
0 1
  O       -0.1147700    -1.8002930     0.4548730
  O        0.3584290     1.3939840    -1.0246780
  O       -1.9551560     1.3713260     0.4690830
  O        2.7148150     0.4505790    -0.2056670
  O       -1.6716310    -0.8002260    -0.9984850
  C        0.4315910     1.0135520     0.3497470
  C       -0.9093320     0.4742750     0.8400700
  C        1.5345100    -0.0288940     0.4204030
  C       -1.2794160    -0.9172629     0.1513005
  C        1.0549700    -1.3167000    -0.2286510
  H        0.7042560     1.8874530     0.9605880
  H       -0.8818830     0.4322700     1.9353370
  H        1.7837760    -0.2316310     1.4680400
  H       -1.9939520    -1.3968640     0.9617720
  H        0.8436020    -1.1475360    -1.2899680
  H        1.8059140    -2.1013880    -0.1265130
  H       -0.3930520     2.0121160    -1.0836700
  H       -2.3417080     0.9766970    -0.3400740
  H        2.3997000     0.9352960    -0.9928030
  H       -1.9956420    -1.6762600    -1.2784950
units angstrom
no_reorient  #important for SAPT in psi4, default
symmetry c1  #important for SAPT in psi4, default
}

set PROPERTIES_ORIGIN ["COM"]
properties('MP2/aug-cc-pvtz', properties = ['dipole'])
--------------------------------------------------------------------------

    Molecular point group: c1
  Charge       = 0
  Multiplicity = 1
  Basis Set: AUG-CC-PVTZ
    Blend: AUG-CC-PVTZ
  Basis Set: (AUG-CC-PVTZ AUX)
    Blend: AUG-CC-PVTZ-JKFIT

    Orbital Energies [Eh]
    ---------------------

    Doubly Occupied:

       1A    -20.627677     2A    -20.572998     3A    -20.571706
       4A    -20.563574     5A    -20.554090     6A    -11.358402
       7A    -11.297544     8A    -11.286926     9A    -11.280018
      10A    -11.269009    11A     -1.521089    12A     -1.395503
      13A     -1.369625    14A     -1.353108    15A     -1.344305
      16A     -1.050520    17A     -1.003146    18A     -0.906299
      19A     -0.862486    20A     -0.814871    21A     -0.767870
      22A     -0.747466    23A     -0.722446    24A     -0.703341
      25A     -0.672417    26A     -0.656409    27A     -0.624208
      28A     -0.610170    29A     -0.602591    30A     -0.590171
      31A     -0.580316    32A     -0.550461    33A     -0.539811
      34A     -0.513113    35A     -0.490458    36A     -0.481717
      37A     -0.475678    38A     -0.461484    39A     -0.431530
      40A     -0.399869

  @DF-RHF Final Energy:  -569.62863677366784

   => Energetics <=

    Nuclear Repulsion Energy =            634.8952170988653734
    One-Electron Energy =               -2043.7988630062584434
    Two-Electron Energy =                 839.2750091337253480
    Total Energy =                       -569.6286367736678358
  Basis Set: (AUG-CC-PVTZ AUX)
    Blend: AUG-CC-PVTZ-RI
    Molecular point group: c1

    Geometry (in Angstrom), charge = 0, multiplicity = 1:

       Center              X                  Y                   Z               Mass
    ------------   -----------------  -----------------  -----------------  -----------------
         O           -0.109630061959    -1.801826861486     0.469941186898    15.994914619570
         O            0.363568938041     1.392450138514    -1.009609813102    15.994914619570
         O           -1.950016061959     1.369792138514     0.484151186898    15.994914619570
         O            2.719954938041     0.449045138514    -0.190598813102    15.994914619570
         O           -1.666491061959    -0.801759861486    -0.983416813102    15.994914619570
         C            0.436730938041     1.012018138514     0.364815186898    12.000000000000
         C           -0.904192061959     0.472741138514     0.855138186898    12.000000000000
         C            1.539649938041    -0.030427861486     0.435471186898    12.000000000000
         C           -1.274276061959    -0.918796761486     0.166368686898    12.000000000000
         C            1.060109938041    -1.318233861486    -0.213582813102    12.000000000000
         H            0.709395938041     1.885919138514     0.975656186898     1.007825032230
         H           -0.876743061959     0.430736138514     1.950405186898     1.007825032230
         H            1.788915938041    -0.233164861486     1.483108186898     1.007825032230
         H           -1.988812061959    -1.398397861486     0.976840186898     1.007825032230
         H            0.848741938041    -1.149069861486    -1.274899813102     1.007825032230
         H            1.811053938041    -2.102921861486    -0.111444813102     1.007825032230
         H           -0.387912061959     2.010582138514    -1.068601813102     1.007825032230
         H           -2.336568061959     0.975163138514    -0.325005813102     1.007825032230
         H            2.404839938041     0.933762138514    -0.977734813102     1.007825032230
         H           -1.990502061959    -1.677793861486    -1.263426813102     1.007825032230

  Basis Set: AUG-CC-PVTZ
    Blend: AUG-CC-PVTZ
  Basis Set: (AUG-CC-PVTZ AUX)
    Blend: AUG-CC-PVTZ-JKFIT
	 Reference Energy          =    -569.6286367736678358 [Eh]
	 Singles Energy            =      -0.0000000000000000 [Eh]
	 Same-Spin Energy          =      -0.5561829182169939 [Eh]
	 Opposite-Spin Energy      =      -1.7053930137751259 [Eh]
	 Correlation Energy        =      -2.2615759319921196 [Eh]
	 Total Energy              =    -571.8902127056599056 [Eh]

	 ================> DF-SCS-MP2 Energies <==================
	-----------------------------------------------------------
	 SCS Same-Spin Scale       =       0.3333333333333333 [-]
	 SCS Opposite-Spin Scale   =       1.2000000000000000 [-]
	 SCS Same-Spin Energy      =      -0.1853943060723313 [Eh]
	 SCS Opposite-Spin Energy  =      -2.0464716165301509 [Eh]
	 SCS Correlation Energy    =      -2.2318659226024824 [Eh]
	 SCS Total Energy          =    -571.8605026962703732 [Eh]
	-----------------------------------------------------------

  Dipole Moment: [D]
     X:    -2.8081      Y:    -0.8920      Z:    -1.1676     Total:     3.1693

*** Psi4 exiting successfully. Buy a developer a beer!
