                               Psi4 1.4a3.dev225

  ==> Input File <==

--------------------------------------------------------------------------
#psi4
#
memory 32 gb

molecule  {
0 1
  O       -0.2343850     1.7978400    -0.4145210
  O        0.4791390    -1.3900560     0.9851260
  O       -1.8902550    -1.4798720    -0.4079610
  O        2.7489250    -0.2990660     0.0843650
  O       -1.6766260     0.6849030     1.0797040
  C        0.4758930    -0.9871420    -0.3839460
  C       -0.9153110    -0.5160320    -0.8112700
  C        1.5148540     0.1205520    -0.4811210
  C       -1.2841731     0.8886268    -0.2655196
  C        0.9914930     1.3693070     0.2124490
  H        0.7732420    -1.8350180    -1.0199460
  H       -0.9367810    -0.4539690    -1.9062570
  H        1.7061480     0.3550680    -1.5342930
  H       -2.1075740     1.2945610    -0.8542440
  H        0.8333730     1.1741050     1.2776920
  H        1.6908660     2.1982840     0.0933200
  H       -0.2684360    -2.0097880     1.0741120
  H       -2.2907410    -1.1048270     0.4011470
  H        2.5001980    -0.8049050     0.8819700
  H       -2.0397460     1.5332780     1.3914430
units angstrom
no_reorient  #important for SAPT in psi4, default
symmetry c1  #important for SAPT in psi4, default
}

set PROPERTIES_ORIGIN ["COM"]
properties('MP2/aug-cc-pvtz', properties = ['dipole'])
--------------------------------------------------------------------------

    Molecular point group: c1
  Charge       = 0
  Multiplicity = 1
  Basis Set: AUG-CC-PVTZ
    Blend: AUG-CC-PVTZ
  Basis Set: (AUG-CC-PVTZ AUX)
    Blend: AUG-CC-PVTZ-JKFIT

    Orbital Energies [Eh]
    ---------------------

    Doubly Occupied:

       1A    -20.593306     2A    -20.581390     3A    -20.574326
       4A    -20.569598     5A    -20.558551     6A    -11.354417
       7A    -11.299034     8A    -11.290601     9A    -11.286104
      10A    -11.279404    11A     -1.440234    12A     -1.390728
      13A     -1.375616    14A     -1.355673    15A     -1.347088
      16A     -1.056353    17A     -1.021259    18A     -0.896877
      19A     -0.870676    20A     -0.797731    21A     -0.752985
      22A     -0.726723    23A     -0.713272    24A     -0.695741
      25A     -0.667877    26A     -0.647155    27A     -0.622116
      28A     -0.614697    29A     -0.601012    30A     -0.585071
      31A     -0.573946    32A     -0.555495    33A     -0.542588
      34A     -0.515235    35A     -0.504620    36A     -0.489858
      37A     -0.485949    38A     -0.471495    39A     -0.440750
      40A     -0.414245

  @DF-RHF Final Energy:  -569.67447498058061

   => Energetics <=

    Nuclear Repulsion Energy =            632.9686500030377374
    One-Electron Energy =               -2040.1666610298557316
    Two-Electron Energy =                 837.5235360462373819
    Total Energy =                       -569.6744749805806123
  Basis Set: (AUG-CC-PVTZ AUX)
    Blend: AUG-CC-PVTZ-RI
    Molecular point group: c1

    Geometry (in Angstrom), charge = 0, multiplicity = 1:

       Center              X                  Y                   Z               Mass
    ------------   -----------------  -----------------  -----------------  -----------------
         O           -0.234946212643     1.798661590122    -0.416328281156    15.994914619570
         O            0.478577787357    -1.389234409878     0.983318718844    15.994914619570
         O           -1.890816212643    -1.479050409878    -0.409768281156    15.994914619570
         O            2.748363787357    -0.298244409878     0.082557718844    15.994914619570
         O           -1.677187212643     0.685724590122     1.077896718844    15.994914619570
         C            0.475331787357    -0.986320409878    -0.385753281156    12.000000000000
         C           -0.915872212643    -0.515210409878    -0.813077281156    12.000000000000
         C            1.514292787357     0.121373590122    -0.482928281156    12.000000000000
         C           -1.284734312643     0.889448390122    -0.267326881156    12.000000000000
         C            0.990931787357     1.370128590122     0.210641718844    12.000000000000
         H            0.772680787357    -1.834196409878    -1.021753281156     1.007825032230
         H           -0.937342212643    -0.453147409878    -1.908064281156     1.007825032230
         H            1.705586787357     0.355889590122    -1.536100281156     1.007825032230
         H           -2.108135212643     1.295382590122    -0.856051281156     1.007825032230
         H            0.832811787357     1.174926590122     1.275884718844     1.007825032230
         H            1.690304787357     2.199105590122     0.091512718844     1.007825032230
         H           -0.268997212643    -2.008966409878     1.072304718844     1.007825032230
         H           -2.291302212643    -1.104005409878     0.399339718844     1.007825032230
         H            2.499636787357    -0.804083409878     0.880162718844     1.007825032230
         H           -2.040307212643     1.534099590122     1.389635718844     1.007825032230

  Basis Set: AUG-CC-PVTZ
    Blend: AUG-CC-PVTZ
  Basis Set: (AUG-CC-PVTZ AUX)
    Blend: AUG-CC-PVTZ-JKFIT
	 Reference Energy          =    -569.6744749805806123 [Eh]
	 Singles Energy            =      -0.0000000000000000 [Eh]
	 Same-Spin Energy          =      -0.5544181758383647 [Eh]
	 Opposite-Spin Energy      =      -1.7037216803879152 [Eh]
	 Correlation Energy        =      -2.2581398562262800 [Eh]
	 Total Energy              =    -571.9326148368069198 [Eh]

	 ================> DF-SCS-MP2 Energies <==================
	-----------------------------------------------------------
	 SCS Same-Spin Scale       =       0.3333333333333333 [-]
	 SCS Opposite-Spin Scale   =       1.2000000000000000 [-]
	 SCS Same-Spin Energy      =      -0.1848060586127882 [Eh]
	 SCS Opposite-Spin Energy  =      -2.0444660164654982 [Eh]
	 SCS Correlation Energy    =      -2.2292720750782866 [Eh]
	 SCS Total Energy          =    -571.9037470556588687 [Eh]
	-----------------------------------------------------------

  Dipole Moment: [D]
     X:    -2.3021      Y:     1.0167      Z:     0.4284     Total:     2.5528

*** Psi4 exiting successfully. Buy a developer a beer!
