                               Psi4 1.3.2 release

  ==> Input File <==

--------------------------------------------------------------------------
#psi4
#
memory 32 gb

molecule  {
0 1
  O       -0.1147700    -1.8002930     0.4548730
  O        0.3584290     1.3939840    -1.0246780
  O       -1.9551560     1.3713260     0.4690830
  O        2.7148150     0.4505790    -0.2056670
  O       -1.6716310    -0.8002260    -0.9984850
  C        0.4315910     1.0135520     0.3497470
  C       -0.9413264     0.5458880     0.8248248
  C        1.5847917     0.0253572     0.3911635
  C       -1.2151430    -0.9364420     0.3397180
  C        1.0549700    -1.3167000    -0.2286510
  H        0.7042560     1.8874530     0.9605880
  H       -0.8818830     0.4322700     1.9353370
  H        1.7837760    -0.2316310     1.4680400
  H       -1.9939520    -1.3968640     0.9617720
  H        0.8436020    -1.1475360    -1.2899680
  H        1.8059140    -2.1013880    -0.1265130
  H       -0.3930520     2.0121160    -1.0836700
  H       -2.3417080     0.9766970    -0.3400740
  H        2.3997000     0.9352960    -0.9928030
  H       -1.9956420    -1.6762600    -1.2784950
units angstrom
no_reorient  #important for SAPT in psi4, default
symmetry c1  #important for SAPT in psi4, default
}

set PROPERTIES_ORIGIN ["COM"]
properties('MP2/aug-cc-pvtz', properties = ['dipole'])
--------------------------------------------------------------------------

    Molecular point group: c1
  Charge       = 0
  Multiplicity = 1
  Basis Set: AUG-CC-PVTZ
    Blend: AUG-CC-PVTZ
  Basis Set: (AUG-CC-PVTZ AUX)
    Blend: AUG-CC-PVTZ-JKFIT

    Orbital Energies [Eh]
    ---------------------

    Doubly Occupied:

       1A    -20.588917     2A    -20.581627     3A    -20.579271
       4A    -20.569720     5A    -20.566709     6A    -11.351073
       7A    -11.299982     8A    -11.287802     9A    -11.286585
      10A    -11.274498    11A     -1.438967    12A     -1.406191
      13A     -1.401690    14A     -1.362323    15A     -1.353966
      16A     -1.048055    17A     -1.008468    18A     -0.889717
      19A     -0.873507    20A     -0.802601    21A     -0.753277
      22A     -0.725932    23A     -0.712070    24A     -0.706907
      25A     -0.677189    26A     -0.650990    27A     -0.625424
      28A     -0.619434    29A     -0.603671    30A     -0.594424
      31A     -0.574175    32A     -0.560273    33A     -0.548632
      34A     -0.509454    35A     -0.501248    36A     -0.489751
      37A     -0.478733    38A     -0.463605    39A     -0.437877
      40A     -0.397414

  @DF-RHF Final Energy:  -569.66335901247942

   => Energetics <=

    Nuclear Repulsion Energy =            633.5359944527472180
    One-Electron Energy =               -2041.1944086855999103
    Two-Electron Energy =                 837.9950552203732741
    Total Energy =                       -569.6633590124794182
  Basis Set: (AUG-CC-PVTZ AUX)
    Blend: AUG-CC-PVTZ-RI
    Molecular point group: c1

    Geometry (in Angstrom), charge = 0, multiplicity = 1:

       Center              X                  Y                   Z               Mass
    ------------   -----------------  -----------------  -----------------  -----------------
         O           -0.116232560848    -1.810358664959     0.458430616416    15.994914619570
         O            0.356966439152     1.383918335041    -1.021120383584    15.994914619570
         O           -1.956618560848     1.361260335041     0.472640616416    15.994914619570
         O            2.713352439152     0.440513335041    -0.202109383584    15.994914619570
         O           -1.673093560848    -0.810291664959    -0.994927383584    15.994914619570
         C            0.430128439152     1.003486335041     0.353304616416    12.000000000000
         C           -0.942788960848     0.535822335041     0.828382416416    12.000000000000
         C            1.583329139152     0.015291535041     0.394721116416    12.000000000000
         C           -1.216605560848    -0.946507664959     0.343275616416    12.000000000000
         C            1.053507439152    -1.326765664959    -0.225093383584    12.000000000000
         H            0.702793439152     1.877387335041     0.964145616416     1.007825032230
         H           -0.883345560848     0.422204335041     1.938894616416     1.007825032230
         H            1.782313439152    -0.241696664959     1.471597616416     1.007825032230
         H           -1.995414560848    -1.406929664959     0.965329616416     1.007825032230
         H            0.842139439152    -1.157601664959    -1.286410383584     1.007825032230
         H            1.804451439152    -2.111453664959    -0.122955383584     1.007825032230
         H           -0.394514560848     2.002050335041    -1.080112383584     1.007825032230
         H           -2.343170560848     0.966631335041    -0.336516383584     1.007825032230
         H            2.398237439152     0.925230335041    -0.989245383584     1.007825032230
         H           -1.997104560848    -1.686325664959    -1.274937383584     1.007825032230

  Basis Set: AUG-CC-PVTZ
    Blend: AUG-CC-PVTZ
  Basis Set: (AUG-CC-PVTZ AUX)
    Blend: AUG-CC-PVTZ-JKFIT
	 Reference Energy          =    -569.6633590124794182 [Eh]
	 Singles Energy            =      -0.0000000000000000 [Eh]
	 Same-Spin Energy          =      -0.5547488440327332 [Eh]
	 Opposite-Spin Energy      =      -1.7026994082555862 [Eh]
	 Correlation Energy        =      -2.2574482522883192 [Eh]
	 Total Energy              =    -571.9208072647677454 [Eh]

	 ================> DF-SCS-MP2 Energies <==================
	-----------------------------------------------------------
	 SCS Same-Spin Scale       =       0.3333333333333333 [-]
	 SCS Opposite-Spin Scale   =       1.2000000000000000 [-]
	 SCS Same-Spin Energy      =      -0.1849162813442444 [Eh]
	 SCS Opposite-Spin Energy  =      -2.0432392899067033 [Eh]
	 SCS Correlation Energy    =      -2.2281555712509475 [Eh]
	 SCS Total Energy          =    -571.8915145837303271 [Eh]
	-----------------------------------------------------------

  Dipole Moment: [D]
     X:    -2.1335      Y:    -0.7089      Z:    -0.4610     Total:     2.2950

*** Psi4 exiting successfully. Buy a developer a beer!
