                               Psi4 1.4a3.dev225

  ==> Input File <==

--------------------------------------------------------------------------
#psi4
#
memory 32 gb

molecule  {
0 1
  O       -0.2343850     1.7978400    -0.4145210
  O        0.4791390    -1.3900560     0.9851260
  O       -1.8902550    -1.4798720    -0.4079610
  O        2.7489250    -0.2990660     0.0843650
  O       -1.6766260     0.6849030     1.0797040
  C        0.4758930    -0.9871420    -0.3839460
  C       -0.9153110    -0.5160320    -0.8112700
  C        1.5148540     0.1205520    -0.4811210
  C       -1.2794180     0.8705190    -0.2725550
  C        0.9914930     1.3693070     0.2124490
  H        0.7732420    -1.8350180    -1.0199460
  H       -0.9367810    -0.4539690    -1.9062570
  H        1.7061480     0.3550680    -1.5342930
  H       -2.1075740     1.2945610    -0.8542440
  H        0.8333730     1.1741050     1.2776920
  H        1.6908660     2.1982840     0.0933200
  H       -0.2684360    -2.0097880     1.0741120
  H       -2.2907410    -1.1048270     0.4011470
  H        2.4874648    -0.8308007     0.9228023
  H       -2.0397460     1.5332780     1.3914430
units angstrom
no_reorient  #important for SAPT in psi4, default
symmetry c1  #important for SAPT in psi4, default
}

set PROPERTIES_ORIGIN ["COM"]
properties('MP2/aug-cc-pvtz', properties = ['dipole'])
--------------------------------------------------------------------------

    Molecular point group: c1
  Charge       = 0
  Multiplicity = 1
  Basis Set: AUG-CC-PVTZ
    Blend: AUG-CC-PVTZ
  Basis Set: (AUG-CC-PVTZ AUX)
    Blend: AUG-CC-PVTZ-JKFIT

    Orbital Energies [Eh]
    ---------------------

    Doubly Occupied:

       1A    -20.591980     2A    -20.580920     3A    -20.575197
       4A    -20.570666     5A    -20.561535     6A    -11.354760
       7A    -11.299569     8A    -11.291056     9A    -11.285581
      10A    -11.278426    11A     -1.437929    12A     -1.390162
      13A     -1.373245    14A     -1.353355    15A     -1.340835
      16A     -1.056758    17A     -1.021673    18A     -0.898311
      19A     -0.868388    20A     -0.795892    21A     -0.751973
      22A     -0.726033    23A     -0.712043    24A     -0.695155
      25A     -0.665476    26A     -0.643480    27A     -0.620022
      28A     -0.613878    29A     -0.601219    30A     -0.583656
      31A     -0.571835    32A     -0.555426    33A     -0.542264
      34A     -0.514609    35A     -0.502703    36A     -0.490446
      37A     -0.486421    38A     -0.470236    39A     -0.440614
      40A     -0.415379

  @DF-RHF Final Energy:  -569.66936899598693

   => Energetics <=

    Nuclear Repulsion Energy =            632.8994622478929841
    One-Electron Energy =               -2040.0794458173063504
    Two-Electron Energy =                 837.5106145734263237
    Total Energy =                       -569.6693689959869289
  Basis Set: (AUG-CC-PVTZ AUX)
    Blend: AUG-CC-PVTZ-RI
    Molecular point group: c1

    Geometry (in Angstrom), charge = 0, multiplicity = 1:

       Center              X                  Y                   Z               Mass
    ------------   -----------------  -----------------  -----------------  -----------------
         O           -0.235240964593     1.800283631808    -0.416039896140    15.994914619570
         O            0.478283035407    -1.387612368192     0.983607103860    15.994914619570
         O           -1.891110964593    -1.477428368192    -0.409479896140    15.994914619570
         O            2.748069035407    -0.296622368192     0.082846103860    15.994914619570
         O           -1.677481964593     0.687346631808     1.078185103860    15.994914619570
         C            0.475037035407    -0.984698368192    -0.385464896140    12.000000000000
         C           -0.916166964593    -0.513588368192    -0.812788896140    12.000000000000
         C            1.513998035407     0.122995631808    -0.482639896140    12.000000000000
         C           -1.280273964593     0.872962631808    -0.274073896140    12.000000000000
         C            0.990637035407     1.371750631808     0.210930103860    12.000000000000
         H            0.772386035407    -1.832574368192    -1.021464896140     1.007825032230
         H           -0.937636964593    -0.451525368192    -1.907775896140     1.007825032230
         H            1.705292035407     0.357511631808    -1.535811896140     1.007825032230
         H           -2.108429964593     1.297004631808    -0.855762896140     1.007825032230
         H            0.832517035407     1.176548631808     1.276173103860     1.007825032230
         H            1.690010035407     2.200727631808     0.091801103860     1.007825032230
         H           -0.269291964593    -2.007344368192     1.072593103860     1.007825032230
         H           -2.291596964593    -1.102383368192     0.399628103860     1.007825032230
         H            2.486608835407    -0.828357068192     0.921283403860     1.007825032230
         H           -2.040601964593     1.535721631808     1.389924103860     1.007825032230

  Basis Set: AUG-CC-PVTZ
    Blend: AUG-CC-PVTZ
  Basis Set: (AUG-CC-PVTZ AUX)
    Blend: AUG-CC-PVTZ-JKFIT
	 Reference Energy          =    -569.6693689959869289 [Eh]
	 Singles Energy            =      -0.0000000000000000 [Eh]
	 Same-Spin Energy          =      -0.5551991865333566 [Eh]
	 Opposite-Spin Energy      =      -1.7055766851603917 [Eh]
	 Correlation Energy        =      -2.2607758716937485 [Eh]
	 Total Energy              =    -571.9301448676807240 [Eh]

	 ================> DF-SCS-MP2 Energies <==================
	-----------------------------------------------------------
	 SCS Same-Spin Scale       =       0.3333333333333333 [-]
	 SCS Opposite-Spin Scale   =       1.2000000000000000 [-]
	 SCS Same-Spin Energy      =      -0.1850663955111189 [Eh]
	 SCS Opposite-Spin Energy  =      -2.0466920221924698 [Eh]
	 SCS Correlation Energy    =      -2.2317584177035887 [Eh]
	 SCS Total Energy          =    -571.9011274136905740 [Eh]
	-----------------------------------------------------------

  Dipole Moment: [D]
     X:    -2.3063      Y:     0.9298      Z:     0.4394     Total:     2.5252

*** Psi4 exiting successfully. Buy a developer a beer!
