                               Psi4 1.3.2 release

  ==> Input File <==

--------------------------------------------------------------------------
#psi4
#
memory 32 gb

molecule  {
0 1
  O       -0.1147700    -1.8002930     0.4548730
  O        0.3584290     1.3939840    -1.0246780
  O       -1.9551560     1.3713260     0.4690830
  O        2.7148150     0.4505790    -0.2056670
  O       -1.6716310    -0.8002260    -0.9984850
  C        0.4315910     1.0135520     0.3497470
  C       -0.9093320     0.4742750     0.8400700
  C        1.5345100    -0.0288940     0.4204030
  C       -1.1508700    -0.9556211     0.5281355
  C        1.0549700    -1.3167000    -0.2286510
  H        0.7042560     1.8874530     0.9605880
  H       -0.8818830     0.4322700     1.9353370
  H        1.7837760    -0.2316310     1.4680400
  H       -1.9939520    -1.3968640     0.9617720
  H        0.8436020    -1.1475360    -1.2899680
  H        1.8059140    -2.1013880    -0.1265130
  H       -0.3930520     2.0121160    -1.0836700
  H       -2.3417080     0.9766970    -0.3400740
  H        2.3997000     0.9352960    -0.9928030
  H       -1.9956420    -1.6762600    -1.2784950
units angstrom
no_reorient  #important for SAPT in psi4, default
symmetry c1  #important for SAPT in psi4, default
}

set PROPERTIES_ORIGIN ["COM"]
properties('MP2/aug-cc-pvtz', properties = ['dipole'])
--------------------------------------------------------------------------

    Molecular point group: c1
  Charge       = 0
  Multiplicity = 1
  Basis Set: AUG-CC-PVTZ
    Blend: AUG-CC-PVTZ
  Basis Set: (AUG-CC-PVTZ AUX)
    Blend: AUG-CC-PVTZ-JKFIT

    Orbital Energies [Eh]
    ---------------------

    Doubly Occupied:

       1A    -20.597720     2A    -20.577769     3A    -20.571529
       4A    -20.562820     5A    -20.550320     6A    -11.362338
       7A    -11.303313     8A    -11.296040     9A    -11.291883
      10A    -11.287418    11A     -1.446023    12A     -1.395645
      13A     -1.375087    14A     -1.350348    15A     -1.301514
      16A     -1.069717    17A     -1.042298    18A     -0.908099
      19A     -0.880993    20A     -0.794352    21A     -0.753401
      22A     -0.722950    23A     -0.721860    24A     -0.689188
      25A     -0.667081    26A     -0.646584    27A     -0.626011
      28A     -0.615888    29A     -0.600129    30A     -0.583478
      31A     -0.561829    32A     -0.556923    33A     -0.543638
      34A     -0.519424    35A     -0.503803    36A     -0.486848
      37A     -0.475775    38A     -0.461193    39A     -0.445334
      40A     -0.423899

  @DF-RHF Final Energy:  -569.64535414945249

   => Energetics <=

    Nuclear Repulsion Energy =            632.8417877251572463
    One-Electron Energy =               -2039.8333568004190965
    Two-Electron Energy =                 837.3462149258093632
    Total Energy =                       -569.6453541494524870
  Basis Set: (AUG-CC-PVTZ AUX)
    Blend: AUG-CC-PVTZ-RI
    Molecular point group: c1

    Geometry (in Angstrom), charge = 0, multiplicity = 1:

       Center              X                  Y                   Z               Mass
    ------------   -----------------  -----------------  -----------------  -----------------
         O           -0.119910121773    -1.798759285751     0.439804999541    15.994914619570
         O            0.353288878227     1.395517714249    -1.039746000459    15.994914619570
         O           -1.960296121773     1.372859714249     0.454014999541    15.994914619570
         O            2.709674878227     0.452112714249    -0.220735000459    15.994914619570
         O           -1.676771121773    -0.798692285751    -1.013553000459    15.994914619570
         C            0.426450878227     1.015085714249     0.334678999541    12.000000000000
         C           -0.914472121773     0.475808714249     0.825001999541    12.000000000000
         C            1.529369878227    -0.027360285751     0.405334999541    12.000000000000
         C           -1.156010121773    -0.954087385751     0.513067499541    12.000000000000
         C            1.049829878227    -1.315166285751    -0.243719000459    12.000000000000
         H            0.699115878227     1.888986714249     0.945519999541     1.007825032230
         H           -0.887023121773     0.433803714249     1.920268999541     1.007825032230
         H            1.778635878227    -0.230097285751     1.452971999541     1.007825032230
         H           -1.999092121773    -1.395330285751     0.946703999541     1.007825032230
         H            0.838461878227    -1.146002285751    -1.305036000459     1.007825032230
         H            1.800773878227    -2.099854285751    -0.141581000459     1.007825032230
         H           -0.398192121773     2.013649714249    -1.098738000459     1.007825032230
         H           -2.346848121773     0.978230714249    -0.355142000459     1.007825032230
         H            2.394559878227     0.936829714249    -1.007871000459     1.007825032230
         H           -2.000782121773    -1.674726285751    -1.293563000459     1.007825032230

  Basis Set: AUG-CC-PVTZ
    Blend: AUG-CC-PVTZ
  Basis Set: (AUG-CC-PVTZ AUX)
    Blend: AUG-CC-PVTZ-JKFIT
	 Reference Energy          =    -569.6453541494524870 [Eh]
	 Singles Energy            =      -0.0000000000000000 [Eh]
	 Same-Spin Energy          =      -0.5560924729089181 [Eh]
	 Opposite-Spin Energy      =      -1.7073313868825966 [Eh]
	 Correlation Energy        =      -2.2634238597915148 [Eh]
	 Total Energy              =    -571.9087780092439743 [Eh]

	 ================> DF-SCS-MP2 Energies <==================
	-----------------------------------------------------------
	 SCS Same-Spin Scale       =       0.3333333333333333 [-]
	 SCS Opposite-Spin Scale   =       1.2000000000000000 [-]
	 SCS Same-Spin Energy      =      -0.1853641576363060 [Eh]
	 SCS Opposite-Spin Energy  =      -2.0487976642591157 [Eh]
	 SCS Correlation Energy    =      -2.2341618218954218 [Eh]
	 SCS Total Energy          =    -571.8795159713479279 [Eh]
	-----------------------------------------------------------

  Dipole Moment: [D]
     X:    -1.4893      Y:    -1.0346      Z:     0.4870     Total:     1.8776

*** Psi4 exiting successfully. Buy a developer a beer!
