                               Psi4 1.3.2 release

  ==> Input File <==

--------------------------------------------------------------------------
#psi4
#
memory 32 gb

molecule  {
0 1
  O       -0.1147700    -1.8002930     0.4548730
  O        0.3584290     1.3939840    -1.0246780
  O       -1.9551560     1.3713260     0.4690830
  O        2.7148150     0.4505790    -0.2056670
  O       -1.6687481    -0.7756647    -0.9967387
  C        0.4315910     1.0135520     0.3497470
  C       -0.9167331     0.4840285     0.8163835
  C        1.5345100    -0.0288940     0.4204030
  C       -1.2151430    -0.9364420     0.3397180
  C        1.0549700    -1.3167000    -0.2286510
  H        0.7042560     1.8874530     0.9605880
  H       -0.8818830     0.4322700     1.9353370
  H        1.7837760    -0.2316310     1.4680400
  H       -1.9939520    -1.3968640     0.9617720
  H        0.8436020    -1.1475360    -1.2899680
  H        1.8059140    -2.1013880    -0.1265130
  H       -0.3930520     2.0121160    -1.0836700
  H       -2.3417080     0.9766970    -0.3400740
  H        2.3997000     0.9352960    -0.9928030
  H       -1.9956420    -1.6762600    -1.2784950
units angstrom
no_reorient  #important for SAPT in psi4, default
symmetry c1  #important for SAPT in psi4, default
}

set PROPERTIES_ORIGIN ["COM"]
properties('MP2/aug-cc-pvtz', properties = ['dipole'])
--------------------------------------------------------------------------

    Molecular point group: c1
  Charge       = 0
  Multiplicity = 1
  Basis Set: AUG-CC-PVTZ
    Blend: AUG-CC-PVTZ
  Basis Set: (AUG-CC-PVTZ AUX)
    Blend: AUG-CC-PVTZ-JKFIT

    Orbital Energies [Eh]
    ---------------------

    Doubly Occupied:

       1A    -20.594317     2A    -20.581711     3A    -20.575928
       4A    -20.570195     5A    -20.558404     6A    -11.353450
       7A    -11.297822     8A    -11.290159     9A    -11.285727
      10A    -11.278363    11A     -1.438600    12A     -1.393105
      13A     -1.378649    14A     -1.353043    15A     -1.348259
      16A     -1.058040    17A     -1.021559    18A     -0.897876
      19A     -0.869334    20A     -0.796153    21A     -0.752780
      22A     -0.725899    23A     -0.712833    24A     -0.696701
      25A     -0.669814    26A     -0.645540    27A     -0.621148
      28A     -0.614846    29A     -0.602321    30A     -0.585517
      31A     -0.571629    32A     -0.555973    33A     -0.542672
      34A     -0.514725    35A     -0.502889    36A     -0.491379
      37A     -0.485138    38A     -0.471988    39A     -0.439910
      40A     -0.415582

  @DF-RHF Final Energy:  -569.67094190525904

   => Energetics <=

    Nuclear Repulsion Energy =            634.3522007228416442
    One-Electron Energy =               -2042.9263225975776095
    Two-Electron Energy =                 838.9031799694769234
    Total Energy =                       -569.6709419052590420
  Basis Set: (AUG-CC-PVTZ AUX)
    Blend: AUG-CC-PVTZ-RI
    Molecular point group: c1

    Geometry (in Angstrom), charge = 0, multiplicity = 1:

       Center              X                  Y                   Z               Mass
    ------------   -----------------  -----------------  -----------------  -----------------
         O           -0.114485515677    -1.803691196259     0.456581198904    15.994914619570
         O            0.358713484323     1.390585803741    -1.022969801096    15.994914619570
         O           -1.954871515677     1.367927803741     0.470791198904    15.994914619570
         O            2.715099484323     0.447180803741    -0.203958801096    15.994914619570
         O           -1.668463615677    -0.779062896259    -0.995030501096    15.994914619570
         C            0.431875484323     1.010153803741     0.351455198904    12.000000000000
         C           -0.916448615677     0.480630303741     0.818091698904    12.000000000000
         C            1.534794484323    -0.032292196259     0.422111198904    12.000000000000
         C           -1.214858515677    -0.939840196259     0.341426198904    12.000000000000
         C            1.055254484323    -1.320098196259    -0.226942801096    12.000000000000
         H            0.704540484323     1.884054803741     0.962296198904     1.007825032230
         H           -0.881598515677     0.428871803741     1.937045198904     1.007825032230
         H            1.784060484323    -0.235029196259     1.469748198904     1.007825032230
         H           -1.993667515677    -1.400262196259     0.963480198904     1.007825032230
         H            0.843886484323    -1.150934196259    -1.288259801096     1.007825032230
         H            1.806198484323    -2.104786196259    -0.124804801096     1.007825032230
         H           -0.392767515677     2.008717803741    -1.081961801096     1.007825032230
         H           -2.341423515677     0.973298803741    -0.338365801096     1.007825032230
         H            2.399984484323     0.931897803741    -0.991094801096     1.007825032230
         H           -1.995357515677    -1.679658196259    -1.276786801096     1.007825032230

  Basis Set: AUG-CC-PVTZ
    Blend: AUG-CC-PVTZ
  Basis Set: (AUG-CC-PVTZ AUX)
    Blend: AUG-CC-PVTZ-JKFIT
	 Reference Energy          =    -569.6709419052590420 [Eh]
	 Singles Energy            =      -0.0000000000000000 [Eh]
	 Same-Spin Energy          =      -0.5552213041096810 [Eh]
	 Opposite-Spin Energy      =      -1.7049809213680653 [Eh]
	 Correlation Energy        =      -2.2602022254777463 [Eh]
	 Total Energy              =    -571.9311441307368113 [Eh]

	 ================> DF-SCS-MP2 Energies <==================
	-----------------------------------------------------------
	 SCS Same-Spin Scale       =       0.3333333333333333 [-]
	 SCS Opposite-Spin Scale   =       1.2000000000000000 [-]
	 SCS Same-Spin Energy      =      -0.1850737680365603 [Eh]
	 SCS Opposite-Spin Energy  =      -2.0459771056416782 [Eh]
	 SCS Correlation Energy    =      -2.2310508736782384 [Eh]
	 SCS Total Energy          =    -571.9019927789372559 [Eh]
	-----------------------------------------------------------

  Dipole Moment: [D]
     X:    -2.2159      Y:    -1.0174      Z:    -0.3563     Total:     2.4642

*** Psi4 exiting successfully. Buy a developer a beer!
