                               Psi4 1.4a3.dev225

  ==> Input File <==

--------------------------------------------------------------------------
#psi4
#
memory 32 gb

molecule  {
0 1
  O       -0.2343850     1.7978400    -0.4145210
  O        0.4791390    -1.3900560     0.9851260
  O       -1.8902550    -1.4798720    -0.4079610
  O        2.7489250    -0.2990660     0.0843650
  O       -1.6766260     0.6849030     1.0797040
  C        0.4758930    -0.9871420    -0.3839460
  C       -0.9153110    -0.5160320    -0.8112700
  C        1.5148540     0.1205520    -0.4811210
  C       -1.2794180     0.8705190    -0.2725550
  C        0.9914930     1.3693070     0.2124490
  H        0.7732420    -1.8350180    -1.0199460
  H       -0.9363896    -0.4551006    -1.8862929
  H        1.7061480     0.3550680    -1.5342930
  H       -2.1075740     1.2945610    -0.8542440
  H        0.8333730     1.1741050     1.2776920
  H        1.6908660     2.1982840     0.0933200
  H       -0.2684360    -2.0097880     1.0741120
  H       -2.2907410    -1.1048270     0.4011470
  H        2.5001980    -0.8049050     0.8819700
  H       -2.0397460     1.5332780     1.3914430
units angstrom
no_reorient  #important for SAPT in psi4, default
symmetry c1  #important for SAPT in psi4, default
}

set PROPERTIES_ORIGIN ["COM"]
properties('MP2/aug-cc-pvtz', properties = ['dipole'])
--------------------------------------------------------------------------

    Molecular point group: c1
  Charge       = 0
  Multiplicity = 1
  Basis Set: AUG-CC-PVTZ
    Blend: AUG-CC-PVTZ
  Basis Set: (AUG-CC-PVTZ AUX)
    Blend: AUG-CC-PVTZ-JKFIT

    Orbital Energies [Eh]
    ---------------------

    Doubly Occupied:

       1A    -20.591933     2A    -20.581214     3A    -20.574947
       4A    -20.569901     5A    -20.558641     6A    -11.354755
       7A    -11.297257     8A    -11.291057     9A    -11.286265
      10A    -11.278854    11A     -1.438053    12A     -1.390807
      13A     -1.375384    14A     -1.353878    15A     -1.347356
      16A     -1.058443    17A     -1.023112    18A     -0.898552
      19A     -0.871108    20A     -0.798825    21A     -0.752431
      22A     -0.727043    23A     -0.712283    24A     -0.695841
      25A     -0.668235    26A     -0.648055    27A     -0.620792
      28A     -0.614575    29A     -0.602017    30A     -0.584840
      31A     -0.572752    32A     -0.556645    33A     -0.543026
      34A     -0.516334    35A     -0.502959    36A     -0.490514
      37A     -0.487986    38A     -0.471154    39A     -0.441191
      40A     -0.415962

  @DF-RHF Final Energy:  -569.67461996801012

   => Energetics <=

    Nuclear Repulsion Energy =            633.2708274514536697
    One-Electron Energy =               -2040.7609415011997953
    Two-Electron Energy =                 837.8154940817360057
    Total Energy =                       -569.6746199680101199
  Basis Set: (AUG-CC-PVTZ AUX)
    Blend: AUG-CC-PVTZ-RI
    Molecular point group: c1

    Geometry (in Angstrom), charge = 0, multiplicity = 1:

       Center              X                  Y                   Z               Mass
    ------------   -----------------  -----------------  -----------------  -----------------
         O           -0.235329115553     1.800117304515    -0.415899735536    15.994914619570
         O            0.478194884447    -1.387778695485     0.983747264464    15.994914619570
         O           -1.891199115553    -1.477594695485    -0.409339735536    15.994914619570
         O            2.747980884447    -0.296788695485     0.082986264464    15.994914619570
         O           -1.677570115553     0.687180304515     1.078325264464    15.994914619570
         C            0.474948884447    -0.984864695485    -0.385324735536    12.000000000000
         C           -0.916255115553    -0.513754695485    -0.812648735536    12.000000000000
         C            1.513909884447     0.122829304515    -0.482499735536    12.000000000000
         C           -1.280362115553     0.872796304515    -0.273933735536    12.000000000000
         C            0.990548884447     1.371584304515     0.211070264464    12.000000000000
         H            0.772297884447    -1.832740695485    -1.021324735536     1.007825032230
         H           -0.937333715553    -0.452823295485    -1.887671635536     1.007825032230
         H            1.705203884447     0.357345304515    -1.535671735536     1.007825032230
         H           -2.108518115553     1.296838304515    -0.855622735536     1.007825032230
         H            0.832428884447     1.176382304515     1.276313264464     1.007825032230
         H            1.689921884447     2.200561304515     0.091941264464     1.007825032230
         H           -0.269380115553    -2.007510695485     1.072733264464     1.007825032230
         H           -2.291685115553    -1.102549695485     0.399768264464     1.007825032230
         H            2.499253884447    -0.802627695485     0.880591264464     1.007825032230
         H           -2.040690115553     1.535555304515     1.390064264464     1.007825032230

  Basis Set: AUG-CC-PVTZ
    Blend: AUG-CC-PVTZ
  Basis Set: (AUG-CC-PVTZ AUX)
    Blend: AUG-CC-PVTZ-JKFIT
	 Reference Energy          =    -569.6746199680101199 [Eh]
	 Singles Energy            =      -0.0000000000000000 [Eh]
	 Same-Spin Energy          =      -0.5544928371254152 [Eh]
	 Opposite-Spin Energy      =      -1.7038154702748920 [Eh]
	 Correlation Energy        =      -2.2583083074003074 [Eh]
	 Total Energy              =    -571.9329282754104042 [Eh]

	 ================> DF-SCS-MP2 Energies <==================
	-----------------------------------------------------------
	 SCS Same-Spin Scale       =       0.3333333333333333 [-]
	 SCS Opposite-Spin Scale   =       1.2000000000000000 [-]
	 SCS Same-Spin Energy      =      -0.1848309457084717 [Eh]
	 SCS Opposite-Spin Energy  =      -2.0445785643298704 [Eh]
	 SCS Correlation Energy    =      -2.2294095100383422 [Eh]
	 SCS Total Energy          =    -571.9040294780484146 [Eh]
	-----------------------------------------------------------

  Dipole Moment: [D]
     X:    -2.2916      Y:     0.9687      Z:     0.3895     Total:     2.5182

*** Psi4 exiting successfully. Buy a developer a beer!
