                               Psi4 1.3.2 release

  ==> Input File <==

--------------------------------------------------------------------------
#psi4
#
memory 32 gb

molecule  {
0 1
  O       -0.1214675    -1.8093732     0.4501042
  O        0.3584290     1.3939840    -1.0246780
  O       -1.9551560     1.3713260     0.4690830
  O        2.7148150     0.4505790    -0.2056670
  O       -1.6716310    -0.8002260    -0.9984850
  C        0.4315910     1.0135520     0.3497470
  C       -0.9217766     0.4779817     0.8370475
  C        1.5345100    -0.0288940     0.4204030
  C       -1.2151430    -0.9364420     0.3397180
  C        1.0549700    -1.3167000    -0.2286510
  H        0.7042560     1.8874530     0.9605880
  H       -0.8818830     0.4322700     1.9353370
  H        1.7837760    -0.2316310     1.4680400
  H       -1.9939520    -1.3968640     0.9617720
  H        0.8436020    -1.1475360    -1.2899680
  H        1.8059140    -2.1013880    -0.1265130
  H       -0.3930520     2.0121160    -1.0836700
  H       -2.3417080     0.9766970    -0.3400740
  H        2.3997000     0.9352960    -0.9928030
  H       -1.9956420    -1.6762600    -1.2784950
units angstrom
no_reorient  #important for SAPT in psi4, default
symmetry c1  #important for SAPT in psi4, default
}

set PROPERTIES_ORIGIN ["COM"]
properties('MP2/aug-cc-pvtz', properties = ['dipole'])
--------------------------------------------------------------------------

    Molecular point group: c1
  Charge       = 0
  Multiplicity = 1
  Basis Set: AUG-CC-PVTZ
    Blend: AUG-CC-PVTZ
  Basis Set: (AUG-CC-PVTZ AUX)
    Blend: AUG-CC-PVTZ-JKFIT

    Orbital Energies [Eh]
    ---------------------

    Doubly Occupied:

       1A    -20.590931     2A    -20.581178     3A    -20.576236
       4A    -20.571031     5A    -20.558660     6A    -11.353188
       7A    -11.298671     8A    -11.290955     9A    -11.286027
      10A    -11.278525    11A     -1.438303    12A     -1.392619
      13A     -1.377639    14A     -1.353733    15A     -1.348370
      16A     -1.057706    17A     -1.021997    18A     -0.898828
      19A     -0.869689    20A     -0.798450    21A     -0.752249
      22A     -0.726735    23A     -0.711751    24A     -0.697532
      25A     -0.669671    26A     -0.646320    27A     -0.620329
      28A     -0.614518    29A     -0.603254    30A     -0.585471
      31A     -0.571840    32A     -0.556380    33A     -0.543491
      34A     -0.516385    35A     -0.502062    36A     -0.491462
      37A     -0.487191    38A     -0.471543    39A     -0.438905
      40A     -0.416187

  @DF-RHF Final Energy:  -569.67431081455641

   => Energetics <=

    Nuclear Repulsion Energy =            633.5608361798373380
    One-Electron Energy =               -2041.3382680167051149
    Two-Electron Energy =                 838.1031210223114840
    Total Energy =                       -569.6743108145564065
  Basis Set: (AUG-CC-PVTZ AUX)
    Blend: AUG-CC-PVTZ-RI
    Molecular point group: c1

    Geometry (in Angstrom), charge = 0, multiplicity = 1:

       Center              X                  Y                   Z               Mass
    ------------   -----------------  -----------------  -----------------  -----------------
         O           -0.119758452812    -1.808701799258     0.450854339412    15.994914619570
         O            0.360138047188     1.394655400742    -1.023927860588    15.994914619570
         O           -1.953446952812     1.371997400742     0.469833139412    15.994914619570
         O            2.716524047188     0.451250400742    -0.204916860588    15.994914619570
         O           -1.669921952812    -0.799554599258    -0.997734860588    15.994914619570
         C            0.433300047188     1.014223400742     0.350497139412    12.000000000000
         C           -0.920067552812     0.478653100742     0.837797639412    12.000000000000
         C            1.536219047188    -0.028222599258     0.421153139412    12.000000000000
         C           -1.213433952812    -0.935770599258     0.340468139412    12.000000000000
         C            1.056679047188    -1.316028599258    -0.227900860588    12.000000000000
         H            0.705965047188     1.888124400742     0.961338139412     1.007825032230
         H           -0.880173952812     0.432941400742     1.936087139412     1.007825032230
         H            1.785485047188    -0.230959599258     1.468790139412     1.007825032230
         H           -1.992242952812    -1.396192599258     0.962522139412     1.007825032230
         H            0.845311047188    -1.146864599258    -1.289217860588     1.007825032230
         H            1.807623047188    -2.100716599258    -0.125762860588     1.007825032230
         H           -0.391342952812     2.012787400742    -1.082919860588     1.007825032230
         H           -2.339998952812     0.977368400742    -0.339323860588     1.007825032230
         H            2.401409047188     0.935967400742    -0.992052860588     1.007825032230
         H           -1.993932952812    -1.675588599258    -1.277744860588     1.007825032230

  Basis Set: AUG-CC-PVTZ
    Blend: AUG-CC-PVTZ
  Basis Set: (AUG-CC-PVTZ AUX)
    Blend: AUG-CC-PVTZ-JKFIT
	 Reference Energy          =    -569.6743108145564065 [Eh]
	 Singles Energy            =      -0.0000000000000000 [Eh]
	 Same-Spin Energy          =      -0.5546267207244133 [Eh]
	 Opposite-Spin Energy      =      -1.7039423531601554 [Eh]
	 Correlation Energy        =      -2.2585690738845687 [Eh]
	 Total Energy              =    -571.9328798884409935 [Eh]

	 ================> DF-SCS-MP2 Energies <==================
	-----------------------------------------------------------
	 SCS Same-Spin Scale       =       0.3333333333333333 [-]
	 SCS Opposite-Spin Scale   =       1.2000000000000000 [-]
	 SCS Same-Spin Energy      =      -0.1848755735748044 [Eh]
	 SCS Opposite-Spin Energy  =      -2.0447308237921864 [Eh]
	 SCS Correlation Energy    =      -2.2296063973669908 [Eh]
	 SCS Total Energy          =    -571.9039172119233854 [Eh]
	-----------------------------------------------------------

  Dipole Moment: [D]
     X:    -2.1906      Y:    -0.9475      Z:    -0.3022     Total:     2.4058

*** Psi4 exiting successfully. Buy a developer a beer!
