                               Psi4 1.3.2 release

  ==> Input File <==

--------------------------------------------------------------------------
#psi4
#
memory 32 gb

molecule  {
0 1
  O       -0.1147700    -1.8002930     0.4548730
  O        0.3584290     1.3939840    -1.0246780
  O       -1.9551560     1.3713260     0.4690830
  O        2.7148150     0.4505790    -0.2056670
  O       -1.6716310    -0.8002260    -0.9984850
  C        0.4315910     1.0135520     0.3497470
  C       -0.9093320     0.4742750     0.8400700
  C        1.5345100    -0.0288940     0.4204030
  C       -1.2151430    -0.9364420     0.3397180
  C        0.9918627    -1.4861748    -0.3140663
  H        0.7042560     1.8874530     0.9605880
  H       -0.8818830     0.4322700     1.9353370
  H        1.7837760    -0.2316310     1.4680400
  H       -1.9939520    -1.3968640     0.9617720
  H        0.8436020    -1.1475360    -1.2899680
  H        1.8059140    -2.1013880    -0.1265130
  H       -0.3930520     2.0121160    -1.0836700
  H       -2.3417080     0.9766970    -0.3400740
  H        2.3997000     0.9352960    -0.9928030
  H       -1.9956420    -1.6762600    -1.2784950
units angstrom
no_reorient  #important for SAPT in psi4, default
symmetry c1  #important for SAPT in psi4, default
}

set PROPERTIES_ORIGIN ["COM"]
properties('MP2/aug-cc-pvtz', properties = ['dipole'])
--------------------------------------------------------------------------

    Molecular point group: c1
  Charge       = 0
  Multiplicity = 1
  Basis Set: AUG-CC-PVTZ
    Blend: AUG-CC-PVTZ
  Basis Set: (AUG-CC-PVTZ AUX)
    Blend: AUG-CC-PVTZ-JKFIT

    Orbital Energies [Eh]
    ---------------------

    Doubly Occupied:

       1A    -20.595156     2A    -20.583604     3A    -20.574736
       4A    -20.569456     5A    -20.553400     6A    -11.358606
       7A    -11.297977     8A    -11.288882     9A    -11.284982
      10A    -11.278050    11A     -1.447005    12A     -1.391466
      13A     -1.377230    14A     -1.358652    15A     -1.343090
      16A     -1.052159    17A     -1.013132    18A     -0.897189
      19A     -0.868581    20A     -0.795739    21A     -0.758263
      22A     -0.725564    23A     -0.721988    24A     -0.697859
      25A     -0.667711    26A     -0.639391    27A     -0.630312
      28A     -0.613944    29A     -0.603839    30A     -0.585725
      31A     -0.575452    32A     -0.551460    33A     -0.540336
      34A     -0.517530    35A     -0.508758    36A     -0.499316
      37A     -0.489941    38A     -0.472143    39A     -0.437628
      40A     -0.373273

  @DF-RHF Final Energy:  -569.64675652080064

   => Energetics <=

    Nuclear Repulsion Energy =            631.4033449266569278
    One-Electron Energy =               -2037.0211586304819775
    Two-Electron Energy =                 835.9710571830244135
    Total Energy =                       -569.6467565208006363
  Basis Set: (AUG-CC-PVTZ AUX)
    Blend: AUG-CC-PVTZ-RI
    Molecular point group: c1

    Geometry (in Angstrom), charge = 0, multiplicity = 1:

       Center              X                  Y                   Z               Mass
    ------------   -----------------  -----------------  -----------------  -----------------
         O           -0.109723285130    -1.786739862465     0.461703911705    15.994914619570
         O            0.363475714870     1.407537137535    -1.017847088295    15.994914619570
         O           -1.950109285130     1.384879137535     0.475913911705    15.994914619570
         O            2.719861714870     0.464132137535    -0.198836088295    15.994914619570
         O           -1.666584285130    -0.786672862465    -0.991654088295    15.994914619570
         C            0.436637714870     1.027105137535     0.356577911705    12.000000000000
         C           -0.904285285130     0.487828137535     0.846900911705    12.000000000000
         C            1.539556714870    -0.015340862465     0.427233911705    12.000000000000
         C           -1.210096285130    -0.922888862465     0.346548911705    12.000000000000
         C            0.996909414870    -1.472621662465    -0.307235388295    12.000000000000
         H            0.709302714870     1.901006137535     0.967418911705     1.007825032230
         H           -0.876836285130     0.445823137535     1.942167911705     1.007825032230
         H            1.788822714870    -0.218077862465     1.474870911705     1.007825032230
         H           -1.988905285130    -1.383310862465     0.968602911705     1.007825032230
         H            0.848648714870    -1.133982862465    -1.283137088295     1.007825032230
         H            1.810960714870    -2.087834862465    -0.119682088295     1.007825032230
         H           -0.388005285130     2.025669137535    -1.076839088295     1.007825032230
         H           -2.336661285130     0.990250137535    -0.333243088295     1.007825032230
         H            2.404746714870     0.948849137535    -0.985972088295     1.007825032230
         H           -1.990595285130    -1.662706862465    -1.271664088295     1.007825032230

  Basis Set: AUG-CC-PVTZ
    Blend: AUG-CC-PVTZ
  Basis Set: (AUG-CC-PVTZ AUX)
    Blend: AUG-CC-PVTZ-JKFIT
	 Reference Energy          =    -569.6467565208006363 [Eh]
	 Singles Energy            =      -0.0000000000000000 [Eh]
	 Same-Spin Energy          =      -0.5547292120429392 [Eh]
	 Opposite-Spin Energy      =      -1.7046439590194202 [Eh]
	 Correlation Energy        =      -2.2593731710623595 [Eh]
	 Total Energy              =    -571.9061296918630433 [Eh]

	 ================> DF-SCS-MP2 Energies <==================
	-----------------------------------------------------------
	 SCS Same-Spin Scale       =       0.3333333333333333 [-]
	 SCS Opposite-Spin Scale   =       1.2000000000000000 [-]
	 SCS Same-Spin Energy      =      -0.1849097373476464 [Eh]
	 SCS Opposite-Spin Energy  =      -2.0455727508233044 [Eh]
	 SCS Correlation Energy    =      -2.2304824881709506 [Eh]
	 SCS Total Energy          =    -571.8772390089716282 [Eh]
	-----------------------------------------------------------

  Dipole Moment: [D]
     X:    -2.3718      Y:    -1.1703      Z:    -0.3259     Total:     2.6649

*** Psi4 exiting successfully. Buy a developer a beer!
