                               Psi4 1.3.2 release

  ==> Input File <==

--------------------------------------------------------------------------
#psi4
#
memory 32 gb

molecule  {
0 1
  O       -0.1147700    -1.8002930     0.4548730
  O        0.3584290     1.3939840    -1.0246780
  O       -1.9551560     1.3713260     0.4690830
  O        2.7148150     0.4505790    -0.2056670
  O       -1.6716310    -0.8002260    -0.9984850
  C        0.4511602     0.9990506     0.3444655
  C       -0.9093320     0.4742750     0.8400700
  C        1.5345100    -0.0288940     0.4204030
  C       -1.2151430    -0.9364420     0.3397180
  C        1.0549700    -1.3167000    -0.2286510
  H        0.7042560     1.8874530     0.9605880
  H       -0.8818830     0.4322700     1.9353370
  H        1.7837760    -0.2316310     1.4680400
  H       -1.9939520    -1.3968640     0.9617720
  H        0.8436020    -1.1475360    -1.2899680
  H        1.8059140    -2.1013880    -0.1265130
  H       -0.3902131     2.0137397    -1.1003665
  H       -2.3417080     0.9766970    -0.3400740
  H        2.3997000     0.9352960    -0.9928030
  H       -1.9956420    -1.6762600    -1.2784950
units angstrom
no_reorient  #important for SAPT in psi4, default
symmetry c1  #important for SAPT in psi4, default
}

set PROPERTIES_ORIGIN ["COM"]
properties('MP2/aug-cc-pvtz', properties = ['dipole'])
--------------------------------------------------------------------------

    Molecular point group: c1
  Charge       = 0
  Multiplicity = 1
  Basis Set: AUG-CC-PVTZ
    Blend: AUG-CC-PVTZ
  Basis Set: (AUG-CC-PVTZ AUX)
    Blend: AUG-CC-PVTZ-JKFIT

    Orbital Energies [Eh]
    ---------------------

    Doubly Occupied:

       1A    -20.591405     2A    -20.580804     3A    -20.574830
       4A    -20.570327     5A    -20.558323     6A    -11.353307
       7A    -11.298731     8A    -11.291830     9A    -11.285104
      10A    -11.278414    11A     -1.438573    12A     -1.390896
      13A     -1.375895    14A     -1.353870    15A     -1.347387
      16A     -1.060805    17A     -1.023064    18A     -0.899022
      19A     -0.870100    20A     -0.799394    21A     -0.752324
      22A     -0.726609    23A     -0.711589    24A     -0.696143
      25A     -0.670686    26A     -0.645943    27A     -0.620660
      28A     -0.615352    29A     -0.601631    30A     -0.584904
      31A     -0.571983    32A     -0.556061    33A     -0.540459
      34A     -0.517487    35A     -0.502232    36A     -0.490539
      37A     -0.487832    38A     -0.473621    39A     -0.439898
      40A     -0.414660

  @DF-RHF Final Energy:  -569.67398485153399

   => Energetics <=

    Nuclear Repulsion Energy =            633.9445005155381523
    One-Electron Energy =               -2042.1115844978021414
    Two-Electron Energy =                 838.4930991307301156
    Total Energy =                       -569.6739848515339872
  Basis Set: (AUG-CC-PVTZ AUX)
    Blend: AUG-CC-PVTZ-RI
    Molecular point group: c1

    Geometry (in Angstrom), charge = 0, multiplicity = 1:

       Center              X                  Y                   Z               Mass
    ------------   -----------------  -----------------  -----------------  -----------------
         O           -0.116354144129    -1.799144275545     0.455407605992    15.994914619570
         O            0.356844855871     1.395132724455    -1.024143394008    15.994914619570
         O           -1.956740144129     1.372474724455     0.469617605992    15.994914619570
         O            2.713230855871     0.451727724455    -0.205132394008    15.994914619570
         O           -1.673215144129    -0.799077275545    -0.997950394008    15.994914619570
         C            0.449576055871     1.000199324455     0.345000105992    12.000000000000
         C           -0.910916144129     0.475423724455     0.840604605992    12.000000000000
         C            1.532925855871    -0.027745275545     0.420937605992    12.000000000000
         C           -1.216727144129    -0.935293275545     0.340252605992    12.000000000000
         C            1.053385855871    -1.315551275545    -0.228116394008    12.000000000000
         H            0.702671855871     1.888601724455     0.961122605992     1.007825032230
         H           -0.883467144129     0.433418724455     1.935871605992     1.007825032230
         H            1.782191855871    -0.230482275545     1.468574605992     1.007825032230
         H           -1.995536144129    -1.395715275545     0.962306605992     1.007825032230
         H            0.842017855871    -1.146387275545    -1.289433394008     1.007825032230
         H            1.804329855871    -2.100239275545    -0.125978394008     1.007825032230
         H           -0.391797244129     2.014888424455    -1.099831894008     1.007825032230
         H           -2.343292144129     0.977845724455    -0.339539394008     1.007825032230
         H            2.398115855871     0.936444724455    -0.992268394008     1.007825032230
         H           -1.997226144129    -1.675111275545    -1.277960394008     1.007825032230

  Basis Set: AUG-CC-PVTZ
    Blend: AUG-CC-PVTZ
  Basis Set: (AUG-CC-PVTZ AUX)
    Blend: AUG-CC-PVTZ-JKFIT
	 Reference Energy          =    -569.6739848515339872 [Eh]
	 Singles Energy            =      -0.0000000000000000 [Eh]
	 Same-Spin Energy          =      -0.5546432333064399 [Eh]
	 Opposite-Spin Energy      =      -1.7038619942410052 [Eh]
	 Correlation Energy        =      -2.2585052275474453 [Eh]
	 Total Energy              =    -571.9324900790813899 [Eh]

	 ================> DF-SCS-MP2 Energies <==================
	-----------------------------------------------------------
	 SCS Same-Spin Scale       =       0.3333333333333333 [-]
	 SCS Opposite-Spin Scale   =       1.2000000000000000 [-]
	 SCS Same-Spin Energy      =      -0.1848810777688133 [Eh]
	 SCS Opposite-Spin Energy  =      -2.0446343930892059 [Eh]
	 SCS Correlation Energy    =      -2.2295154708580194 [Eh]
	 SCS Total Energy          =    -571.9035003223920057 [Eh]
	-----------------------------------------------------------

  Dipole Moment: [D]
     X:    -2.1726      Y:    -0.9993      Z:    -0.3214     Total:     2.4129

*** Psi4 exiting successfully. Buy a developer a beer!
