                               Psi4 1.3.2 release

  ==> Input File <==

--------------------------------------------------------------------------
#psi4
#
memory 32 gb

molecule  {
0 1
  O       -0.1147700    -1.8002930     0.4548730
  O        0.3584290     1.3939840    -1.0246780
  O       -1.9551560     1.3713260     0.4690830
  O        2.7149462     0.4888251    -0.1741685
  O       -1.6716310    -0.8002260    -0.9984850
  C        0.4315910     1.0135520     0.3497470
  C       -0.9093320     0.4742750     0.8400700
  C        1.5345100    -0.0288940     0.4204030
  C       -1.2151430    -0.9364420     0.3397180
  C        1.0144493    -1.3177650    -0.1944323
  H        0.7042560     1.8874530     0.9605880
  H       -0.8818830     0.4322700     1.9353370
  H        1.7837760    -0.2316310     1.4680400
  H       -1.9939520    -1.3968640     0.9617720
  H        0.8436020    -1.1475360    -1.2899680
  H        1.8059140    -2.1013880    -0.1265130
  H       -0.3930520     2.0121160    -1.0836700
  H       -2.3417080     0.9766970    -0.3400740
  H        2.3997000     0.9352960    -0.9928030
  H       -1.9956420    -1.6762600    -1.2784950
units angstrom
no_reorient  #important for SAPT in psi4, default
symmetry c1  #important for SAPT in psi4, default
}

set PROPERTIES_ORIGIN ["COM"]
properties('MP2/aug-cc-pvtz', properties = ['dipole'])
--------------------------------------------------------------------------

    Molecular point group: c1
  Charge       = 0
  Multiplicity = 1
  Basis Set: AUG-CC-PVTZ
    Blend: AUG-CC-PVTZ
  Basis Set: (AUG-CC-PVTZ AUX)
    Blend: AUG-CC-PVTZ-JKFIT

    Orbital Energies [Eh]
    ---------------------

    Doubly Occupied:

       1A    -20.593684     2A    -20.587052     3A    -20.575301
       4A    -20.570311     5A    -20.559834     6A    -11.356958
       7A    -11.299194     8A    -11.289290     9A    -11.284059
      10A    -11.279985    11A     -1.448598    12A     -1.392786
      13A     -1.379841    14A     -1.359365    15A     -1.346367
      16A     -1.059670    17A     -1.025006    18A     -0.896268
      19A     -0.873187    20A     -0.798142    21A     -0.753577
      22A     -0.728221    23A     -0.717394    24A     -0.697400
      25A     -0.668784    26A     -0.647777    27A     -0.628057
      28A     -0.617034    29A     -0.603533    30A     -0.583507
      31A     -0.570067    32A     -0.553327    33A     -0.543376
      34A     -0.517564    35A     -0.504651    36A     -0.492382
      37A     -0.490078    38A     -0.464799    39A     -0.438559
      40A     -0.414693

  @DF-RHF Final Energy:  -569.67092034731672

   => Energetics <=

    Nuclear Repulsion Energy =            634.5614020095979413
    One-Electron Energy =               -2043.2452828107391269
    Two-Electron Energy =                 839.0129604538244621
    Total Energy =                       -569.6709203473167236
  Basis Set: (AUG-CC-PVTZ AUX)
    Blend: AUG-CC-PVTZ-RI
    Molecular point group: c1

    Geometry (in Angstrom), charge = 0, multiplicity = 1:

       Center              X                  Y                   Z               Mass
    ------------   -----------------  -----------------  -----------------  -----------------
         O           -0.111543562326    -1.804284755284     0.448778971181    15.994914619570
         O            0.361655437674     1.389992244716    -1.030772028819    15.994914619570
         O           -1.951929562326     1.367334244716     0.462988971181    15.994914619570
         O            2.718172637674     0.484833344716    -0.180262528819    15.994914619570
         O           -1.668404562326    -0.804217755284    -1.004579028819    15.994914619570
         C            0.434817437674     1.009560244716     0.343652971181    12.000000000000
         C           -0.906105562326     0.470283244716     0.833975971181    12.000000000000
         C            1.537736437674    -0.032885755284     0.414308971181    12.000000000000
         C           -1.211916562326    -0.940433755284     0.333623971181    12.000000000000
         C            1.017675737674    -1.321756755284    -0.200526328819    12.000000000000
         H            0.707482437674     1.883461244716     0.954493971181     1.007825032230
         H           -0.878656562326     0.428278244716     1.929242971181     1.007825032230
         H            1.787002437674    -0.235622755284     1.461945971181     1.007825032230
         H           -1.990725562326    -1.400855755284     0.955677971181     1.007825032230
         H            0.846828437674    -1.151527755284    -1.296062028819     1.007825032230
         H            1.809140437674    -2.105379755284    -0.132607028819     1.007825032230
         H           -0.389825562326     2.008124244716    -1.089764028819     1.007825032230
         H           -2.338481562326     0.972705244716    -0.346168028819     1.007825032230
         H            2.402926437674     0.931304244716    -0.998897028819     1.007825032230
         H           -1.992415562326    -1.680251755284    -1.284589028819     1.007825032230

  Basis Set: AUG-CC-PVTZ
    Blend: AUG-CC-PVTZ
  Basis Set: (AUG-CC-PVTZ AUX)
    Blend: AUG-CC-PVTZ-JKFIT
	 Reference Energy          =    -569.6709203473167236 [Eh]
	 Singles Energy            =      -0.0000000000000000 [Eh]
	 Same-Spin Energy          =      -0.5549861924053562 [Eh]
	 Opposite-Spin Energy      =      -1.7040022758836084 [Eh]
	 Correlation Energy        =      -2.2589884682889645 [Eh]
	 Total Energy              =    -571.9299088156056996 [Eh]

	 ================> DF-SCS-MP2 Energies <==================
	-----------------------------------------------------------
	 SCS Same-Spin Scale       =       0.3333333333333333 [-]
	 SCS Opposite-Spin Scale   =       1.2000000000000000 [-]
	 SCS Same-Spin Energy      =      -0.1849953974684521 [Eh]
	 SCS Opposite-Spin Energy  =      -2.0448027310603298 [Eh]
	 SCS Correlation Energy    =      -2.2297981285287820 [Eh]
	 SCS Total Energy          =    -571.9007184758454514 [Eh]
	-----------------------------------------------------------

  Dipole Moment: [D]
     X:    -2.3245      Y:    -1.1069      Z:    -0.2910     Total:     2.5910

*** Psi4 exiting successfully. Buy a developer a beer!
