                               Psi4 1.3.2 release

  ==> Input File <==

--------------------------------------------------------------------------
#psi4
#
memory 32 gb

molecule  {
0 1
  O       -0.1147700    -1.8002930     0.4548730
  O        0.3584290     1.3939840    -1.0246780
  O       -1.9551560     1.3713260     0.4690830
  O        2.7148150     0.4505790    -0.2056670
  O       -1.6716310    -0.8002260    -0.9984850
  C        0.4397868     1.0154915     0.3750175
  C       -0.9093320     0.4742750     0.8400700
  C        1.5345100    -0.0288940     0.4204030
  C       -1.2151430    -0.9364420     0.3397180
  C        1.0549700    -1.3167000    -0.2286510
  H        0.7042560     1.8874530     0.9605880
  H       -0.8640313     0.4391529     1.9349864
  H        1.7837760    -0.2316310     1.4680400
  H       -1.9939520    -1.3968640     0.9617720
  H        0.8436020    -1.1475360    -1.2899680
  H        1.8059140    -2.1013880    -0.1265130
  H       -0.3930520     2.0121160    -1.0836700
  H       -2.3417080     0.9766970    -0.3400740
  H        2.3997000     0.9352960    -0.9928030
  H       -1.9956420    -1.6762600    -1.2784950
units angstrom
no_reorient  #important for SAPT in psi4, default
symmetry c1  #important for SAPT in psi4, default
}

set PROPERTIES_ORIGIN ["COM"]
properties('MP2/aug-cc-pvtz', properties = ['dipole'])
--------------------------------------------------------------------------

    Molecular point group: c1
  Charge       = 0
  Multiplicity = 1
  Basis Set: AUG-CC-PVTZ
    Blend: AUG-CC-PVTZ
  Basis Set: (AUG-CC-PVTZ AUX)
    Blend: AUG-CC-PVTZ-JKFIT

    Orbital Energies [Eh]
    ---------------------

    Doubly Occupied:

       1A    -20.591623     2A    -20.580961     3A    -20.575087
       4A    -20.568085     5A    -20.558422     6A    -11.354586
       7A    -11.299198     8A    -11.290796     9A    -11.286133
      10A    -11.278703    11A     -1.438589    12A     -1.386917
      13A     -1.375335    14A     -1.353998    15A     -1.343518
      16A     -1.060984    17A     -1.023261    18A     -0.900368
      19A     -0.871088    20A     -0.796749    21A     -0.751537
      22A     -0.728357    23A     -0.711539    24A     -0.694953
      25A     -0.666941    26A     -0.646374    27A     -0.621356
      28A     -0.612309    29A     -0.603536    30A     -0.584988
      31A     -0.572015    32A     -0.556743    33A     -0.539386
      34A     -0.514971    35A     -0.503106    36A     -0.490366
      37A     -0.487770    38A     -0.472248    39A     -0.441326
      40A     -0.418331

  @DF-RHF Final Energy:  -569.67339429866956

   => Energetics <=

    Nuclear Repulsion Energy =            633.4965459783315964
    One-Electron Energy =               -2041.2347708770903409
    Two-Electron Energy =                 838.0648306000891807
    Total Energy =                       -569.6733942986695638
  Basis Set: (AUG-CC-PVTZ AUX)
    Blend: AUG-CC-PVTZ-RI
    Molecular point group: c1

    Geometry (in Angstrom), charge = 0, multiplicity = 1:

       Center              X                  Y                   Z               Mass
    ------------   -----------------  -----------------  -----------------  -----------------
         O           -0.115545425428    -1.800494407777     0.452854519696    15.994914619570
         O            0.357653574572     1.393782592223    -1.026696480304    15.994914619570
         O           -1.955931425428     1.371124592223     0.467064519696    15.994914619570
         O            2.714039574572     0.450377592223    -0.207685480304    15.994914619570
         O           -1.672406425428    -0.800427407777    -1.000503480304    15.994914619570
         C            0.439011374572     1.015290092223     0.372999019696    12.000000000000
         C           -0.910107425428     0.474073592223     0.838051519696    12.000000000000
         C            1.533734574572    -0.029095407777     0.418384519696    12.000000000000
         C           -1.215918425428    -0.936643407777     0.337699519696    12.000000000000
         C            1.054194574572    -1.316901407777    -0.230669480304    12.000000000000
         H            0.703480574572     1.887251592223     0.958569519696     1.007825032230
         H           -0.864806725428     0.438951492223     1.932967919696     1.007825032230
         H            1.783000574572    -0.231832407777     1.466021519696     1.007825032230
         H           -1.994727425428    -1.397065407777     0.959753519696     1.007825032230
         H            0.842826574572    -1.147737407777    -1.291986480304     1.007825032230
         H            1.805138574572    -2.101589407777    -0.128531480304     1.007825032230
         H           -0.393827425428     2.011914592223    -1.085688480304     1.007825032230
         H           -2.342483425428     0.976495592223    -0.342092480304     1.007825032230
         H            2.398924574572     0.935094592223    -0.994821480304     1.007825032230
         H           -1.996417425428    -1.676461407777    -1.280513480304     1.007825032230

  Basis Set: AUG-CC-PVTZ
    Blend: AUG-CC-PVTZ
  Basis Set: (AUG-CC-PVTZ AUX)
    Blend: AUG-CC-PVTZ-JKFIT
	 Reference Energy          =    -569.6733942986695638 [Eh]
	 Singles Energy            =      -0.0000000000000000 [Eh]
	 Same-Spin Energy          =      -0.5546407631300039 [Eh]
	 Opposite-Spin Energy      =      -1.7042824589003867 [Eh]
	 Correlation Energy        =      -2.2589232220303908 [Eh]
	 Total Energy              =    -571.9323175206999395 [Eh]

	 ================> DF-SCS-MP2 Energies <==================
	-----------------------------------------------------------
	 SCS Same-Spin Scale       =       0.3333333333333333 [-]
	 SCS Opposite-Spin Scale   =       1.2000000000000000 [-]
	 SCS Same-Spin Energy      =      -0.1848802543766679 [Eh]
	 SCS Opposite-Spin Energy  =      -2.0451389506804638 [Eh]
	 SCS Correlation Energy    =      -2.2300192050571317 [Eh]
	 SCS Total Energy          =    -571.9034135037267106 [Eh]
	-----------------------------------------------------------

  Dipole Moment: [D]
     X:    -2.1678      Y:    -1.0077      Z:    -0.2323     Total:     2.4018

*** Psi4 exiting successfully. Buy a developer a beer!
