                               Psi4 1.3.2 release

  ==> Input File <==

--------------------------------------------------------------------------
#psi4
#
memory 32 gb

molecule  {
0 1
  O       -0.1147700    -1.8002930     0.4548730
  O        0.3584290     1.3939840    -1.0246780
  O       -1.9551560     1.3713260     0.4690830
  O        2.7148150     0.4505790    -0.2056670
  O       -1.6716310    -0.8002260    -0.9984850
  C        0.4315910     1.0135520     0.3497470
  C       -0.9066406     0.4363173     0.8027890
  C        1.5345100    -0.0288940     0.4204030
  C       -1.2151430    -0.9364420     0.3397180
  C        1.0549700    -1.3167000    -0.2286510
  H        0.7364939     1.8909457     0.9399931
  H       -0.8818830     0.4322700     1.9353370
  H        1.7837760    -0.2316310     1.4680400
  H       -1.9939520    -1.3968640     0.9617720
  H        0.8436020    -1.1475360    -1.2899680
  H        1.8059140    -2.1013880    -0.1265130
  H       -0.3930520     2.0121160    -1.0836700
  H       -2.3417080     0.9766970    -0.3400740
  H        2.3997000     0.9352960    -0.9928030
  H       -1.9956420    -1.6762600    -1.2784950
units angstrom
no_reorient  #important for SAPT in psi4, default
symmetry c1  #important for SAPT in psi4, default
}

set PROPERTIES_ORIGIN ["COM"]
properties('MP2/aug-cc-pvtz', properties = ['dipole'])
--------------------------------------------------------------------------

    Molecular point group: c1
  Charge       = 0
  Multiplicity = 1
  Basis Set: AUG-CC-PVTZ
    Blend: AUG-CC-PVTZ
  Basis Set: (AUG-CC-PVTZ AUX)
    Blend: AUG-CC-PVTZ-JKFIT

    Orbital Energies [Eh]
    ---------------------

    Doubly Occupied:

       1A    -20.592026     2A    -20.581914     3A    -20.574640
       4A    -20.569970     5A    -20.558486     6A    -11.354203
       7A    -11.299828     8A    -11.292195     9A    -11.285395
      10A    -11.278725    11A     -1.441080    12A     -1.390705
      13A     -1.374516    14A     -1.353832    15A     -1.346964
      16A     -1.061215    17A     -1.028179    18A     -0.904042
      19A     -0.867228    20A     -0.796749    21A     -0.754594
      22A     -0.728127    23A     -0.714342    24A     -0.691979
      25A     -0.669232    26A     -0.645641    27A     -0.621935
      28A     -0.616011    29A     -0.600629    30A     -0.582354
      31A     -0.570507    32A     -0.558609    33A     -0.539604
      34A     -0.514347    35A     -0.503748    36A     -0.494044
      37A     -0.487660    38A     -0.472476    39A     -0.439960
      40A     -0.419909

  @DF-RHF Final Energy:  -569.66960350061777

   => Energetics <=

    Nuclear Repulsion Energy =            634.6033917081946356
    One-Electron Energy =               -2043.3907836480532296
    Two-Electron Energy =                 839.1177884392407123
    Total Energy =                       -569.6696035006177681
  Basis Set: (AUG-CC-PVTZ AUX)
    Blend: AUG-CC-PVTZ-RI
    Molecular point group: c1

    Geometry (in Angstrom), charge = 0, multiplicity = 1:

       Center              X                  Y                   Z               Mass
    ------------   -----------------  -----------------  -----------------  -----------------
         O           -0.115201852902    -1.797280985214     0.457992848284    15.994914619570
         O            0.357997147098     1.396996014786    -1.021558151716    15.994914619570
         O           -1.955587852902     1.374338014786     0.472202848284    15.994914619570
         O            2.714383147098     0.453591014786    -0.202547151716    15.994914619570
         O           -1.672062852902    -0.797213985214    -0.995365151716    15.994914619570
         C            0.431159147098     1.016564014786     0.352866848284    12.000000000000
         C           -0.907072452902     0.439329314786     0.805908848284    12.000000000000
         C            1.534078147098    -0.025881985214     0.423522848284    12.000000000000
         C           -1.215574852902    -0.933429985214     0.342837848284    12.000000000000
         C            1.054538147098    -1.313687985214    -0.225531151716    12.000000000000
         H            0.736062047098     1.893957714786     0.943112948284     1.007825032230
         H           -0.882314852902     0.435282014786     1.938456848284     1.007825032230
         H            1.783344147098    -0.228618985214     1.471159848284     1.007825032230
         H           -1.994383852902    -1.393851985214     0.964891848284     1.007825032230
         H            0.843170147098    -1.144523985214    -1.286848151716     1.007825032230
         H            1.805482147098    -2.098375985214    -0.123393151716     1.007825032230
         H           -0.393483852902     2.015128014786    -1.080550151716     1.007825032230
         H           -2.342139852902     0.979709014786    -0.336954151716     1.007825032230
         H            2.399268147098     0.938308014786    -0.989683151716     1.007825032230
         H           -1.996073852902    -1.673247985214    -1.275375151716     1.007825032230

  Basis Set: AUG-CC-PVTZ
    Blend: AUG-CC-PVTZ
  Basis Set: (AUG-CC-PVTZ AUX)
    Blend: AUG-CC-PVTZ-JKFIT
	 Reference Energy          =    -569.6696035006177681 [Eh]
	 Singles Energy            =      -0.0000000000000000 [Eh]
	 Same-Spin Energy          =      -0.5551801489459049 [Eh]
	 Opposite-Spin Energy      =      -1.7050180447992758 [Eh]
	 Correlation Energy        =      -2.2601981937451807 [Eh]
	 Total Energy              =    -571.9298016943629364 [Eh]

	 ================> DF-SCS-MP2 Energies <==================
	-----------------------------------------------------------
	 SCS Same-Spin Scale       =       0.3333333333333333 [-]
	 SCS Opposite-Spin Scale   =       1.2000000000000000 [-]
	 SCS Same-Spin Energy      =      -0.1850600496486350 [Eh]
	 SCS Opposite-Spin Energy  =      -2.0460216537591309 [Eh]
	 SCS Correlation Energy    =      -2.2310817034077659 [Eh]
	 SCS Total Energy          =    -571.9006852040255353 [Eh]
	-----------------------------------------------------------

  Dipole Moment: [D]
     X:    -2.1414      Y:    -1.0342      Z:    -0.3248     Total:     2.4002

*** Psi4 exiting successfully. Buy a developer a beer!
