                               Psi4 1.4a3.dev225

  ==> Input File <==

--------------------------------------------------------------------------
#psi4
#
memory 32 gb

molecule  {
0 1
  O       -0.2343850     1.7978400    -0.4145210
  O        0.4791390    -1.3900560     0.9851260
  O       -1.8902550    -1.4798720    -0.4079610
  O        2.7489250    -0.2990660     0.0843650
  O       -1.6766260     0.6849030     1.0797040
  C        0.4758930    -0.9871420    -0.3839460
  C       -0.9335002    -0.5098725    -0.8168570
  C        1.5148540     0.1205520    -0.4811210
  C       -1.2794180     0.8705190    -0.2725550
  C        0.9914930     1.3693070     0.2124490
  H        0.7732420    -1.8350180    -1.0199460
  H       -0.9367810    -0.4539690    -1.9062570
  H        1.7061480     0.3550680    -1.5342930
  H       -2.1075740     1.2945610    -0.8542440
  H        0.8333730     1.1741050     1.2776920
  H        1.6908660     2.1982840     0.0933200
  H       -0.2684360    -2.0097880     1.0741120
  H       -2.2907410    -1.1048270     0.4011470
  H        2.5001980    -0.8049050     0.8819700
  H       -2.0397460     1.5332780     1.3914430
units angstrom
no_reorient  #important for SAPT in psi4, default
symmetry c1  #important for SAPT in psi4, default
}

set PROPERTIES_ORIGIN ["COM"]
properties('MP2/aug-cc-pvtz', properties = ['dipole'])
--------------------------------------------------------------------------

    Molecular point group: c1
  Charge       = 0
  Multiplicity = 1
  Basis Set: AUG-CC-PVTZ
    Blend: AUG-CC-PVTZ
  Basis Set: (AUG-CC-PVTZ AUX)
    Blend: AUG-CC-PVTZ-JKFIT

    Orbital Energies [Eh]
    ---------------------

    Doubly Occupied:

       1A    -20.592280     2A    -20.581506     3A    -20.576164
       4A    -20.569744     5A    -20.558209     6A    -11.354500
       7A    -11.299466     8A    -11.291283     9A    -11.285664
      10A    -11.278633    11A     -1.438459    12A     -1.391025
      13A     -1.376583    14A     -1.354488    15A     -1.347325
      16A     -1.055311    17A     -1.023466    18A     -0.898660
      19A     -0.869403    20A     -0.798327    21A     -0.752487
      22A     -0.726202    23A     -0.712816    24A     -0.696152
      25A     -0.667044    26A     -0.647663    27A     -0.620731
      28A     -0.614584    29A     -0.601696    30A     -0.585294
      31A     -0.572575    32A     -0.557131    33A     -0.543125
      34A     -0.516636    35A     -0.503285    36A     -0.490888
      37A     -0.488042    38A     -0.471026    39A     -0.437405
      40A     -0.415872

  @DF-RHF Final Energy:  -569.67432752053105

   => Energetics <=

    Nuclear Repulsion Energy =            632.9775390331462859
    One-Electron Energy =               -2040.1814284998727089
    Two-Electron Energy =                 837.5295619461953720
    Total Energy =                       -569.6743275205310511
  Basis Set: (AUG-CC-PVTZ AUX)
    Blend: AUG-CC-PVTZ-RI
    Molecular point group: c1

    Geometry (in Angstrom), charge = 0, multiplicity = 1:

       Center              X                  Y                   Z               Mass
    ------------   -----------------  -----------------  -----------------  -----------------
         O           -0.233871862982     1.799617117627    -0.415318844635    15.994914619570
         O            0.479652137018    -1.388278882373     0.984328155365    15.994914619570
         O           -1.889741862982    -1.478094882373    -0.408758844635    15.994914619570
         O            2.749438137018    -0.297288882373     0.083567155365    15.994914619570
         O           -1.676112862982     0.686680117627     1.078906155365    15.994914619570
         C            0.476406137018    -0.985364882373    -0.384743844635    12.000000000000
         C           -0.932987062982    -0.508095382373    -0.817654844635    12.000000000000
         C            1.515367137018     0.122329117627    -0.481918844635    12.000000000000
         C           -1.278904862982     0.872296117627    -0.273352844635    12.000000000000
         C            0.992006137018     1.371084117627     0.211651155365    12.000000000000
         H            0.773755137018    -1.833240882373    -1.020743844635     1.007825032230
         H           -0.936267862982    -0.452191882373    -1.907054844635     1.007825032230
         H            1.706661137018     0.356845117627    -1.535090844635     1.007825032230
         H           -2.107060862982     1.296338117627    -0.855041844635     1.007825032230
         H            0.833886137018     1.175882117627     1.276894155365     1.007825032230
         H            1.691379137018     2.200061117627     0.092522155365     1.007825032230
         H           -0.267922862982    -2.008010882373     1.073314155365     1.007825032230
         H           -2.290227862982    -1.103049882373     0.400349155365     1.007825032230
         H            2.500711137018    -0.803127882373     0.881172155365     1.007825032230
         H           -2.039232862982     1.535055117627     1.390645155365     1.007825032230

  Basis Set: AUG-CC-PVTZ
    Blend: AUG-CC-PVTZ
  Basis Set: (AUG-CC-PVTZ AUX)
    Blend: AUG-CC-PVTZ-JKFIT
	 Reference Energy          =    -569.6743275205310511 [Eh]
	 Singles Energy            =      -0.0000000000000000 [Eh]
	 Same-Spin Energy          =      -0.5544671363066487 [Eh]
	 Opposite-Spin Energy      =      -1.7038450082864949 [Eh]
	 Correlation Energy        =      -2.2583121445931438 [Eh]
	 Total Energy              =    -571.9326396651241566 [Eh]

	 ================> DF-SCS-MP2 Energies <==================
	-----------------------------------------------------------
	 SCS Same-Spin Scale       =       0.3333333333333333 [-]
	 SCS Opposite-Spin Scale   =       1.2000000000000000 [-]
	 SCS Same-Spin Energy      =      -0.1848223787688829 [Eh]
	 SCS Opposite-Spin Energy  =      -2.0446140099437939 [Eh]
	 SCS Correlation Energy    =      -2.2294363887126769 [Eh]
	 SCS Total Energy          =    -571.9037639092437075 [Eh]
	-----------------------------------------------------------

  Dipole Moment: [D]
     X:    -2.3318      Y:     0.9529      Z:     0.3963     Total:     2.5500

*** Psi4 exiting successfully. Buy a developer a beer!
