                               Psi4 1.3.2 release

  ==> Input File <==

--------------------------------------------------------------------------
#psi4
#
memory 32 gb

molecule  {
0 1
  O       -0.1153902    -1.8039635     0.4306589
  O        0.3584290     1.3939840    -1.0246780
  O       -1.9551560     1.3713260     0.4690830
  O        2.7148150     0.4505790    -0.2056670
  O       -1.6538298    -0.8158003    -1.0059130
  C        0.4315910     1.0135520     0.3497470
  C       -0.9093320     0.4742750     0.8400700
  C        1.5345100    -0.0288940     0.4204030
  C       -1.2151430    -0.9364420     0.3397180
  C        1.0549700    -1.3167000    -0.2286510
  H        0.7042560     1.8874530     0.9605880
  H       -0.8818830     0.4322700     1.9353370
  H        1.7837760    -0.2316310     1.4680400
  H       -1.9939520    -1.3968640     0.9617720
  H        0.8436020    -1.1475360    -1.2899680
  H        1.8059140    -2.1013880    -0.1265130
  H       -0.3930520     2.0121160    -1.0836700
  H       -2.3417080     0.9766970    -0.3400740
  H        2.3997000     0.9352960    -0.9928030
  H       -1.9956420    -1.6762600    -1.2784950
units angstrom
no_reorient  #important for SAPT in psi4, default
symmetry c1  #important for SAPT in psi4, default
}

set PROPERTIES_ORIGIN ["COM"]
properties('MP2/aug-cc-pvtz', properties = ['dipole'])
--------------------------------------------------------------------------

    Molecular point group: c1
  Charge       = 0
  Multiplicity = 1
  Basis Set: AUG-CC-PVTZ
    Blend: AUG-CC-PVTZ
  Basis Set: (AUG-CC-PVTZ AUX)
    Blend: AUG-CC-PVTZ-JKFIT

    Orbital Energies [Eh]
    ---------------------

    Doubly Occupied:

       1A    -20.589026     2A    -20.578874     3A    -20.575971
       4A    -20.571288     5A    -20.558116     6A    -11.354504
       7A    -11.299584     8A    -11.291292     9A    -11.285415
      10A    -11.276499    11A     -1.440349    12A     -1.392104
      13A     -1.376004    14A     -1.354327    15A     -1.347807
      16A     -1.059460    17A     -1.023606    18A     -0.898686
      19A     -0.871473    20A     -0.798887    21A     -0.752159
      22A     -0.727702    23A     -0.713100    24A     -0.697154
      25A     -0.670153    26A     -0.646468    27A     -0.620962
      28A     -0.614321    29A     -0.603905    30A     -0.584847
      31A     -0.572008    32A     -0.555624    33A     -0.543418
      34A     -0.516322    35A     -0.503011    36A     -0.491276
      37A     -0.487222    38A     -0.468990    39A     -0.441069
      40A     -0.415769

  @DF-RHF Final Energy:  -569.67557040506756

   => Energetics <=

    Nuclear Repulsion Energy =            634.0861816529728685
    One-Electron Energy =               -2042.3860070701828135
    Two-Electron Energy =                 838.6242550121422710
    Total Energy =                       -569.6755704050675604
  Basis Set: (AUG-CC-PVTZ AUX)
    Blend: AUG-CC-PVTZ-RI
    Molecular point group: c1

    Geometry (in Angstrom), charge = 0, multiplicity = 1:

       Center              X                  Y                   Z               Mass
    ------------   -----------------  -----------------  -----------------  -----------------
         O           -0.117221704443    -1.801912169814     0.434031890019    15.994914619570
         O            0.356597495557     1.396035330186    -1.021305009981    15.994914619570
         O           -1.956987504443     1.373377330186     0.472455990019    15.994914619570
         O            2.712983495557     0.452630330186    -0.202294009981    15.994914619570
         O           -1.655661304443    -0.813748969814    -1.002540009981    15.994914619570
         C            0.429759495557     1.015603330186     0.353119990019    12.000000000000
         C           -0.911163504443     0.476326330186     0.843442990019    12.000000000000
         C            1.532678495557    -0.026842669814     0.423775990019    12.000000000000
         C           -1.216974504443    -0.934390669814     0.343090990019    12.000000000000
         C            1.053138495557    -1.314648669814    -0.225278009981    12.000000000000
         H            0.702424495557     1.889504330186     0.963960990019     1.007825032230
         H           -0.883714504443     0.434321330186     1.938709990019     1.007825032230
         H            1.781944495557    -0.229579669814     1.471412990019     1.007825032230
         H           -1.995783504443    -1.394812669814     0.965144990019     1.007825032230
         H            0.841770495557    -1.145484669814    -1.286595009981     1.007825032230
         H            1.804082495557    -2.099336669814    -0.123140009981     1.007825032230
         H           -0.394883504443     2.014167330186    -1.080297009981     1.007825032230
         H           -2.343539504443     0.978748330186    -0.336701009981     1.007825032230
         H            2.397868495557     0.937347330186    -0.989430009981     1.007825032230
         H           -1.997473504443    -1.674208669814    -1.275122009981     1.007825032230

  Basis Set: AUG-CC-PVTZ
    Blend: AUG-CC-PVTZ
  Basis Set: (AUG-CC-PVTZ AUX)
    Blend: AUG-CC-PVTZ-JKFIT
	 Reference Energy          =    -569.6755704050675604 [Eh]
	 Singles Energy            =      -0.0000000000000000 [Eh]
	 Same-Spin Energy          =      -0.5543425852086252 [Eh]
	 Opposite-Spin Energy      =      -1.7031934538610083 [Eh]
	 Correlation Energy        =      -2.2575360390696337 [Eh]
	 Total Energy              =    -571.9331064441371382 [Eh]

	 ================> DF-SCS-MP2 Energies <==================
	-----------------------------------------------------------
	 SCS Same-Spin Scale       =       0.3333333333333333 [-]
	 SCS Opposite-Spin Scale   =       1.2000000000000000 [-]
	 SCS Same-Spin Energy      =      -0.1847808617362084 [Eh]
	 SCS Opposite-Spin Energy  =      -2.0438321446332099 [Eh]
	 SCS Correlation Energy    =      -2.2286130063694185 [Eh]
	 SCS Total Energy          =    -571.9041834114369749 [Eh]
	-----------------------------------------------------------

  Dipole Moment: [D]
     X:    -2.2417      Y:    -0.9420      Z:    -0.2213     Total:     2.4416

*** Psi4 exiting successfully. Buy a developer a beer!
