                               Psi4 1.4a3.dev225

  ==> Input File <==

--------------------------------------------------------------------------
#psi4
#
memory 32 gb

molecule  {
0 1
  O       -0.2343850     1.7978400    -0.4145210
  O        0.4791390    -1.3900560     0.9851260
  O       -1.8902550    -1.4798720    -0.4079610
  O        2.7489250    -0.2990660     0.0843650
  O       -1.6766260     0.6849030     1.0797040
  C        0.4758930    -0.9871420    -0.3839460
  C       -0.9153110    -0.5160320    -0.8112700
  C        1.5148540     0.1205520    -0.4811210
  C       -1.2794180     0.8705190    -0.2725550
  C        0.9983735     1.3528900     0.2033308
  H        0.7732420    -1.8350180    -1.0199460
  H       -0.9367810    -0.4539690    -1.9062570
  H        1.7061480     0.3550680    -1.5342930
  H       -2.1075740     1.2945610    -0.8542440
  H        0.8333730     1.1741050     1.2776920
  H        1.6908660     2.1982840     0.0933200
  H       -0.2684360    -2.0097880     1.0741120
  H       -2.2907410    -1.1048270     0.4011470
  H        2.5001980    -0.8049050     0.8819700
  H       -2.0397460     1.5332780     1.3914430
units angstrom
no_reorient  #important for SAPT in psi4, default
symmetry c1  #important for SAPT in psi4, default
}

set PROPERTIES_ORIGIN ["COM"]
properties('MP2/aug-cc-pvtz', properties = ['dipole'])
--------------------------------------------------------------------------

    Molecular point group: c1
  Charge       = 0
  Multiplicity = 1
  Basis Set: AUG-CC-PVTZ
    Blend: AUG-CC-PVTZ
  Basis Set: (AUG-CC-PVTZ AUX)
    Blend: AUG-CC-PVTZ-JKFIT

    Orbital Energies [Eh]
    ---------------------

    Doubly Occupied:

       1A    -20.591705     2A    -20.581034     3A    -20.575258
       4A    -20.570236     5A    -20.559208     6A    -11.354440
       7A    -11.299747     8A    -11.291492     9A    -11.285998
      10A    -11.279465    11A     -1.437355    12A     -1.391046
      13A     -1.375470    14A     -1.353225    15A     -1.347926
      16A     -1.059645    17A     -1.023711    18A     -0.899158
      19A     -0.869953    20A     -0.798285    21A     -0.751834
      22A     -0.727097    23A     -0.711454    24A     -0.695885
      25A     -0.668232    26A     -0.648276    27A     -0.620679
      28A     -0.614805    29A     -0.601129    30A     -0.584150
      31A     -0.572704    32A     -0.556423    33A     -0.543049
      34A     -0.515546    35A     -0.502119    36A     -0.490034
      37A     -0.487701    38A     -0.470065    39A     -0.441561
      40A     -0.418953

  @DF-RHF Final Energy:  -569.67367589118248

   => Energetics <=

    Nuclear Repulsion Energy =            633.3905580071440227
    One-Electron Energy =               -2040.9963586239655342
    Two-Electron Energy =                 837.9321247256389142
    Total Energy =                       -569.6736758911824836
  Basis Set: (AUG-CC-PVTZ AUX)
    Blend: AUG-CC-PVTZ-RI
    Molecular point group: c1

    Geometry (in Angstrom), charge = 0, multiplicity = 1:

       Center              X                  Y                   Z               Mass
    ------------   -----------------  -----------------  -----------------  -----------------
         O           -0.235876732955     1.801422601815    -0.415036448083    15.994914619570
         O            0.477647267045    -1.386473398185     0.984610551917    15.994914619570
         O           -1.891746732955    -1.476289398185    -0.408476448083    15.994914619570
         O            2.747433267045    -0.295483398185     0.083849551917    15.994914619570
         O           -1.678117732955     0.688485601815     1.079188551917    15.994914619570
         C            0.474401267045    -0.983559398185    -0.384461448083    12.000000000000
         C           -0.916802732955    -0.512449398185    -0.811785448083    12.000000000000
         C            1.513362267045     0.124134601815    -0.481636448083    12.000000000000
         C           -1.280909732955     0.874101601815    -0.273070448083    12.000000000000
         C            0.996881767045     1.356472601815     0.202815351917    12.000000000000
         H            0.771750267045    -1.831435398185    -1.020461448083     1.007825032230
         H           -0.938272732955    -0.450386398185    -1.906772448083     1.007825032230
         H            1.704656267045     0.358650601815    -1.534808448083     1.007825032230
         H           -2.109065732955     1.298143601815    -0.854759448083     1.007825032230
         H            0.831881267045     1.177687601815     1.277176551917     1.007825032230
         H            1.689374267045     2.201866601815     0.092804551917     1.007825032230
         H           -0.269927732955    -2.006205398185     1.073596551917     1.007825032230
         H           -2.292232732955    -1.101244398185     0.400631551917     1.007825032230
         H            2.498706267045    -0.801322398185     0.881454551917     1.007825032230
         H           -2.041237732955     1.536860601815     1.390927551917     1.007825032230

  Basis Set: AUG-CC-PVTZ
    Blend: AUG-CC-PVTZ
  Basis Set: (AUG-CC-PVTZ AUX)
    Blend: AUG-CC-PVTZ-JKFIT
	 Reference Energy          =    -569.6736758911824836 [Eh]
	 Singles Energy            =      -0.0000000000000000 [Eh]
	 Same-Spin Energy          =      -0.5547066808860396 [Eh]
	 Opposite-Spin Energy      =      -1.7042631823043739 [Eh]
	 Correlation Energy        =      -2.2589698631904134 [Eh]
	 Total Energy              =    -571.9326457543728566 [Eh]

	 ================> DF-SCS-MP2 Energies <==================
	-----------------------------------------------------------
	 SCS Same-Spin Scale       =       0.3333333333333333 [-]
	 SCS Opposite-Spin Scale   =       1.2000000000000000 [-]
	 SCS Same-Spin Energy      =      -0.1849022269620132 [Eh]
	 SCS Opposite-Spin Energy  =      -2.0451158187652485 [Eh]
	 SCS Correlation Energy    =      -2.2300180457272618 [Eh]
	 SCS Total Energy          =    -571.9036939369096899 [Eh]
	-----------------------------------------------------------

  Dipole Moment: [D]
     X:    -2.2757      Y:     0.9452      Z:     0.3923     Total:     2.4953

*** Psi4 exiting successfully. Buy a developer a beer!
