                               Psi4 1.3.2 release

  ==> Input File <==

--------------------------------------------------------------------------
#psi4
#
memory 32 gb

molecule  {
0 1
  O       -0.1082523    -1.8007442     0.4655924
  O        0.3584290     1.3939840    -1.0246780
  O       -1.9551560     1.3713260     0.4690830
  O        2.7148150     0.4505790    -0.2056670
  O       -1.6716310    -0.8002260    -0.9984850
  C        0.4315910     1.0135520     0.3497470
  C       -0.9093320     0.4742750     0.8400700
  C        1.5345100    -0.0288940     0.4204030
  C       -1.2151430    -0.9364420     0.3397180
  C        1.0549700    -1.3167000    -0.2286510
  H        0.7042560     1.8874530     0.9605880
  H       -0.8818830     0.4322700     1.9353370
  H        1.7837760    -0.2316310     1.4680400
  H       -1.9939520    -1.3968640     0.9617720
  H        0.8526266    -1.1446661    -1.2912648
  H        1.8059140    -2.1013880    -0.1265130
  H       -0.3930520     2.0121160    -1.0836700
  H       -2.3417080     0.9766970    -0.3400740
  H        2.3997000     0.9352960    -0.9928030
  H       -1.9956420    -1.6762600    -1.2784950
units angstrom
no_reorient  #important for SAPT in psi4, default
symmetry c1  #important for SAPT in psi4, default
}

set PROPERTIES_ORIGIN ["COM"]
properties('MP2/aug-cc-pvtz', properties = ['dipole'])
--------------------------------------------------------------------------

    Molecular point group: c1
  Charge       = 0
  Multiplicity = 1
  Basis Set: AUG-CC-PVTZ
    Blend: AUG-CC-PVTZ
  Basis Set: (AUG-CC-PVTZ AUX)
    Blend: AUG-CC-PVTZ-JKFIT

    Orbital Energies [Eh]
    ---------------------

    Doubly Occupied:

       1A    -20.592673     2A    -20.581308     3A    -20.574718
       4A    -20.571224     5A    -20.557997     6A    -11.354489
       7A    -11.298475     8A    -11.290971     9A    -11.285248
      10A    -11.277876    11A     -1.437757    12A     -1.391330
      13A     -1.375621    14A     -1.354231    15A     -1.347635
      16A     -1.058897    17A     -1.022586    18A     -0.898876
      19A     -0.869400    20A     -0.798382    21A     -0.752578
      22A     -0.727696    23A     -0.711233    24A     -0.696029
      25A     -0.669600    26A     -0.646137    27A     -0.621188
      28A     -0.613722    29A     -0.602708    30A     -0.584361
      31A     -0.571555    32A     -0.555853    33A     -0.542686
      34A     -0.516249    35A     -0.502637    36A     -0.491233
      37A     -0.487974    38A     -0.472132    39A     -0.440561
      40A     -0.415641

  @DF-RHF Final Energy:  -569.67408786800036

   => Energetics <=

    Nuclear Repulsion Energy =            633.6574225092676897
    One-Electron Energy =               -2041.5400778983291730
    Two-Electron Energy =                 838.2085675210611271
    Total Energy =                       -569.6740878680003561
  Basis Set: (AUG-CC-PVTZ AUX)
    Blend: AUG-CC-PVTZ-RI
    Molecular point group: c1

    Geometry (in Angstrom), charge = 0, multiplicity = 1:

       Center              X                  Y                   Z               Mass
    ------------   -----------------  -----------------  -----------------  -----------------
         O           -0.109007761010    -1.800715453445     0.464458566270    15.994914619570
         O            0.357673538990     1.394012746555    -1.025811833730    15.994914619570
         O           -1.955911461010     1.371354746555     0.467949166270    15.994914619570
         O            2.714059538990     0.450607746555    -0.206800833730    15.994914619570
         O           -1.672386461010    -0.800197253445    -0.999618833730    15.994914619570
         C            0.430835538990     1.013580746555     0.348613166270    12.000000000000
         C           -0.910087461010     0.474303746555     0.838936166270    12.000000000000
         C            1.533754538990    -0.028865253445     0.419269166270    12.000000000000
         C           -1.215898461010    -0.936413253445     0.338584166270    12.000000000000
         C            1.054214538990    -1.316671253445    -0.229784833730    12.000000000000
         H            0.703500538990     1.887481746555     0.959454166270     1.007825032230
         H           -0.882638461010     0.432298746555     1.934203166270     1.007825032230
         H            1.783020538990    -0.231602253445     1.466906166270     1.007825032230
         H           -1.994707461010    -1.396835253445     0.960638166270     1.007825032230
         H            0.851871138990    -1.144637353445    -1.292398633730     1.007825032230
         H            1.805158538990    -2.101359253445    -0.127646833730     1.007825032230
         H           -0.393807461010     2.012144746555    -1.084803833730     1.007825032230
         H           -2.342463461010     0.976725746555    -0.341207833730     1.007825032230
         H            2.398944538990     0.935324746555    -0.993936833730     1.007825032230
         H           -1.996397461010    -1.676231253445    -1.279628833730     1.007825032230

  Basis Set: AUG-CC-PVTZ
    Blend: AUG-CC-PVTZ
  Basis Set: (AUG-CC-PVTZ AUX)
    Blend: AUG-CC-PVTZ-JKFIT
	 Reference Energy          =    -569.6740878680003561 [Eh]
	 Singles Energy            =      -0.0000000000000000 [Eh]
	 Same-Spin Energy          =      -0.5546981214478319 [Eh]
	 Opposite-Spin Energy      =      -1.7041794905564207 [Eh]
	 Correlation Energy        =      -2.2588776120042526 [Eh]
	 Total Energy              =    -571.9329654800045546 [Eh]

	 ================> DF-SCS-MP2 Energies <==================
	-----------------------------------------------------------
	 SCS Same-Spin Scale       =       0.3333333333333333 [-]
	 SCS Opposite-Spin Scale   =       1.2000000000000000 [-]
	 SCS Same-Spin Energy      =      -0.1848993738159440 [Eh]
	 SCS Opposite-Spin Energy  =      -2.0450153886677049 [Eh]
	 SCS Correlation Energy    =      -2.2299147624836491 [Eh]
	 SCS Total Energy          =    -571.9040026304840012 [Eh]
	-----------------------------------------------------------

  Dipole Moment: [D]
     X:    -2.2113      Y:    -0.9926      Z:    -0.3235     Total:     2.4453

*** Psi4 exiting successfully. Buy a developer a beer!
