                               Psi4 1.3.2 release

  ==> Input File <==

--------------------------------------------------------------------------
#psi4
#
memory 32 gb

molecule  {
0 1
  O       -0.1147700    -1.8002930     0.4548730
  O        0.3584290     1.3939840    -1.0246780
  O       -1.9551560     1.3713260     0.4690830
  O        2.7148150     0.4505790    -0.2056670
  O       -1.6716310    -0.8002260    -0.9984850
  C        0.4315910     1.0135520     0.3497470
  C       -0.9093320     0.4742750     0.8400700
  C        1.5345100    -0.0288940     0.4204030
  C       -1.2151430    -0.9364420     0.3397180
  C        1.0549700    -1.3167000    -0.2286510
  H        0.7042560     1.8874530     0.9605880
  H       -0.8818830     0.4322700     1.9353370
  H        1.7837760    -0.2316310     1.4680400
  H       -1.9939520    -1.3968640     0.9617720
  H        0.8436020    -1.1475360    -1.2899680
  H        1.8059140    -2.1013880    -0.1265130
  H       -0.3930520     2.0121160    -1.0836700
  H       -2.3417080     0.9766970    -0.3400740
  H        2.3351698     1.0345579    -1.1539952
  H       -1.9956420    -1.6762600    -1.2784950
units angstrom
no_reorient  #important for SAPT in psi4, default
symmetry c1  #important for SAPT in psi4, default
}

set PROPERTIES_ORIGIN ["COM"]
properties('MP2/aug-cc-pvtz', properties = ['dipole'])
--------------------------------------------------------------------------

    Molecular point group: c1
  Charge       = 0
  Multiplicity = 1
  Basis Set: AUG-CC-PVTZ
    Blend: AUG-CC-PVTZ
  Basis Set: (AUG-CC-PVTZ AUX)
    Blend: AUG-CC-PVTZ-JKFIT

    Orbital Energies [Eh]
    ---------------------

    Doubly Occupied:

       1A    -20.591404     2A    -20.579611     3A    -20.574561
       4A    -20.574257     5A    -20.566162     6A    -11.353395
       7A    -11.298099     8A    -11.290657     9A    -11.282954
      10A    -11.276392    11A     -1.438091    12A     -1.390572
      13A     -1.371181    14A     -1.353123    15A     -1.321448
      16A     -1.055424    17A     -1.019220    18A     -0.897800
      19A     -0.864241    20A     -0.791550    21A     -0.751118
      22A     -0.725388    23A     -0.711228    24A     -0.693774
      25A     -0.663098    26A     -0.631136    27A     -0.617729
      28A     -0.610278    29A     -0.601364    30A     -0.580907
      31A     -0.569276    32A     -0.551447    33A     -0.539444
      34A     -0.510590    35A     -0.501594    36A     -0.490064
      37A     -0.482747    38A     -0.466216    39A     -0.438924
      40A     -0.413204

  @DF-RHF Final Energy:  -569.63940441332943

   => Energetics <=

    Nuclear Repulsion Energy =            632.9353013008974358
    One-Electron Energy =               -2040.2700801917167155
    Two-Electron Energy =                 837.6953744774898496
    Total Energy =                       -569.6394044133294301
  Basis Set: (AUG-CC-PVTZ AUX)
    Blend: AUG-CC-PVTZ-RI
    Molecular point group: c1

    Geometry (in Angstrom), charge = 0, multiplicity = 1:

       Center              X                  Y                   Z               Mass
    ------------   -----------------  -----------------  -----------------  -----------------
         O           -0.114336676823    -1.800959763024     0.455955735521    15.994914619570
         O            0.358862323177     1.393317236976    -1.023595264479    15.994914619570
         O           -1.954722676823     1.370659236976     0.470165735521    15.994914619570
         O            2.715248323177     0.449912236976    -0.204584264479    15.994914619570
         O           -1.671197676823    -0.800892763024    -0.997402264479    15.994914619570
         C            0.432024323177     1.012885236976     0.350829735521    12.000000000000
         C           -0.908898676823     0.473608236976     0.841152735521    12.000000000000
         C            1.534943323177    -0.029560763024     0.421485735521    12.000000000000
         C           -1.214709676823    -0.937108763024     0.340800735521    12.000000000000
         C            1.055403323177    -1.317366763024    -0.227568264479    12.000000000000
         H            0.704689323177     1.886786236976     0.961670735521     1.007825032230
         H           -0.881449676823     0.431603236976     1.936419735521     1.007825032230
         H            1.784209323177    -0.232297763024     1.469122735521     1.007825032230
         H           -1.993518676823    -1.397530763024     0.962854735521     1.007825032230
         H            0.844035323177    -1.148202763024    -1.288885264479     1.007825032230
         H            1.806347323177    -2.102054763024    -0.125430264479     1.007825032230
         H           -0.392618676823     2.011449236976    -1.082587264479     1.007825032230
         H           -2.341274676823     0.976030236976    -0.338991264479     1.007825032230
         H            2.335603123177     1.033891136976    -1.152912464479     1.007825032230
         H           -1.995208676823    -1.676926763024    -1.277412264479     1.007825032230

  Basis Set: AUG-CC-PVTZ
    Blend: AUG-CC-PVTZ
  Basis Set: (AUG-CC-PVTZ AUX)
    Blend: AUG-CC-PVTZ-JKFIT
	 Reference Energy          =    -569.6394044133294301 [Eh]
	 Singles Energy            =      -0.0000000000000000 [Eh]
	 Same-Spin Energy          =      -0.5573430470873942 [Eh]
	 Opposite-Spin Energy      =      -1.7107155640097274 [Eh]
	 Correlation Energy        =      -2.2680586110971217 [Eh]
	 Total Energy              =    -571.9074630244265336 [Eh]

	 ================> DF-SCS-MP2 Energies <==================
	-----------------------------------------------------------
	 SCS Same-Spin Scale       =       0.3333333333333333 [-]
	 SCS Opposite-Spin Scale   =       1.2000000000000000 [-]
	 SCS Same-Spin Energy      =      -0.1857810156957981 [Eh]
	 SCS Opposite-Spin Energy  =      -2.0528586768116726 [Eh]
	 SCS Correlation Energy    =      -2.2386396925074705 [Eh]
	 SCS Total Energy          =    -571.8780441058369206 [Eh]
	-----------------------------------------------------------

  Dipole Moment: [D]
     X:    -2.2751      Y:    -0.8516      Z:    -0.4615     Total:     2.4728

*** Psi4 exiting successfully. Buy a developer a beer!
