                               Psi4 1.3.2 release

  ==> Input File <==

--------------------------------------------------------------------------
#psi4
#
memory 32 gb

molecule  {
0 1
  O       -0.1147700    -1.8002930     0.4548730
  O        0.3584290     1.3939840    -1.0246780
  O       -1.9551560     1.3713260     0.4690830
  O        2.7148150     0.4505790    -0.2056670
  O       -1.6716310    -0.8002260    -0.9984850
  C        0.4315910     1.0135520     0.3497470
  C       -0.8911923     0.4769565     0.8207124
  C        1.5345100    -0.0288940     0.4204030
  C       -1.2151430    -0.9364420     0.3397180
  C        1.0549700    -1.3167000    -0.2286510
  H        0.7042560     1.8874530     0.9605880
  H       -0.8818830     0.4322700     1.9353370
  H        1.7837760    -0.2316310     1.4680400
  H       -1.9929438    -1.4126949     0.9510217
  H        0.8436020    -1.1475360    -1.2899680
  H        1.8059140    -2.1013880    -0.1265130
  H       -0.3930520     2.0121160    -1.0836700
  H       -2.3417080     0.9766970    -0.3400740
  H        2.3997000     0.9352960    -0.9928030
  H       -1.9956420    -1.6762600    -1.2784950
units angstrom
no_reorient  #important for SAPT in psi4, default
symmetry c1  #important for SAPT in psi4, default
}

set PROPERTIES_ORIGIN ["COM"]
properties('MP2/aug-cc-pvtz', properties = ['dipole'])
--------------------------------------------------------------------------

    Molecular point group: c1
  Charge       = 0
  Multiplicity = 1
  Basis Set: AUG-CC-PVTZ
    Blend: AUG-CC-PVTZ
  Basis Set: (AUG-CC-PVTZ AUX)
    Blend: AUG-CC-PVTZ-JKFIT

    Orbital Energies [Eh]
    ---------------------

    Doubly Occupied:

       1A    -20.590999     2A    -20.580504     3A    -20.574194
       4A    -20.571398     5A    -20.558849     6A    -11.354361
       7A    -11.299226     8A    -11.291170     9A    -11.286389
      10A    -11.278426    11A     -1.438889    12A     -1.391962
      13A     -1.374854    14A     -1.353536    15A     -1.347875
      16A     -1.062514    17A     -1.022811    18A     -0.899444
      19A     -0.870682    20A     -0.797528    21A     -0.752859
      22A     -0.728832    23A     -0.711623    24A     -0.695403
      25A     -0.670882    26A     -0.645741    27A     -0.621387
      28A     -0.614921    29A     -0.602209    30A     -0.583650
      31A     -0.571219    32A     -0.556218    33A     -0.541935
      34A     -0.514584    35A     -0.502052    36A     -0.491455
      37A     -0.486771    38A     -0.472045    39A     -0.444590
      40A     -0.416837

  @DF-RHF Final Energy:  -569.67312524327201

   => Energetics <=

    Nuclear Repulsion Energy =            634.2215786822011978
    One-Electron Energy =               -2042.6477589815469855
    Two-Electron Energy =                 838.7530550560737765
    Total Energy =                       -569.6731252432720112
  Basis Set: (AUG-CC-PVTZ AUX)
    Blend: AUG-CC-PVTZ-RI
    Molecular point group: c1

    Geometry (in Angstrom), charge = 0, multiplicity = 1:

       Center              X                  Y                   Z               Mass
    ------------   -----------------  -----------------  -----------------  -----------------
         O           -0.116227528548    -1.800401190363     0.456493360109    15.994914619570
         O            0.356971471452     1.393875809637    -1.023057639891    15.994914619570
         O           -1.956613528548     1.371217809637     0.470703360109    15.994914619570
         O            2.713357471452     0.450470809637    -0.204046639891    15.994914619570
         O           -1.673088528548    -0.800334190363    -0.996864639891    15.994914619570
         C            0.430133471452     1.013443809637     0.351367360109    12.000000000000
         C           -0.892649828548     0.476848309637     0.822332760109    12.000000000000
         C            1.533052471452    -0.029002190363     0.422023360109    12.000000000000
         C           -1.216600528548    -0.936550190363     0.341338360109    12.000000000000
         C            1.053512471452    -1.316808190363    -0.227030639891    12.000000000000
         H            0.702798471452     1.887344809637     0.962208360109     1.007825032230
         H           -0.883340528548     0.432161809637     1.936957360109     1.007825032230
         H            1.782318471452    -0.231739190363     1.469660360109     1.007825032230
         H           -1.994401328548    -1.412803090363     0.952642060109     1.007825032230
         H            0.842144471452    -1.147644190363    -1.288347639891     1.007825032230
         H            1.804456471452    -2.101496190363    -0.124892639891     1.007825032230
         H           -0.394509528548     2.012007809637    -1.082049639891     1.007825032230
         H           -2.343165528548     0.976588809637    -0.338453639891     1.007825032230
         H            2.398242471452     0.935187809637    -0.991182639891     1.007825032230
         H           -1.997099528548    -1.676368190363    -1.276874639891     1.007825032230

  Basis Set: AUG-CC-PVTZ
    Blend: AUG-CC-PVTZ
  Basis Set: (AUG-CC-PVTZ AUX)
    Blend: AUG-CC-PVTZ-JKFIT
	 Reference Energy          =    -569.6731252432720112 [Eh]
	 Singles Energy            =      -0.0000000000000000 [Eh]
	 Same-Spin Energy          =      -0.5548467582548342 [Eh]
	 Opposite-Spin Energy      =      -1.7043276270265770 [Eh]
	 Correlation Energy        =      -2.2591743852814110 [Eh]
	 Total Energy              =    -571.9322996285534373 [Eh]

	 ================> DF-SCS-MP2 Energies <==================
	-----------------------------------------------------------
	 SCS Same-Spin Scale       =       0.3333333333333333 [-]
	 SCS Opposite-Spin Scale   =       1.2000000000000000 [-]
	 SCS Same-Spin Energy      =      -0.1849489194182781 [Eh]
	 SCS Opposite-Spin Energy  =      -2.0451931524318923 [Eh]
	 SCS Correlation Energy    =      -2.2301420718501701 [Eh]
	 SCS Total Energy          =    -571.9032673151222070 [Eh]
	-----------------------------------------------------------

  Dipole Moment: [D]
     X:    -2.1387      Y:    -1.0072      Z:    -0.3156     Total:     2.3849

*** Psi4 exiting successfully. Buy a developer a beer!
