                               Psi4 1.3.2 release

  ==> Input File <==

--------------------------------------------------------------------------
#psi4
#
memory 32 gb

molecule  {
0 1
  O       -0.1147700    -1.8002930     0.4548730
  O        0.3584290     1.3939840    -1.0246780
  O       -1.9551560     1.3713260     0.4690830
  O        2.7148150     0.4505790    -0.2056670
  O       -1.6716310    -0.8002260    -0.9984850
  C        0.4313958     1.0141587     0.3629896
  C       -0.9093320     0.4742750     0.8400700
  C        1.5345100    -0.0288940     0.4204030
  C       -1.2151430    -0.9364420     0.3397180
  C        1.0549700    -1.3167000    -0.2286510
  H        0.7042560     1.8874530     0.9605880
  H       -0.8818830     0.4322700     1.9353370
  H        1.7771718    -0.2252877     1.4707952
  H       -1.9939520    -1.3968640     0.9617720
  H        0.8436020    -1.1475360    -1.2899680
  H        1.8059140    -2.1013880    -0.1265130
  H       -0.3930520     2.0121160    -1.0836700
  H       -2.3417080     0.9766970    -0.3400740
  H        2.3997000     0.9352960    -0.9928030
  H       -1.9956420    -1.6762600    -1.2784950
units angstrom
no_reorient  #important for SAPT in psi4, default
symmetry c1  #important for SAPT in psi4, default
}

set PROPERTIES_ORIGIN ["COM"]
properties('MP2/aug-cc-pvtz', properties = ['dipole'])
--------------------------------------------------------------------------

    Molecular point group: c1
  Charge       = 0
  Multiplicity = 1
  Basis Set: AUG-CC-PVTZ
    Blend: AUG-CC-PVTZ
  Basis Set: (AUG-CC-PVTZ AUX)
    Blend: AUG-CC-PVTZ-JKFIT

    Orbital Energies [Eh]
    ---------------------

    Doubly Occupied:

       1A    -20.591595     2A    -20.580880     3A    -20.574740
       4A    -20.569726     5A    -20.558506     6A    -11.354219
       7A    -11.298669     8A    -11.290889     9A    -11.286030
      10A    -11.278461    11A     -1.438683    12A     -1.389015
      13A     -1.375518    14A     -1.353981    15A     -1.345751
      16A     -1.060217    17A     -1.023201    18A     -0.899428
      19A     -0.870659    20A     -0.797370    21A     -0.751959
      22A     -0.727860    23A     -0.711894    24A     -0.695583
      25A     -0.668455    26A     -0.646389    27A     -0.621254
      28A     -0.612933    29A     -0.603001    30A     -0.584818
      31A     -0.571874    32A     -0.556327    33A     -0.541360
      34A     -0.515231    35A     -0.502858    36A     -0.490754
      37A     -0.487690    38A     -0.471602    39A     -0.441745
      40A     -0.417172

  @DF-RHF Final Energy:  -569.67413131772742

   => Energetics <=

    Nuclear Repulsion Energy =            633.6846776816603324
    One-Electron Energy =               -2041.6010191262134867
    Two-Electron Energy =                 838.2422101268257393
    Total Energy =                       -569.6741313177274151
  Basis Set: (AUG-CC-PVTZ AUX)
    Blend: AUG-CC-PVTZ-RI
    Molecular point group: c1

    Geometry (in Angstrom), charge = 0, multiplicity = 1:

       Center              X                  Y                   Z               Mass
    ------------   -----------------  -----------------  -----------------  -----------------
         O           -0.114710124463    -1.800384197106     0.453795552952    15.994914619570
         O            0.358488875537     1.393892802894    -1.025755447048    15.994914619570
         O           -1.955096124463     1.371234802894     0.468005552952    15.994914619570
         O            2.714874875537     0.450487802894    -0.206744447048    15.994914619570
         O           -1.671571124463    -0.800317197106    -0.999562447048    15.994914619570
         C            0.431455675537     1.014067502894     0.361912152952    12.000000000000
         C           -0.909272124463     0.474183802894     0.838992552952    12.000000000000
         C            1.534569875537    -0.028985197106     0.419325552952    12.000000000000
         C           -1.215083124463    -0.936533197106     0.338640552952    12.000000000000
         C            1.055029875537    -1.316791197106    -0.229728447048    12.000000000000
         H            0.704315875537     1.887361802894     0.959510552952     1.007825032230
         H           -0.881823124463     0.432178802894     1.934259552952     1.007825032230
         H            1.777231675537    -0.225378897106     1.469717752952     1.007825032230
         H           -1.993892124463    -1.396955197106     0.960694552952     1.007825032230
         H            0.843661875537    -1.147627197106    -1.291045447048     1.007825032230
         H            1.805973875537    -2.101479197106    -0.127590447048     1.007825032230
         H           -0.392992124463     2.012024802894    -1.084747447048     1.007825032230
         H           -2.341648124463     0.976605802894    -0.341151447048     1.007825032230
         H            2.399759875537     0.935204802894    -0.993880447048     1.007825032230
         H           -1.995582124463    -1.676351197106    -1.279572447048     1.007825032230

  Basis Set: AUG-CC-PVTZ
    Blend: AUG-CC-PVTZ
  Basis Set: (AUG-CC-PVTZ AUX)
    Blend: AUG-CC-PVTZ-JKFIT
	 Reference Energy          =    -569.6741313177274151 [Eh]
	 Singles Energy            =      -0.0000000000000000 [Eh]
	 Same-Spin Energy          =      -0.5546488971119491 [Eh]
	 Opposite-Spin Energy      =      -1.7041351405985268 [Eh]
	 Correlation Energy        =      -2.2587840377104760 [Eh]
	 Total Energy              =    -571.9329153554378991 [Eh]

	 ================> DF-SCS-MP2 Energies <==================
	-----------------------------------------------------------
	 SCS Same-Spin Scale       =       0.3333333333333333 [-]
	 SCS Opposite-Spin Scale   =       1.2000000000000000 [-]
	 SCS Same-Spin Energy      =      -0.1848829657039830 [Eh]
	 SCS Opposite-Spin Energy  =      -2.0449621687182322 [Eh]
	 SCS Correlation Energy    =      -2.2298451344222152 [Eh]
	 SCS Total Energy          =    -571.9039764521496636 [Eh]
	-----------------------------------------------------------

  Dipole Moment: [D]
     X:    -2.1788      Y:    -1.0016      Z:    -0.2657     Total:     2.4127

*** Psi4 exiting successfully. Buy a developer a beer!
