                               Psi4 1.3.2 release

  ==> Input File <==

--------------------------------------------------------------------------
#psi4
#
memory 32 gb

molecule  {
0 1
  O       -0.1147700    -1.8002930     0.4548730
  O        0.3584290     1.3939840    -1.0246780
  O       -1.9551560     1.3713260     0.4690830
  O        2.6911414     0.4928737    -0.2159462
  O       -1.6716310    -0.8002260    -0.9984850
  C        0.4649067     1.0456988     0.3238872
  C       -0.9093320     0.4742750     0.8400700
  C        1.5345100    -0.0288940     0.4204030
  C       -1.2151430    -0.9364420     0.3397180
  C        1.0549700    -1.3167000    -0.2286510
  H        0.7042560     1.8874530     0.9605880
  H       -0.8818830     0.4322700     1.9353370
  H        1.7837760    -0.2316310     1.4680400
  H       -1.9939520    -1.3968640     0.9617720
  H        0.8436020    -1.1475360    -1.2899680
  H        1.8059140    -2.1013880    -0.1265130
  H       -0.3930520     2.0121160    -1.0836700
  H       -2.3417080     0.9766970    -0.3400740
  H        2.3997000     0.9352960    -0.9928030
  H       -1.9956420    -1.6762600    -1.2784950
units angstrom
no_reorient  #important for SAPT in psi4, default
symmetry c1  #important for SAPT in psi4, default
}

set PROPERTIES_ORIGIN ["COM"]
properties('MP2/aug-cc-pvtz', properties = ['dipole'])
--------------------------------------------------------------------------

    Molecular point group: c1
  Charge       = 0
  Multiplicity = 1
  Basis Set: AUG-CC-PVTZ
    Blend: AUG-CC-PVTZ
  Basis Set: (AUG-CC-PVTZ AUX)
    Blend: AUG-CC-PVTZ-JKFIT

    Orbital Energies [Eh]
    ---------------------

    Doubly Occupied:

       1A    -20.590945     2A    -20.580712     3A    -20.573236
       4A    -20.572707     5A    -20.552477     6A    -11.352888
       7A    -11.296484     8A    -11.288965     9A    -11.285472
      10A    -11.279277    11A     -1.438192    12A     -1.399470
      13A     -1.376263    14A     -1.354988    15A     -1.352906
      16A     -1.052433    17A     -1.021487    18A     -0.899701
      19A     -0.867350    20A     -0.801586    21A     -0.751968
      22A     -0.730675    23A     -0.711554    24A     -0.697368
      25A     -0.672831    26A     -0.649442    27A     -0.620733
      28A     -0.617913    29A     -0.601851    30A     -0.585742
      31A     -0.570575    32A     -0.555878    33A     -0.546371
      34A     -0.516881    35A     -0.502470    36A     -0.491774
      37A     -0.487541    38A     -0.471720    39A     -0.428972
      40A     -0.415559

  @DF-RHF Final Energy:  -569.67380579339329

   => Energetics <=

    Nuclear Repulsion Energy =            633.9864100914202254
    One-Electron Energy =               -2042.1897185139571320
    Two-Electron Energy =                 838.5295026291435079
    Total Energy =                       -569.6738057933932851
  Basis Set: (AUG-CC-PVTZ AUX)
    Blend: AUG-CC-PVTZ-RI
    Molecular point group: c1

    Geometry (in Angstrom), charge = 0, multiplicity = 1:

       Center              X                  Y                   Z               Mass
    ------------   -----------------  -----------------  -----------------  -----------------
         O           -0.114910916868    -1.807372325386     0.458036862588    15.994914619570
         O            0.358288083132     1.386904674614    -1.021514137412    15.994914619570
         O           -1.955296916868     1.364246674614     0.472246862588    15.994914619570
         O            2.691000483132     0.485794374614    -0.212782337412    15.994914619570
         O           -1.671771916868    -0.807305325386    -0.995321137412    15.994914619570
         C            0.464765783132     1.038619474614     0.327051062588    12.000000000000
         C           -0.909472916868     0.467195674614     0.843233862588    12.000000000000
         C            1.534369083132    -0.035973325386     0.423566862588    12.000000000000
         C           -1.215283916868    -0.943521325386     0.342881862588    12.000000000000
         C            1.054829083132    -1.323779325386    -0.225487137412    12.000000000000
         H            0.704115083132     1.880373674614     0.963751862588     1.007825032230
         H           -0.882023916868     0.425190674614     1.938500862588     1.007825032230
         H            1.783635083132    -0.238710325386     1.471203862588     1.007825032230
         H           -1.994092916868    -1.403943325386     0.964935862588     1.007825032230
         H            0.843461083132    -1.154615325386    -1.286804137412     1.007825032230
         H            1.805773083132    -2.108467325386    -0.123349137412     1.007825032230
         H           -0.393192916868     2.005036674614    -1.080506137412     1.007825032230
         H           -2.341848916868     0.969617674614    -0.336910137412     1.007825032230
         H            2.399559083132     0.928216674614    -0.989639137412     1.007825032230
         H           -1.995782916868    -1.683339325386    -1.275331137412     1.007825032230

  Basis Set: AUG-CC-PVTZ
    Blend: AUG-CC-PVTZ
  Basis Set: (AUG-CC-PVTZ AUX)
    Blend: AUG-CC-PVTZ-JKFIT
	 Reference Energy          =    -569.6738057933932851 [Eh]
	 Singles Energy            =      -0.0000000000000000 [Eh]
	 Same-Spin Energy          =      -0.5538832355799277 [Eh]
	 Opposite-Spin Energy      =      -1.7021033182441114 [Eh]
	 Correlation Energy        =      -2.2559865538240391 [Eh]
	 Total Energy              =    -571.9297923472173579 [Eh]

	 ================> DF-SCS-MP2 Energies <==================
	-----------------------------------------------------------
	 SCS Same-Spin Scale       =       0.3333333333333333 [-]
	 SCS Opposite-Spin Scale   =       1.2000000000000000 [-]
	 SCS Same-Spin Energy      =      -0.1846277451933092 [Eh]
	 SCS Opposite-Spin Energy  =      -2.0425239818929337 [Eh]
	 SCS Correlation Energy    =      -2.2271517270862429 [Eh]
	 SCS Total Energy          =    -571.9009575204795510 [Eh]
	-----------------------------------------------------------

  Dipole Moment: [D]
     X:    -2.1129      Y:    -1.0240      Z:    -0.3595     Total:     2.3753

*** Psi4 exiting successfully. Buy a developer a beer!
