                               Psi4 1.4a3.dev225

  ==> Input File <==

--------------------------------------------------------------------------
#psi4
#
memory 32 gb

molecule  {
0 1
  O       -0.2343850     1.7978400    -0.4145210
  O        0.4791390    -1.3900560     0.9851260
  O       -1.8902550    -1.4798720    -0.4079610
  O        2.7489250    -0.2990660     0.0843650
  O       -1.6766260     0.6849030     1.0797040
  C        0.4758930    -0.9871420    -0.3839460
  C       -0.9153110    -0.5160320    -0.8112700
  C        1.5148540     0.1205520    -0.4811210
  C       -1.2794180     0.8705190    -0.2725550
  C        0.9742918     1.4103495     0.2352444
  H        0.7732420    -1.8350180    -1.0199460
  H       -0.9367810    -0.4539690    -1.9062570
  H        1.7061480     0.3550680    -1.5342930
  H       -2.1075740     1.2945610    -0.8542440
  H        0.8333730     1.1741050     1.2776920
  H        1.6908660     2.1982840     0.0933200
  H       -0.2684360    -2.0097880     1.0741120
  H       -2.2907410    -1.1048270     0.4011470
  H        2.5001980    -0.8049050     0.8819700
  H       -2.0397460     1.5332780     1.3914430
units angstrom
no_reorient  #important for SAPT in psi4, default
symmetry c1  #important for SAPT in psi4, default
}

set PROPERTIES_ORIGIN ["COM"]
properties('MP2/aug-cc-pvtz', properties = ['dipole'])
--------------------------------------------------------------------------

    Molecular point group: c1
  Charge       = 0
  Multiplicity = 1
  Basis Set: AUG-CC-PVTZ
    Blend: AUG-CC-PVTZ
  Basis Set: (AUG-CC-PVTZ AUX)
    Blend: AUG-CC-PVTZ-JKFIT

    Orbital Energies [Eh]
    ---------------------

    Doubly Occupied:

       1A    -20.592914     2A    -20.581733     3A    -20.575236
       4A    -20.569593     5A    -20.557331     6A    -11.356059
       7A    -11.299531     8A    -11.290573     9A    -11.286616
      10A    -11.277768    11A     -1.440094    12A     -1.390754
      13A     -1.375654    14A     -1.355550    15A     -1.346238
      16A     -1.054724    17A     -1.020087    18A     -0.897504
      19A     -0.870474    20A     -0.797360    21A     -0.753653
      22A     -0.726436    23A     -0.714515    24A     -0.696136
      25A     -0.667272    26A     -0.645301    27A     -0.621955
      28A     -0.614402    29A     -0.602244    30A     -0.585295
      31A     -0.572722    32A     -0.556380    33A     -0.542525
      34A     -0.516204    35A     -0.505017    36A     -0.492361
      37A     -0.487798    38A     -0.472580    39A     -0.440082
      40A     -0.407472

  @DF-RHF Final Energy:  -569.67313241522379

   => Energetics <=

    Nuclear Repulsion Energy =            632.5453580650680578
    One-Electron Energy =               -2039.3246937298122248
    Two-Electron Energy =                 837.1062032495203766
    Total Energy =                       -569.6731324152237903
  Basis Set: (AUG-CC-PVTZ AUX)
    Blend: AUG-CC-PVTZ-RI
    Molecular point group: c1

    Geometry (in Angstrom), charge = 0, multiplicity = 1:

       Center              X                  Y                   Z               Mass
    ------------   -----------------  -----------------  -----------------  -----------------
         O           -0.233950875157     1.796827460022    -0.417588637314    15.994914619570
         O            0.479573124843    -1.391068539978     0.982058362686    15.994914619570
         O           -1.889820875157    -1.480884539978    -0.411028637314    15.994914619570
         O            2.749359124843    -0.300078539978     0.081297362686    15.994914619570
         O           -1.676191875157     0.683890460022     1.076636362686    15.994914619570
         C            0.476327124843    -0.988154539978    -0.387013637314    12.000000000000
         C           -0.914876875157    -0.517044539978    -0.814337637314    12.000000000000
         C            1.515288124843     0.119539460022    -0.484188637314    12.000000000000
         C           -1.278983875157     0.869506460022    -0.275622637314    12.000000000000
         C            0.974725924843     1.409336960022     0.232176762686    12.000000000000
         H            0.773676124843    -1.836030539978    -1.023013637314     1.007825032230
         H           -0.936346875157    -0.454981539978    -1.909324637314     1.007825032230
         H            1.706582124843     0.354055460022    -1.537360637314     1.007825032230
         H           -2.107139875157     1.293548460022    -0.857311637314     1.007825032230
         H            0.833807124843     1.173092460022     1.274624362686     1.007825032230
         H            1.691300124843     2.197271460022     0.090252362686     1.007825032230
         H           -0.268001875157    -2.010800539978     1.071044362686     1.007825032230
         H           -2.290306875157    -1.105839539978     0.398079362686     1.007825032230
         H            2.500632124843    -0.805917539978     0.878902362686     1.007825032230
         H           -2.039311875157     1.532265460022     1.388375362686     1.007825032230

  Basis Set: AUG-CC-PVTZ
    Blend: AUG-CC-PVTZ
  Basis Set: (AUG-CC-PVTZ AUX)
    Blend: AUG-CC-PVTZ-JKFIT
	 Reference Energy          =    -569.6731324152237903 [Eh]
	 Singles Energy            =      -0.0000000000000000 [Eh]
	 Same-Spin Energy          =      -0.5542198947110480 [Eh]
	 Opposite-Spin Energy      =      -1.7035402377241757 [Eh]
	 Correlation Energy        =      -2.2577601324352239 [Eh]
	 Total Energy              =    -571.9308925476590275 [Eh]

	 ================> DF-SCS-MP2 Energies <==================
	-----------------------------------------------------------
	 SCS Same-Spin Scale       =       0.3333333333333333 [-]
	 SCS Opposite-Spin Scale   =       1.2000000000000000 [-]
	 SCS Same-Spin Energy      =      -0.1847399649036827 [Eh]
	 SCS Opposite-Spin Energy  =      -2.0442482852690107 [Eh]
	 SCS Correlation Energy    =      -2.2289882501726934 [Eh]
	 SCS Total Energy          =    -571.9021206653965237 [Eh]
	-----------------------------------------------------------

  Dipole Moment: [D]
     X:    -2.3425      Y:     1.0141      Z:     0.4110     Total:     2.5854

*** Psi4 exiting successfully. Buy a developer a beer!
