                               Psi4 1.3.2 release

  ==> Input File <==

--------------------------------------------------------------------------
#psi4
#
memory 32 gb

molecule  {
0 1
  O       -0.1147700    -1.8002930     0.4548730
  O        0.3584290     1.3939840    -1.0246780
  O       -1.9551560     1.3713260     0.4690830
  O        2.7148150     0.4505790    -0.2056670
  O       -1.6716310    -0.8002260    -0.9984850
  C        0.4315910     1.0135520     0.3497470
  C       -0.9093320     0.4742750     0.8400700
  C        1.5345100    -0.0288940     0.4204030
  C       -1.0583591    -1.0595257     0.3561256
  C        1.0549700    -1.3167000    -0.2286510
  H        0.7042560     1.8874530     0.9605880
  H       -0.8818830     0.4322700     1.9353370
  H        1.7837760    -0.2316310     1.4680400
  H       -1.9939520    -1.3968640     0.9617720
  H        0.8436020    -1.1475360    -1.2899680
  H        1.8059140    -2.1013880    -0.1265130
  H       -0.3930520     2.0121160    -1.0836700
  H       -2.3417080     0.9766970    -0.3400740
  H        2.3997000     0.9352960    -0.9928030
  H       -1.9956420    -1.6762600    -1.2784950
units angstrom
no_reorient  #important for SAPT in psi4, default
symmetry c1  #important for SAPT in psi4, default
}

set PROPERTIES_ORIGIN ["COM"]
properties('MP2/aug-cc-pvtz', properties = ['dipole'])
--------------------------------------------------------------------------

    Molecular point group: c1
  Charge       = 0
  Multiplicity = 1
  Basis Set: AUG-CC-PVTZ
    Blend: AUG-CC-PVTZ
  Basis Set: (AUG-CC-PVTZ AUX)
    Blend: AUG-CC-PVTZ-JKFIT

    Orbital Energies [Eh]
    ---------------------

    Doubly Occupied:

       1A    -20.609566     2A    -20.570355     3A    -20.569225
       4A    -20.567478     5A    -20.564755     6A    -11.357142
       7A    -11.296707     8A    -11.293963     9A    -11.292279
      10A    -11.287696    11A     -1.516781    12A     -1.394373
      13A     -1.372057    14A     -1.349516    15A     -1.335914
      16A     -1.069450    17A     -1.028736    18A     -0.894969
      19A     -0.875963    20A     -0.799689    21A     -0.751398
      22A     -0.739900    23A     -0.727990    24A     -0.698280
      25A     -0.674092    26A     -0.643364    27A     -0.636971
      28A     -0.623772    29A     -0.603779    30A     -0.586350
      31A     -0.570831    32A     -0.559592    33A     -0.541090
      34A     -0.513198    35A     -0.509502    36A     -0.485453
      37A     -0.474882    38A     -0.469225    39A     -0.439600
      40A     -0.399191

  @DF-RHF Final Energy:  -569.62815781825327

   => Energetics <=

    Nuclear Repulsion Energy =            635.1549192701439779
    One-Electron Energy =               -2044.1760123236672371
    Two-Electron Energy =                 839.3929352352698743
    Total Energy =                       -569.6281578182532712
  Basis Set: (AUG-CC-PVTZ AUX)
    Blend: AUG-CC-PVTZ-RI
    Molecular point group: c1

    Geometry (in Angstrom), charge = 0, multiplicity = 1:

       Center              X                  Y                   Z               Mass
    ------------   -----------------  -----------------  -----------------  -----------------
         O           -0.127308388428    -1.790449843972     0.453560947300    15.994914619570
         O            0.345890611572     1.403827156028    -1.025990052700    15.994914619570
         O           -1.967694388428     1.381169156028     0.467770947300    15.994914619570
         O            2.702276611572     0.460422156028    -0.206979052700    15.994914619570
         O           -1.684169388428    -0.790382843972    -0.999797052700    15.994914619570
         C            0.419052611572     1.023395156028     0.348434947300    12.000000000000
         C           -0.921870388428     0.484118156028     0.838757947300    12.000000000000
         C            1.521971611572    -0.019050843972     0.419090947300    12.000000000000
         C           -1.070897488428    -1.049682543972     0.354813547300    12.000000000000
         C            1.042431611572    -1.306856843972    -0.229963052700    12.000000000000
         H            0.691717611572     1.897296156028     0.959275947300     1.007825032230
         H           -0.894421388428     0.442113156028     1.934024947300     1.007825032230
         H            1.771237611572    -0.221787843972     1.466727947300     1.007825032230
         H           -2.006490388428    -1.387020843972     0.960459947300     1.007825032230
         H            0.831063611572    -1.137692843972    -1.291280052700     1.007825032230
         H            1.793375611572    -2.091544843972    -0.127825052700     1.007825032230
         H           -0.405590388428     2.021959156028    -1.084982052700     1.007825032230
         H           -2.354246388428     0.986540156028    -0.341386052700     1.007825032230
         H            2.387161611572     0.945139156028    -0.994115052700     1.007825032230
         H           -2.008180388428    -1.666416843972    -1.279807052700     1.007825032230

  Basis Set: AUG-CC-PVTZ
    Blend: AUG-CC-PVTZ
  Basis Set: (AUG-CC-PVTZ AUX)
    Blend: AUG-CC-PVTZ-JKFIT
	 Reference Energy          =    -569.6281578182532712 [Eh]
	 Singles Energy            =      -0.0000000000000000 [Eh]
	 Same-Spin Energy          =      -0.5563138642866772 [Eh]
	 Opposite-Spin Energy      =      -1.7054290169549060 [Eh]
	 Correlation Energy        =      -2.2617428812415832 [Eh]
	 Total Energy              =    -571.8899006994948877 [Eh]

	 ================> DF-SCS-MP2 Energies <==================
	-----------------------------------------------------------
	 SCS Same-Spin Scale       =       0.3333333333333333 [-]
	 SCS Opposite-Spin Scale   =       1.2000000000000000 [-]
	 SCS Same-Spin Energy      =      -0.1854379547622257 [Eh]
	 SCS Opposite-Spin Energy  =      -2.0465148203458869 [Eh]
	 SCS Correlation Energy    =      -2.2319527751081125 [Eh]
	 SCS Total Energy          =    -571.8601105933613553 [Eh]
	-----------------------------------------------------------

  Dipole Moment: [D]
     X:    -1.1201      Y:    -1.5169      Z:    -0.1008     Total:     1.8883

*** Psi4 exiting successfully. Buy a developer a beer!
