                               Psi4 1.3.2 release

  ==> Input File <==

--------------------------------------------------------------------------
#psi4
#
memory 32 gb

molecule  {
0 1
  O       -0.1147700    -1.8002930     0.4548730
  O        0.3584290     1.3939840    -1.0246780
  O       -1.9551560     1.3713260     0.4690830
  O        2.7148150     0.4505790    -0.2056670
  O       -1.6716310    -0.8002260    -0.9984850
  C        0.4315910     1.0135520     0.3497470
  C       -0.9093320     0.4742750     0.8400700
  C        1.5345100    -0.0288940     0.4204030
  C       -1.2151430    -0.9364420     0.3397180
  C        1.0549700    -1.3167000    -0.2286510
  H        0.7042560     1.8874530     0.9605880
  H       -0.8818830     0.4322700     1.9353370
  H        1.7837760    -0.2316310     1.4680400
  H       -1.9939520    -1.3968640     0.9617720
  H        0.8436020    -1.1475360    -1.2899680
  H        1.8059140    -2.1013880    -0.1265130
  H       -0.3930520     2.0121160    -1.0836700
  H       -2.3417080     0.9766970    -0.3400740
  H        2.3997000     0.9352960    -0.9928030
  H       -2.0620988    -1.8559404    -1.3359269
units angstrom
no_reorient  #important for SAPT in psi4, default
symmetry c1  #important for SAPT in psi4, default
}

set PROPERTIES_ORIGIN ["COM"]
properties('MP2/aug-cc-pvtz', properties = ['dipole'])
--------------------------------------------------------------------------

    Molecular point group: c1
  Charge       = 0
  Multiplicity = 1
  Basis Set: AUG-CC-PVTZ
    Blend: AUG-CC-PVTZ
  Basis Set: (AUG-CC-PVTZ AUX)
    Blend: AUG-CC-PVTZ-JKFIT

    Orbital Energies [Eh]
    ---------------------

    Doubly Occupied:

       1A    -20.604062     2A    -20.578904     3A    -20.573805
       4A    -20.570598     5A    -20.557551     6A    -11.351436
       7A    -11.297850     8A    -11.290291     9A    -11.284808
      10A    -11.276908    11A     -1.428359    12A     -1.389637
      13A     -1.373206    14A     -1.347082    15A     -1.332073
      16A     -1.057789    17A     -1.018181    18A     -0.892718
      19A     -0.866769    20A     -0.791038    21A     -0.740494
      22A     -0.721293    23A     -0.709724    24A     -0.687453
      25A     -0.666864    26A     -0.644510    27A     -0.612992
      28A     -0.609319    29A     -0.595892    30A     -0.582423
      31A     -0.565793    32A     -0.553133    33A     -0.541464
      34A     -0.513966    35A     -0.498203    36A     -0.489580
      37A     -0.485613    38A     -0.469044    39A     -0.439314
      40A     -0.414309

  @DF-RHF Final Energy:  -569.63874246494572

   => Energetics <=

    Nuclear Repulsion Energy =            632.5904049333480543
    One-Electron Energy =               -2039.6093939915297142
    Two-Electron Energy =                 837.3802465932359382
    Total Energy =                       -569.6387424649457216
  Basis Set: (AUG-CC-PVTZ AUX)
    Blend: AUG-CC-PVTZ-RI
    Molecular point group: c1

    Geometry (in Angstrom), charge = 0, multiplicity = 1:

       Center              X                  Y                   Z               Mass
    ------------   -----------------  -----------------  -----------------  -----------------
         O           -0.114323736875    -1.799086255907     0.455258832755    15.994914619570
         O            0.358875263125     1.395190744093    -1.024292167245    15.994914619570
         O           -1.954709736875     1.372532744093     0.469468832755    15.994914619570
         O            2.715261263125     0.451785744093    -0.205281167245    15.994914619570
         O           -1.671184736875    -0.799019255907    -0.998099167245    15.994914619570
         C            0.432037263125     1.014758744093     0.350132832755    12.000000000000
         C           -0.908885736875     0.475481744093     0.840455832755    12.000000000000
         C            1.534956263125    -0.027687255907     0.420788832755    12.000000000000
         C           -1.214696736875    -0.935235255907     0.340103832755    12.000000000000
         C            1.055416263125    -1.315493255907    -0.228265167245    12.000000000000
         H            0.704702263125     1.888659744093     0.960973832755     1.007825032230
         H           -0.881436736875     0.433476744093     1.935722832755     1.007825032230
         H            1.784222263125    -0.230424255907     1.468425832755     1.007825032230
         H           -1.993505736875    -1.395657255907     0.962157832755     1.007825032230
         H            0.844048263125    -1.146329255907    -1.289582167245     1.007825032230
         H            1.806360263125    -2.100181255907    -0.126127167245     1.007825032230
         H           -0.392605736875     2.013322744093    -1.083284167245     1.007825032230
         H           -2.341261736875     0.977903744093    -0.339688167245     1.007825032230
         H            2.400146263125     0.936502744093    -0.992417167245     1.007825032230
         H           -2.061652536875    -1.854733655907    -1.335541067245     1.007825032230

  Basis Set: AUG-CC-PVTZ
    Blend: AUG-CC-PVTZ
  Basis Set: (AUG-CC-PVTZ AUX)
    Blend: AUG-CC-PVTZ-JKFIT
	 Reference Energy          =    -569.6387424649457216 [Eh]
	 Singles Energy            =      -0.0000000000000000 [Eh]
	 Same-Spin Energy          =      -0.5569182339939366 [Eh]
	 Opposite-Spin Energy      =      -1.7106755920669634 [Eh]
	 Correlation Energy        =      -2.2675938260608999 [Eh]
	 Total Energy              =    -571.9063362910065962 [Eh]

	 ================> DF-SCS-MP2 Energies <==================
	-----------------------------------------------------------
	 SCS Same-Spin Scale       =       0.3333333333333333 [-]
	 SCS Opposite-Spin Scale   =       1.2000000000000000 [-]
	 SCS Same-Spin Energy      =      -0.1856394113313122 [Eh]
	 SCS Opposite-Spin Energy  =      -2.0528107104803559 [Eh]
	 SCS Correlation Energy    =      -2.2384501218116681 [Eh]
	 SCS Total Energy          =    -571.8771925867573600 [Eh]
	-----------------------------------------------------------

  Dipole Moment: [D]
     X:    -2.2622      Y:    -1.1505      Z:    -0.3774     Total:     2.5659

*** Psi4 exiting successfully. Buy a developer a beer!
