                               Psi4 1.3.2 release

  ==> Input File <==

--------------------------------------------------------------------------
#psi4
#
memory 32 gb

molecule  {
0 1
  O       -0.1147700    -1.8002930     0.4548730
  O        0.3584290     1.3939840    -1.0246780
  O       -1.9551560     1.3713260     0.4690830
  O        2.7148150     0.4505790    -0.2056670
  O       -1.6716310    -0.8002260    -0.9984850
  C        0.4315910     1.0135520     0.3497470
  C       -0.9093320     0.4742750     0.8400700
  C        1.5345100    -0.0288940     0.4204030
  C       -1.2151430    -0.9364420     0.3397180
  C        1.0549700    -1.3167000    -0.2286510
  H        0.7042560     1.8874530     0.9605880
  H       -0.8818830     0.4322700     1.9353370
  H        1.7837760    -0.2316310     1.4680400
  H       -1.9939520    -1.3968640     0.9617720
  H        0.8436020    -1.1475360    -1.2899680
  H        1.8059140    -2.1013880    -0.1265130
  H       -0.5472290     2.1389346    -1.0957730
  H       -2.3417080     0.9766970    -0.3400740
  H        2.3997000     0.9352960    -0.9928030
  H       -1.9956420    -1.6762600    -1.2784950
units angstrom
no_reorient  #important for SAPT in psi4, default
symmetry c1  #important for SAPT in psi4, default
}

set PROPERTIES_ORIGIN ["COM"]
properties('MP2/aug-cc-pvtz', properties = ['dipole'])
--------------------------------------------------------------------------

    Molecular point group: c1
  Charge       = 0
  Multiplicity = 1
  Basis Set: AUG-CC-PVTZ
    Blend: AUG-CC-PVTZ
  Basis Set: (AUG-CC-PVTZ AUX)
    Blend: AUG-CC-PVTZ-JKFIT

    Orbital Energies [Eh]
    ---------------------

    Doubly Occupied:

       1A    -20.590892     2A    -20.581146     3A    -20.580035
       4A    -20.576118     5A    -20.557098     6A    -11.353214
       7A    -11.297542     8A    -11.288535     9A    -11.284723
      10A    -11.277205    11A     -1.437595    12A     -1.381744
      13A     -1.373005    14A     -1.353309    15A     -1.326863
      16A     -1.052461    17A     -1.022198    18A     -0.893874
      19A     -0.869012    20A     -0.788702    21A     -0.748512
      22A     -0.722199    23A     -0.709699    24A     -0.688316
      25A     -0.659426    26A     -0.645163    27A     -0.619811
      28A     -0.609369    29A     -0.596051    30A     -0.581245
      31A     -0.570508    32A     -0.555125    33A     -0.529570
      34A     -0.511783    35A     -0.500711    36A     -0.487635
      37A     -0.486996    38A     -0.469101    39A     -0.439078
      40A     -0.413746

  @DF-RHF Final Energy:  -569.63864827155692

   => Energetics <=

    Nuclear Repulsion Energy =            632.7151532257853432
    One-Electron Energy =               -2039.8489690574490396
    Two-Electron Energy =                 837.4951675601067791
    Total Energy =                       -569.6386482715569173
  Basis Set: (AUG-CC-PVTZ AUX)
    Blend: AUG-CC-PVTZ-RI
    Molecular point group: c1

    Geometry (in Angstrom), charge = 0, multiplicity = 1:

       Center              X                  Y                   Z               Mass
    ------------   -----------------  -----------------  -----------------  -----------------
         O           -0.113734566932    -1.801144846726     0.454954382635    15.994914619570
         O            0.359464433068     1.393132153274    -1.024596617365    15.994914619570
         O           -1.954120566932     1.370474153274     0.469164382635    15.994914619570
         O            2.715850433068     0.449727153274    -0.205585617365    15.994914619570
         O           -1.670595566932    -0.801077846726    -0.998403617365    15.994914619570
         C            0.432626433068     1.012700153274     0.349828382635    12.000000000000
         C           -0.908296566932     0.473423153274     0.840151382635    12.000000000000
         C            1.535545433068    -0.029745846726     0.420484382635    12.000000000000
         C           -1.214107566932    -0.937293846726     0.339799382635    12.000000000000
         C            1.056005433068    -1.317551846726    -0.228569617365    12.000000000000
         H            0.705291433068     1.886601153274     0.960669382635     1.007825032230
         H           -0.880847566932     0.431418153274     1.935418382635     1.007825032230
         H            1.784811433068    -0.232482846726     1.468121382635     1.007825032230
         H           -1.992916566932    -1.397715846726     0.961853382635     1.007825032230
         H            0.844637433068    -1.148387846726    -1.289886617365     1.007825032230
         H            1.806949433068    -2.102239846726    -0.126431617365     1.007825032230
         H           -0.546193566932     2.138082753274    -1.095691617365     1.007825032230
         H           -2.340672566932     0.975845153274    -0.339992617365     1.007825032230
         H            2.400735433068     0.934444153274    -0.992721617365     1.007825032230
         H           -1.994606566932    -1.677111846726    -1.278413617365     1.007825032230

  Basis Set: AUG-CC-PVTZ
    Blend: AUG-CC-PVTZ
  Basis Set: (AUG-CC-PVTZ AUX)
    Blend: AUG-CC-PVTZ-JKFIT
	 Reference Energy          =    -569.6386482715569173 [Eh]
	 Singles Energy            =      -0.0000000000000000 [Eh]
	 Same-Spin Energy          =      -0.5573127376574762 [Eh]
	 Opposite-Spin Energy      =      -1.7109297896861406 [Eh]
	 Correlation Energy        =      -2.2682425273436166 [Eh]
	 Total Energy              =    -571.9068907989005766 [Eh]

	 ================> DF-SCS-MP2 Energies <==================
	-----------------------------------------------------------
	 SCS Same-Spin Scale       =       0.3333333333333333 [-]
	 SCS Opposite-Spin Scale   =       1.2000000000000000 [-]
	 SCS Same-Spin Energy      =      -0.1857709125524921 [Eh]
	 SCS Opposite-Spin Energy  =      -2.0531157476233686 [Eh]
	 SCS Correlation Energy    =      -2.2388866601758606 [Eh]
	 SCS Total Energy          =    -571.8775349317327255 [Eh]
	-----------------------------------------------------------

  Dipole Moment: [D]
     X:    -2.3571      Y:    -0.8758      Z:    -0.3146     Total:     2.5342

*** Psi4 exiting successfully. Buy a developer a beer!
