                               Psi4 1.3.2 release

  ==> Input File <==

--------------------------------------------------------------------------
#psi4
#
memory 32 gb

molecule  {
0 1
  O       -0.1147700    -1.8002930     0.4548730
  O        0.3584290     1.3939840    -1.0246780
  O       -1.9551560     1.3713260     0.4690830
  O        2.7148150     0.4505790    -0.2056670
  O       -1.6716310    -0.8002260    -0.9984850
  C        0.4312846     1.0146860     0.3762365
  C       -0.9093320     0.4742750     0.8400700
  C        1.5345100    -0.0288940     0.4204030
  C       -1.2151430    -0.9364420     0.3397180
  C        1.0549700    -1.3167000    -0.2286510
  H        0.7042560     1.8874530     0.9605880
  H       -0.8818830     0.4322700     1.9353370
  H        1.7705492    -0.2189294     1.4734705
  H       -1.9939520    -1.3968640     0.9617720
  H        0.8436020    -1.1475360    -1.2899680
  H        1.8059140    -2.1013880    -0.1265130
  H       -0.3930520     2.0121160    -1.0836700
  H       -2.3417080     0.9766970    -0.3400740
  H        2.3997000     0.9352960    -0.9928030
  H       -1.9956420    -1.6762600    -1.2784950
units angstrom
no_reorient  #important for SAPT in psi4, default
symmetry c1  #important for SAPT in psi4, default
}

set PROPERTIES_ORIGIN ["COM"]
properties('MP2/aug-cc-pvtz', properties = ['dipole'])
--------------------------------------------------------------------------

    Molecular point group: c1
  Charge       = 0
  Multiplicity = 1
  Basis Set: AUG-CC-PVTZ
    Blend: AUG-CC-PVTZ
  Basis Set: (AUG-CC-PVTZ AUX)
    Blend: AUG-CC-PVTZ-JKFIT

    Orbital Energies [Eh]
    ---------------------

    Doubly Occupied:

       1A    -20.591597     2A    -20.581011     3A    -20.574848
       4A    -20.568206     5A    -20.558751     6A    -11.354572
       7A    -11.298968     8A    -11.290796     9A    -11.286424
      10A    -11.278771    11A     -1.438664    12A     -1.386923
      13A     -1.375254    14A     -1.354025    15A     -1.343490
      16A     -1.061384    17A     -1.023414    18A     -0.900182
      19A     -0.871299    20A     -0.796428    21A     -0.751707
      22A     -0.728074    23A     -0.711845    24A     -0.695077
      25A     -0.667281    26A     -0.646564    27A     -0.621492
      28A     -0.611805    29A     -0.603163    30A     -0.585012
      31A     -0.571991    32A     -0.556606    33A     -0.539912
      34A     -0.514112    35A     -0.503101    36A     -0.490370
      37A     -0.487739    38A     -0.471494    39A     -0.442801
      40A     -0.418442

  @DF-RHF Final Energy:  -569.67328996917797

   => Energetics <=

    Nuclear Repulsion Energy =            633.5453073020263446
    One-Electron Energy =               -2041.3300029468859975
    Two-Electron Energy =                 838.1114056756817945
    Total Energy =                       -569.6732899691779721
  Basis Set: (AUG-CC-PVTZ AUX)
    Blend: AUG-CC-PVTZ-RI
    Molecular point group: c1

    Geometry (in Angstrom), charge = 0, multiplicity = 1:

       Center              X                  Y                   Z               Mass
    ------------   -----------------  -----------------  -----------------  -----------------
         O           -0.114656751112    -1.800469071576     0.452718205451    15.994914619570
         O            0.358542248888     1.393807928424    -1.026832794549    15.994914619570
         O           -1.955042751112     1.371149928424     0.466928205451    15.994914619570
         O            2.714928248888     0.450402928424    -0.207821794549    15.994914619570
         O           -1.671517751112    -0.800402071576    -1.000639794549    15.994914619570
         C            0.431397848888     1.014509928424     0.374081705451    12.000000000000
         C           -0.909218751112     0.474098928424     0.837915205451    12.000000000000
         C            1.534623248888    -0.029070071576     0.418248205451    12.000000000000
         C           -1.215029751112    -0.936618071576     0.337563205451    12.000000000000
         C            1.055083248888    -1.316876071576    -0.230805794549    12.000000000000
         H            0.704369248888     1.887276928424     0.958433205451     1.007825032230
         H           -0.881769751112     0.432093928424     1.933182205451     1.007825032230
         H            1.770662448888    -0.219105471576     1.471315705451     1.007825032230
         H           -1.993838751112    -1.397040071576     0.959617205451     1.007825032230
         H            0.843715248888    -1.147712071576    -1.292122794549     1.007825032230
         H            1.806027248888    -2.101564071576    -0.128667794549     1.007825032230
         H           -0.392938751112     2.011939928424    -1.085824794549     1.007825032230
         H           -2.341594751112     0.976520928424    -0.342228794549     1.007825032230
         H            2.399813248888     0.935119928424    -0.994957794549     1.007825032230
         H           -1.995528751112    -1.676436071576    -1.280649794549     1.007825032230

  Basis Set: AUG-CC-PVTZ
    Blend: AUG-CC-PVTZ
  Basis Set: (AUG-CC-PVTZ AUX)
    Blend: AUG-CC-PVTZ-JKFIT
	 Reference Energy          =    -569.6732899691779721 [Eh]
	 Singles Energy            =      -0.0000000000000000 [Eh]
	 Same-Spin Energy          =      -0.5546865102007140 [Eh]
	 Opposite-Spin Energy      =      -1.7043685514148756 [Eh]
	 Correlation Energy        =      -2.2590550616155896 [Eh]
	 Total Energy              =    -571.9323450307936128 [Eh]

	 ================> DF-SCS-MP2 Energies <==================
	-----------------------------------------------------------
	 SCS Same-Spin Scale       =       0.3333333333333333 [-]
	 SCS Opposite-Spin Scale   =       1.2000000000000000 [-]
	 SCS Same-Spin Energy      =      -0.1848955034002380 [Eh]
	 SCS Opposite-Spin Energy  =      -2.0452422616978505 [Eh]
	 SCS Correlation Energy    =      -2.2301377650980885 [Eh]
	 SCS Total Energy          =    -571.9034277342760788 [Eh]
	-----------------------------------------------------------

  Dipole Moment: [D]
     X:    -2.1761      Y:    -1.0099      Z:    -0.2327     Total:     2.4102

*** Psi4 exiting successfully. Buy a developer a beer!
