                               Psi4 1.3.2 release

  ==> Input File <==

--------------------------------------------------------------------------
#psi4
#
memory 32 gb

molecule  {
0 1
  O       -0.1147700    -1.8002930     0.4548730
  O        0.3400290     1.4098362    -1.0190848
  O       -1.9551560     1.3713260     0.4690830
  O        2.7148150     0.4505790    -0.2056670
  O       -1.6716310    -0.8002260    -0.9984850
  C        0.4315910     1.0135520     0.3497470
  C       -0.9093320     0.4742750     0.8400700
  C        1.5304659    -0.0310654     0.4465182
  C       -1.2151430    -0.9364420     0.3397180
  C        1.0549700    -1.3167000    -0.2286510
  H        0.7042560     1.8874530     0.9605880
  H       -0.8818830     0.4322700     1.9353370
  H        1.7837760    -0.2316310     1.4680400
  H       -1.9939520    -1.3968640     0.9617720
  H        0.8436020    -1.1475360    -1.2899680
  H        1.8059140    -2.1013880    -0.1265130
  H       -0.3930520     2.0121160    -1.0836700
  H       -2.3417080     0.9766970    -0.3400740
  H        2.3997000     0.9352960    -0.9928030
  H       -1.9956420    -1.6762600    -1.2784950
units angstrom
no_reorient  #important for SAPT in psi4, default
symmetry c1  #important for SAPT in psi4, default
}

set PROPERTIES_ORIGIN ["COM"]
properties('MP2/aug-cc-pvtz', properties = ['dipole'])
--------------------------------------------------------------------------

    Molecular point group: c1
  Charge       = 0
  Multiplicity = 1
  Basis Set: AUG-CC-PVTZ
    Blend: AUG-CC-PVTZ
  Basis Set: (AUG-CC-PVTZ AUX)
    Blend: AUG-CC-PVTZ-JKFIT

    Orbital Energies [Eh]
    ---------------------

    Doubly Occupied:

       1A    -20.591574     2A    -20.580494     3A    -20.573933
       4A    -20.568603     5A    -20.556820     6A    -11.353798
       7A    -11.297973     8A    -11.291868     9A    -11.286171
      10A    -11.279269    11A     -1.438749    12A     -1.392535
      13A     -1.373992    14A     -1.353555    15A     -1.345752
      16A     -1.060969    17A     -1.022630    18A     -0.898909
      19A     -0.870990    20A     -0.801871    21A     -0.752680
      22A     -0.726745    23A     -0.711838    24A     -0.696072
      25A     -0.671063    26A     -0.645589    27A     -0.620281
      28A     -0.615151    29A     -0.603307    30A     -0.586998
      31A     -0.570503    32A     -0.553973    33A     -0.541807
      34A     -0.519185    35A     -0.502287    36A     -0.491125
      37A     -0.487311    38A     -0.474100    39A     -0.440052
      40A     -0.415027

  @DF-RHF Final Energy:  -569.67503783536404

   => Energetics <=

    Nuclear Repulsion Energy =            633.5310744173674493
    One-Electron Energy =               -2041.2811272938254206
    Two-Electron Energy =                 838.0750150410940478
    Total Energy =                       -569.6750378353640372
  Basis Set: (AUG-CC-PVTZ AUX)
    Blend: AUG-CC-PVTZ-RI
    Molecular point group: c1

    Geometry (in Angstrom), charge = 0, multiplicity = 1:

       Center              X                  Y                   Z               Mass
    ------------   -----------------  -----------------  -----------------  -----------------
         O           -0.112485325600    -1.801809191612     0.452188404273    15.994914619570
         O            0.342313674400     1.408320008388    -1.021769395727    15.994914619570
         O           -1.952871325600     1.369809808388     0.466398404273    15.994914619570
         O            2.717099674400     0.449062808388    -0.208351595727    15.994914619570
         O           -1.669346325600    -0.801742191612    -1.001169595727    15.994914619570
         C            0.433875674400     1.012035808388     0.347062404273    12.000000000000
         C           -0.907047325600     0.472758808388     0.837385404273    12.000000000000
         C            1.532750574400    -0.032581591612     0.443833604273    12.000000000000
         C           -1.212858325600    -0.937958191612     0.337033404273    12.000000000000
         C            1.057254674400    -1.318216191612    -0.231335595727    12.000000000000
         H            0.706540674400     1.885936808388     0.957903404273     1.007825032230
         H           -0.879598325600     0.430753808388     1.932652404273     1.007825032230
         H            1.786060674400    -0.233147191612     1.465355404273     1.007825032230
         H           -1.991667325600    -1.398380191612     0.959087404273     1.007825032230
         H            0.845886674400    -1.149052191612    -1.292652595727     1.007825032230
         H            1.808198674400    -2.102904191612    -0.129197595727     1.007825032230
         H           -0.390767325600     2.010599808388    -1.086354595727     1.007825032230
         H           -2.339423325600     0.975180808388    -0.342758595727     1.007825032230
         H            2.401984674400     0.933779808388    -0.995487595727     1.007825032230
         H           -1.993357325600    -1.677776191612    -1.281179595727     1.007825032230

  Basis Set: AUG-CC-PVTZ
    Blend: AUG-CC-PVTZ
  Basis Set: (AUG-CC-PVTZ AUX)
    Blend: AUG-CC-PVTZ-JKFIT
	 Reference Energy          =    -569.6750378353640372 [Eh]
	 Singles Energy            =      -0.0000000000000000 [Eh]
	 Same-Spin Energy          =      -0.5540820742784192 [Eh]
	 Opposite-Spin Energy      =      -1.7030270763961286 [Eh]
	 Correlation Energy        =      -2.2571091506745478 [Eh]
	 Total Energy              =    -571.9321469860385605 [Eh]

	 ================> DF-SCS-MP2 Energies <==================
	-----------------------------------------------------------
	 SCS Same-Spin Scale       =       0.3333333333333333 [-]
	 SCS Opposite-Spin Scale   =       1.2000000000000000 [-]
	 SCS Same-Spin Energy      =      -0.1846940247594731 [Eh]
	 SCS Opposite-Spin Energy  =      -2.0436324916753543 [Eh]
	 SCS Correlation Energy    =      -2.2283265164348274 [Eh]
	 SCS Total Energy          =    -571.9033643517988139 [Eh]
	-----------------------------------------------------------

  Dipole Moment: [D]
     X:    -2.1671      Y:    -1.0491      Z:    -0.2570     Total:     2.4213

*** Psi4 exiting successfully. Buy a developer a beer!
