                               Psi4 1.3.2 release

  ==> Input File <==

--------------------------------------------------------------------------
#psi4
#
memory 32 gb

molecule  {
0 1
  O       -0.1147700    -1.8002930     0.4548730
  O        0.3584290     1.3939840    -1.0246780
  O       -1.9551560     1.3713260     0.4690830
  O        2.7148150     0.4505790    -0.2056670
  O       -1.7147074    -0.8207130    -0.9849576
  C        0.4315910     1.0135520     0.3497470
  C       -0.9093320     0.4742750     0.8400700
  C        1.5345100    -0.0288940     0.4204030
  C       -1.2151430    -0.9364420     0.3397180
  C        1.0549700    -1.3167000    -0.2286510
  H        0.7042560     1.8874530     0.9605880
  H       -0.8818830     0.4322700     1.9353370
  H        1.7837760    -0.2316310     1.4680400
  H       -2.0166260    -1.3985930     0.9309240
  H        0.8436020    -1.1475360    -1.2899680
  H        1.8059140    -2.1013880    -0.1265130
  H       -0.3930520     2.0121160    -1.0836700
  H       -2.3417080     0.9766970    -0.3400740
  H        2.3997000     0.9352960    -0.9928030
  H       -1.9956420    -1.6762600    -1.2784950
units angstrom
no_reorient  #important for SAPT in psi4, default
symmetry c1  #important for SAPT in psi4, default
}

set PROPERTIES_ORIGIN ["COM"]
properties('MP2/aug-cc-pvtz', properties = ['dipole'])
--------------------------------------------------------------------------

    Molecular point group: c1
  Charge       = 0
  Multiplicity = 1
  Basis Set: AUG-CC-PVTZ
    Blend: AUG-CC-PVTZ
  Basis Set: (AUG-CC-PVTZ AUX)
    Blend: AUG-CC-PVTZ-JKFIT

    Orbital Energies [Eh]
    ---------------------

    Doubly Occupied:

       1A    -20.586773     2A    -20.582174     3A    -20.574947
       4A    -20.572158     5A    -20.558957     6A    -11.354092
       7A    -11.299703     8A    -11.291886     9A    -11.286463
      10A    -11.279361    11A     -1.439853    12A     -1.392459
      13A     -1.376797    14A     -1.357245    15A     -1.348470
      16A     -1.059927    17A     -1.023948    18A     -0.900814
      19A     -0.871226    20A     -0.800578    21A     -0.752559
      22A     -0.730970    23A     -0.712392    24A     -0.696865
      25A     -0.670518    26A     -0.647790    27A     -0.621774
      28A     -0.614959    29A     -0.604096    30A     -0.586616
      31A     -0.570719    32A     -0.557323    33A     -0.543496
      34A     -0.517122    35A     -0.500715    36A     -0.491468
      37A     -0.488868    38A     -0.472182    39A     -0.440941
      40A     -0.416964

  @DF-RHF Final Energy:  -569.67562987981205

   => Energetics <=

    Nuclear Repulsion Energy =            633.2234734315643436
    One-Electron Energy =               -2040.6058711993832731
    Two-Electron Energy =                 837.7067678880068797
    Total Energy =                       -569.6756298798120497
  Basis Set: (AUG-CC-PVTZ AUX)
    Blend: AUG-CC-PVTZ-RI
    Molecular point group: c1

    Geometry (in Angstrom), charge = 0, multiplicity = 1:

       Center              X                  Y                   Z               Mass
    ------------   -----------------  -----------------  -----------------  -----------------
         O           -0.110026064071    -1.798097644451     0.453638326574    15.994914619570
         O            0.363172935929     1.396179355549    -1.025912673426    15.994914619570
         O           -1.950412064071     1.373521355549     0.467848326574    15.994914619570
         O            2.719558935929     0.452774355549    -0.206901673426    15.994914619570
         O           -1.709963464071    -0.818517644451    -0.986192273426    15.994914619570
         C            0.436334935929     1.015747355549     0.348512326574    12.000000000000
         C           -0.904588064071     0.476470355549     0.838835326574    12.000000000000
         C            1.539253935929    -0.026698644451     0.419168326574    12.000000000000
         C           -1.210399064071    -0.934246644451     0.338483326574    12.000000000000
         C            1.059713935929    -1.314504644451    -0.229885673426    12.000000000000
         H            0.708999935929     1.889648355549     0.959353326574     1.007825032230
         H           -0.877139064071     0.434465355549     1.934102326574     1.007825032230
         H            1.788519935929    -0.229435644451     1.466805326574     1.007825032230
         H           -2.011882064071    -1.396397644451     0.929689326574     1.007825032230
         H            0.848345935929    -1.145340644451    -1.291202673426     1.007825032230
         H            1.810657935929    -2.099192644451    -0.127747673426     1.007825032230
         H           -0.388308064071     2.014311355549    -1.084904673426     1.007825032230
         H           -2.336964064071     0.978892355549    -0.341308673426     1.007825032230
         H            2.404443935929     0.937491355549    -0.994037673426     1.007825032230
         H           -1.990898064071    -1.674064644451    -1.279729673426     1.007825032230

  Basis Set: AUG-CC-PVTZ
    Blend: AUG-CC-PVTZ
  Basis Set: (AUG-CC-PVTZ AUX)
    Blend: AUG-CC-PVTZ-JKFIT
	 Reference Energy          =    -569.6756298798120497 [Eh]
	 Singles Energy            =      -0.0000000000000000 [Eh]
	 Same-Spin Energy          =      -0.5540473250013078 [Eh]
	 Opposite-Spin Energy      =      -1.7026557646111227 [Eh]
	 Correlation Energy        =      -2.2567030896124303 [Eh]
	 Total Energy              =    -571.9323329694244649 [Eh]

	 ================> DF-SCS-MP2 Energies <==================
	-----------------------------------------------------------
	 SCS Same-Spin Scale       =       0.3333333333333333 [-]
	 SCS Opposite-Spin Scale   =       1.2000000000000000 [-]
	 SCS Same-Spin Energy      =      -0.1846824416671026 [Eh]
	 SCS Opposite-Spin Energy  =      -2.0431869175333470 [Eh]
	 SCS Correlation Energy    =      -2.2278693592004495 [Eh]
	 SCS Total Energy          =    -571.9034992390124899 [Eh]
	-----------------------------------------------------------

  Dipole Moment: [D]
     X:    -2.0661      Y:    -0.9570      Z:    -0.3049     Total:     2.2973

*** Psi4 exiting successfully. Buy a developer a beer!
