                               Psi4 1.4a3.dev225

  ==> Input File <==

--------------------------------------------------------------------------
#psi4
#
memory 32 gb

molecule  {
0 1
  O       -0.2343850     1.7978400    -0.4145210
  O        0.4791390    -1.3900560     0.9851260
  O       -1.8902550    -1.4798720    -0.4079610
  O        2.7489250    -0.2990660     0.0843650
  O       -1.6766260     0.6849030     1.0797040
  C        0.4758930    -0.9871420    -0.3839460
  C       -0.9153110    -0.5160320    -0.8112700
  C        1.5148540     0.1205520    -0.4811210
  C       -1.2794180     0.8705190    -0.2725550
  C        0.9914930     1.3693070     0.2124490
  H        0.7732420    -1.8350180    -1.0199460
  H       -0.9367810    -0.4539690    -1.9062570
  H        1.7061480     0.3550680    -1.5342930
  H       -2.1075740     1.2945610    -0.8542440
  H        0.8333730     1.1741050     1.2776920
  H        1.6908660     2.1982840     0.0933200
  H       -0.2684360    -2.0097880     1.0741120
  H       -2.2907410    -1.1048270     0.4011470
  H        2.5001980    -0.8049050     0.8819700
  H       -2.0472019     1.5506975     1.3978439
units angstrom
no_reorient  #important for SAPT in psi4, default
symmetry c1  #important for SAPT in psi4, default
}

set PROPERTIES_ORIGIN ["COM"]
properties('MP2/aug-cc-pvtz', properties = ['dipole'])
--------------------------------------------------------------------------

    Molecular point group: c1
  Charge       = 0
  Multiplicity = 1
  Basis Set: AUG-CC-PVTZ
    Blend: AUG-CC-PVTZ
  Basis Set: (AUG-CC-PVTZ AUX)
    Blend: AUG-CC-PVTZ-JKFIT

    Orbital Energies [Eh]
    ---------------------

    Doubly Occupied:

       1A    -20.593598     2A    -20.581011     3A    -20.575142
       4A    -20.569971     5A    -20.558575     6A    -11.354622
       7A    -11.299590     8A    -11.291121     9A    -11.286162
      10A    -11.278728    11A     -1.436465    12A     -1.390658
      13A     -1.375051    14A     -1.351540    15A     -1.347345
      16A     -1.057766    17A     -1.022092    18A     -0.897720
      19A     -0.869835    20A     -0.796956    21A     -0.750760
      22A     -0.726269    23A     -0.712017    24A     -0.695143
      25A     -0.667679    26A     -0.647193    27A     -0.619457
      28A     -0.614525    29A     -0.601123    30A     -0.584357
      31A     -0.572050    32A     -0.556359    33A     -0.542762
      34A     -0.515562    35A     -0.502485    36A     -0.490415
      37A     -0.487376    38A     -0.470924    39A     -0.440941
      40A     -0.415863

  @DF-RHF Final Energy:  -569.67288620091301

   => Energetics <=

    Nuclear Repulsion Energy =            633.0095535587867062
    One-Electron Energy =               -2040.2704532696725437
    Two-Electron Energy =                 837.5880135099729387
    Total Energy =                       -569.6728862009130125
  Basis Set: (AUG-CC-PVTZ AUX)
    Blend: AUG-CC-PVTZ-RI
    Molecular point group: c1

    Geometry (in Angstrom), charge = 0, multiplicity = 1:

       Center              X                  Y                   Z               Mass
    ------------   -----------------  -----------------  -----------------  -----------------
         O           -0.235276409411     1.799992706640    -0.415808638733    15.994914619570
         O            0.478247590589    -1.387903293360     0.983838361267    15.994914619570
         O           -1.891146409411    -1.477719293360    -0.409248638733    15.994914619570
         O            2.748033590589    -0.296913293360     0.083077361267    15.994914619570
         O           -1.677517409411     0.687055706640     1.078416361267    15.994914619570
         C            0.475001590589    -0.984989293360    -0.385233638733    12.000000000000
         C           -0.916202409411    -0.513879293360    -0.812557638733    12.000000000000
         C            1.513962590589     0.122704706640    -0.482408638733    12.000000000000
         C           -1.280309409411     0.872671706640    -0.273842638733    12.000000000000
         C            0.990601590589     1.371459706640     0.211161361267    12.000000000000
         H            0.772350590589    -1.832865293360    -1.021233638733     1.007825032230
         H           -0.937672409411    -0.451816293360    -1.907544638733     1.007825032230
         H            1.705256590589     0.357220706640    -1.535580638733     1.007825032230
         H           -2.108465409411     1.296713706640    -0.855531638733     1.007825032230
         H            0.832481590589     1.176257706640     1.276404361267     1.007825032230
         H            1.689974590589     2.200436706640     0.092032361267     1.007825032230
         H           -0.269327409411    -2.007635293360     1.072824361267     1.007825032230
         H           -2.291632409411    -1.102674293360     0.399859361267     1.007825032230
         H            2.499306590589    -0.802752293360     0.880682361267     1.007825032230
         H           -2.048093309411     1.552850206640     1.396556261267     1.007825032230

  Basis Set: AUG-CC-PVTZ
    Blend: AUG-CC-PVTZ
  Basis Set: (AUG-CC-PVTZ AUX)
    Blend: AUG-CC-PVTZ-JKFIT
	 Reference Energy          =    -569.6728862009130125 [Eh]
	 Singles Energy            =      -0.0000000000000000 [Eh]
	 Same-Spin Energy          =      -0.5547616836185468 [Eh]
	 Opposite-Spin Energy      =      -1.7046051977803489 [Eh]
	 Correlation Energy        =      -2.2593668813988956 [Eh]
	 Total Energy              =    -571.9322530823119450 [Eh]

	 ================> DF-SCS-MP2 Energies <==================
	-----------------------------------------------------------
	 SCS Same-Spin Scale       =       0.3333333333333333 [-]
	 SCS Opposite-Spin Scale   =       1.2000000000000000 [-]
	 SCS Same-Spin Energy      =      -0.1849205612061823 [Eh]
	 SCS Opposite-Spin Energy  =      -2.0455262373364187 [Eh]
	 SCS Correlation Energy    =      -2.2304467985426011 [Eh]
	 SCS Total Energy          =    -571.9033329994556425 [Eh]
	-----------------------------------------------------------

  Dipole Moment: [D]
     X:    -2.3043      Y:     0.9817      Z:     0.4084     Total:     2.5378

*** Psi4 exiting successfully. Buy a developer a beer!
