                               Psi4 1.3.2 release

  ==> Input File <==

--------------------------------------------------------------------------
#psi4
#
memory 32 gb

molecule  {
0 1
  O       -0.1147700    -1.8002930     0.4548730
  O        0.3584290     1.3939840    -1.0246780
  O       -1.9551560     1.3713260     0.4690830
  O        2.7145575     0.4409244    -0.2134239
  O       -1.6716310    -0.8002260    -0.9984850
  C        0.4315910     1.0135520     0.3497470
  C       -0.9093320     0.4742750     0.8400700
  C        1.5345100    -0.0288940     0.4204030
  C       -1.2151430    -0.9364420     0.3397180
  C        1.0651934    -1.3161885    -0.2370837
  H        0.7042560     1.8874530     0.9605880
  H       -0.8818830     0.4322700     1.9353370
  H        1.7837760    -0.2316310     1.4680400
  H       -1.9939520    -1.3968640     0.9617720
  H        0.8436020    -1.1475360    -1.2899680
  H        1.8059140    -2.1013880    -0.1265130
  H       -0.3930520     2.0121160    -1.0836700
  H       -2.3417080     0.9766970    -0.3400740
  H        2.3997000     0.9352960    -0.9928030
  H       -1.9956420    -1.6762600    -1.2784950
units angstrom
no_reorient  #important for SAPT in psi4, default
symmetry c1  #important for SAPT in psi4, default
}

set PROPERTIES_ORIGIN ["COM"]
properties('MP2/aug-cc-pvtz', properties = ['dipole'])
--------------------------------------------------------------------------

    Molecular point group: c1
  Charge       = 0
  Multiplicity = 1
  Basis Set: AUG-CC-PVTZ
    Blend: AUG-CC-PVTZ
  Basis Set: (AUG-CC-PVTZ AUX)
    Blend: AUG-CC-PVTZ-JKFIT

    Orbital Energies [Eh]
    ---------------------

    Doubly Occupied:

       1A    -20.591066     2A    -20.579094     3A    -20.574474
       4A    -20.571456     5A    -20.557985     6A    -11.353085
       7A    -11.298185     8A    -11.291496     9A    -11.286107
      10A    -11.277894    11A     -1.436702    12A     -1.391364
      13A     -1.374868    14A     -1.352133    15A     -1.348102
      16A     -1.058961    17A     -1.022532    18A     -0.899346
      19A     -0.869316    20A     -0.798498    21A     -0.751905
      22A     -0.727623    23A     -0.710719    24A     -0.695706
      25A     -0.670043    26A     -0.645886    27A     -0.619603
      28A     -0.613606    29A     -0.602474    30A     -0.584956
      31A     -0.572221    32A     -0.556739    33A     -0.542634
      34A     -0.516058    35A     -0.502106    36A     -0.491008
      37A     -0.486437    38A     -0.472867    39A     -0.441138
      40A     -0.415875

  @DF-RHF Final Energy:  -569.67440380602909

   => Energetics <=

    Nuclear Repulsion Energy =            633.6507187730044279
    One-Electron Energy =               -2041.5457130253867035
    Two-Electron Energy =                 838.2205904463531851
    Total Energy =                       -569.6744038060290904
  Basis Set: (AUG-CC-PVTZ AUX)
    Blend: AUG-CC-PVTZ-RI
    Molecular point group: c1

    Geometry (in Angstrom), charge = 0, multiplicity = 1:

       Center              X                  Y                   Z               Mass
    ------------   -----------------  -----------------  -----------------  -----------------
         O           -0.115560227678    -1.799304844945     0.456374320241    15.994914619570
         O            0.357638772322     1.394972155055    -1.023176679759    15.994914619570
         O           -1.955946227678     1.372314155055     0.470584320241    15.994914619570
         O            2.713767272322     0.441912555055    -0.211922579759    15.994914619570
         O           -1.672421227678    -0.799237844945    -0.996983679759    15.994914619570
         C            0.430800772322     1.014540155055     0.351248320241    12.000000000000
         C           -0.910122227678     0.475263155055     0.841571320241    12.000000000000
         C            1.533719772322    -0.027905844945     0.421904320241    12.000000000000
         C           -1.215933227678    -0.935453844945     0.341219320241    12.000000000000
         C            1.064403172322    -1.315200344945    -0.235582379759    12.000000000000
         H            0.703465772322     1.888441155055     0.962089320241     1.007825032230
         H           -0.882673227678     0.433258155055     1.936838320241     1.007825032230
         H            1.782985772322    -0.230642844945     1.469541320241     1.007825032230
         H           -1.994742227678    -1.395875844945     0.963273320241     1.007825032230
         H            0.842811772322    -1.146547844945    -1.288466679759     1.007825032230
         H            1.805123772322    -2.100399844945    -0.125011679759     1.007825032230
         H           -0.393842227678     2.013104155055    -1.082168679759     1.007825032230
         H           -2.342498227678     0.977685155055    -0.338572679759     1.007825032230
         H            2.398909772322     0.936284155055    -0.991301679759     1.007825032230
         H           -1.996432227678    -1.675271844945    -1.276993679759     1.007825032230

  Basis Set: AUG-CC-PVTZ
    Blend: AUG-CC-PVTZ
  Basis Set: (AUG-CC-PVTZ AUX)
    Blend: AUG-CC-PVTZ-JKFIT
	 Reference Energy          =    -569.6744038060290904 [Eh]
	 Singles Energy            =      -0.0000000000000000 [Eh]
	 Same-Spin Energy          =      -0.5545790636074066 [Eh]
	 Opposite-Spin Energy      =      -1.7039913182687831 [Eh]
	 Correlation Energy        =      -2.2585703818761900 [Eh]
	 Total Energy              =    -571.9329741879053017 [Eh]

	 ================> DF-SCS-MP2 Energies <==================
	-----------------------------------------------------------
	 SCS Same-Spin Scale       =       0.3333333333333333 [-]
	 SCS Opposite-Spin Scale   =       1.2000000000000000 [-]
	 SCS Same-Spin Energy      =      -0.1848596878691355 [Eh]
	 SCS Opposite-Spin Energy  =      -2.0447895819225397 [Eh]
	 SCS Correlation Energy    =      -2.2296492697916754 [Eh]
	 SCS Total Energy          =    -571.9040530758207979 [Eh]
	-----------------------------------------------------------

  Dipole Moment: [D]
     X:    -2.1450      Y:    -0.9636      Z:    -0.3007     Total:     2.3706

*** Psi4 exiting successfully. Buy a developer a beer!
