                               Psi4 1.4a3.dev225

  ==> Input File <==

--------------------------------------------------------------------------
#psi4
#
memory 32 gb

molecule  {
0 1
  O       -0.2343850     1.7978400    -0.4145210
  O        0.4791390    -1.3900560     0.9851260
  O       -1.8902550    -1.4798720    -0.4079610
  O        2.7489250    -0.2990660     0.0843650
  O       -1.6766260     0.6849030     1.0797040
  C        0.4758475    -0.9814955    -0.4031323
  C       -0.9153110    -0.5160320    -0.8112700
  C        1.5148540     0.1205520    -0.4811210
  C       -1.2794180     0.8705190    -0.2725550
  C        0.9914930     1.3693070     0.2124490
  H        0.7732420    -1.8350180    -1.0199460
  H       -0.9367810    -0.4539690    -1.9062570
  H        1.7061480     0.3550680    -1.5342930
  H       -2.1075740     1.2945610    -0.8542440
  H        0.8333730     1.1741050     1.2776920
  H        1.6908660     2.1982840     0.0933200
  H       -0.2684360    -2.0097880     1.0741120
  H       -2.2907410    -1.1048270     0.4011470
  H        2.5001980    -0.8049050     0.8819700
  H       -2.0397460     1.5332780     1.3914430
units angstrom
no_reorient  #important for SAPT in psi4, default
symmetry c1  #important for SAPT in psi4, default
}

set PROPERTIES_ORIGIN ["COM"]
properties('MP2/aug-cc-pvtz', properties = ['dipole'])
--------------------------------------------------------------------------

    Molecular point group: c1
  Charge       = 0
  Multiplicity = 1
  Basis Set: AUG-CC-PVTZ
    Blend: AUG-CC-PVTZ
  Basis Set: (AUG-CC-PVTZ AUX)
    Blend: AUG-CC-PVTZ-JKFIT

    Orbital Energies [Eh]
    ---------------------

    Doubly Occupied:

       1A    -20.592061     2A    -20.581472     3A    -20.575614
       4A    -20.567727     5A    -20.559051     6A    -11.355346
       7A    -11.300239     8A    -11.291455     9A    -11.286736
      10A    -11.279202    11A     -1.438128    12A     -1.387390
      13A     -1.375208    14A     -1.354043    15A     -1.344132
      16A     -1.060416    17A     -1.023262    18A     -0.899447
      19A     -0.871519    20A     -0.796866    21A     -0.751932
      22A     -0.726937    23A     -0.712174    24A     -0.695313
      25A     -0.665985    26A     -0.647639    27A     -0.620960
      28A     -0.612974    29A     -0.601639    30A     -0.584749
      31A     -0.572796    32A     -0.557030    33A     -0.540276
      34A     -0.514673    35A     -0.503252    36A     -0.490058
      37A     -0.487800    38A     -0.471660    39A     -0.443356
      40A     -0.417530

  @DF-RHF Final Energy:  -569.67367043662966

   => Energetics <=

    Nuclear Repulsion Energy =            633.0138318534832251
    One-Electron Energy =               -2040.2589070629519483
    Two-Electron Energy =                 837.5714047728390597
    Total Energy =                       -569.6736704366296635
  Basis Set: (AUG-CC-PVTZ AUX)
    Blend: AUG-CC-PVTZ-RI
    Molecular point group: c1

    Geometry (in Angstrom), charge = 0, multiplicity = 1:

       Center              X                  Y                   Z               Mass
    ------------   -----------------  -----------------  -----------------  -----------------
         O           -0.235322848009     1.799658143180    -0.414231283627    15.994914619570
         O            0.478201151991    -1.388237856820     0.985415716373    15.994914619570
         O           -1.891192848009    -1.478053856820    -0.407671283627    15.994914619570
         O            2.747987151991    -0.297247856820     0.084654716373    15.994914619570
         O           -1.677563848009     0.686721143180     1.079993716373    15.994914619570
         C            0.474909651991    -0.979677356820    -0.402842583627    12.000000000000
         C           -0.916248848009    -0.514213856820    -0.810980283627    12.000000000000
         C            1.513916151991     0.122370143180    -0.480831283627    12.000000000000
         C           -1.280355848009     0.872337143180    -0.272265283627    12.000000000000
         C            0.990555151991     1.371125143180     0.212738716373    12.000000000000
         H            0.772304151991    -1.833199856820    -1.019656283627     1.007825032230
         H           -0.937718848009    -0.452150856820    -1.905967283627     1.007825032230
         H            1.705210151991     0.356886143180    -1.534003283627     1.007825032230
         H           -2.108511848009     1.296379143180    -0.853954283627     1.007825032230
         H            0.832435151991     1.175923143180     1.277981716373     1.007825032230
         H            1.689928151991     2.200102143180     0.093609716373     1.007825032230
         H           -0.269373848009    -2.007969856820     1.074401716373     1.007825032230
         H           -2.291678848009    -1.103008856820     0.401436716373     1.007825032230
         H            2.499260151991    -0.803086856820     0.882259716373     1.007825032230
         H           -2.040683848009     1.535096143180     1.391732716373     1.007825032230

  Basis Set: AUG-CC-PVTZ
    Blend: AUG-CC-PVTZ
  Basis Set: (AUG-CC-PVTZ AUX)
    Blend: AUG-CC-PVTZ-JKFIT
	 Reference Energy          =    -569.6736704366296635 [Eh]
	 Singles Energy            =      -0.0000000000000000 [Eh]
	 Same-Spin Energy          =      -0.5545908715072552 [Eh]
	 Opposite-Spin Energy      =      -1.7043215759520252 [Eh]
	 Correlation Energy        =      -2.2589124474592803 [Eh]
	 Total Energy              =    -571.9325828840889017 [Eh]

	 ================> DF-SCS-MP2 Energies <==================
	-----------------------------------------------------------
	 SCS Same-Spin Scale       =       0.3333333333333333 [-]
	 SCS Opposite-Spin Scale   =       1.2000000000000000 [-]
	 SCS Same-Spin Energy      =      -0.1848636238357517 [Eh]
	 SCS Opposite-Spin Energy  =      -2.0451858911424301 [Eh]
	 SCS Correlation Energy    =      -2.2300495149781816 [Eh]
	 SCS Total Energy          =    -571.9037199516078545 [Eh]
	-----------------------------------------------------------

  Dipole Moment: [D]
     X:    -2.2919      Y:     0.9869      Z:     0.3464     Total:     2.5193

*** Psi4 exiting successfully. Buy a developer a beer!
