                               Psi4 1.3.2 release

  ==> Input File <==

--------------------------------------------------------------------------
#psi4
#
memory 32 gb

molecule  {
0 1
  O       -0.1099447    -1.7409367     0.5009763
  O        0.3584290     1.3939840    -1.0246780
  O       -1.9551560     1.3713260     0.4690830
  O        2.7148150     0.4505790    -0.2056670
  O       -1.6716310    -0.8002260    -0.9984850
  C        0.4315910     1.0135520     0.3497470
  C       -0.9093320     0.4742750     0.8400700
  C        1.4741470    -0.0348282     0.4718982
  C       -1.2151430    -0.9364420     0.3397180
  C        1.0549700    -1.3167000    -0.2286510
  H        0.7042560     1.8874530     0.9605880
  H       -0.8818830     0.4322700     1.9353370
  H        1.7837760    -0.2316310     1.4680400
  H       -1.9939520    -1.3968640     0.9617720
  H        0.8436020    -1.1475360    -1.2899680
  H        1.8059140    -2.1013880    -0.1265130
  H       -0.3930520     2.0121160    -1.0836700
  H       -2.3417080     0.9766970    -0.3400740
  H        2.3997000     0.9352960    -0.9928030
  H       -1.9956420    -1.6762600    -1.2784950
units angstrom
no_reorient  #important for SAPT in psi4, default
symmetry c1  #important for SAPT in psi4, default
}

set PROPERTIES_ORIGIN ["COM"]
properties('MP2/aug-cc-pvtz', properties = ['dipole'])
--------------------------------------------------------------------------

    Molecular point group: c1
  Charge       = 0
  Multiplicity = 1
  Basis Set: AUG-CC-PVTZ
    Blend: AUG-CC-PVTZ
  Basis Set: (AUG-CC-PVTZ AUX)
    Blend: AUG-CC-PVTZ-JKFIT

    Orbital Energies [Eh]
    ---------------------

    Doubly Occupied:

       1A    -20.593316     2A    -20.579639     3A    -20.572259
       4A    -20.572030     5A    -20.547987     6A    -11.352809
       7A    -11.295726     8A    -11.291651     9A    -11.284451
      10A    -11.283098    11A     -1.445212    12A     -1.389869
      13A     -1.373940    14A     -1.355348    15A     -1.325550
      16A     -1.066488    17A     -1.028148    18A     -0.899688
      19A     -0.870678    20A     -0.799831    21A     -0.755284
      22A     -0.730451    23A     -0.714164    24A     -0.694320
      25A     -0.666337    26A     -0.642983    27A     -0.619892
      28A     -0.615732    29A     -0.601493    30A     -0.586953
      31A     -0.564952    32A     -0.548939    33A     -0.540632
      34A     -0.519851    35A     -0.505841    36A     -0.490204
      37A     -0.482570    38A     -0.480746    39A     -0.440876
      40A     -0.413399

  @DF-RHF Final Energy:  -569.66596414676133

   => Energetics <=

    Nuclear Repulsion Energy =            635.3361781578421414
    One-Electron Energy =               -2044.9176148912310964
    Two-Electron Energy =                 839.9154725866276294
    Total Energy =                       -569.6659641467613255
  Basis Set: (AUG-CC-PVTZ AUX)
    Blend: AUG-CC-PVTZ-RI
    Molecular point group: c1

    Geometry (in Angstrom), charge = 0, multiplicity = 1:

       Center              X                  Y                   Z               Mass
    ------------   -----------------  -----------------  -----------------  -----------------
         O           -0.105631805787    -1.746789302952     0.491943835775    15.994914619570
         O            0.362741894213     1.388131397048    -1.033710464225    15.994914619570
         O           -1.950843105787     1.365473397048     0.460050535775    15.994914619570
         O            2.719127894213     0.444726397048    -0.214699464225    15.994914619570
         O           -1.667318105787    -0.806078602952    -1.007517464225    15.994914619570
         C            0.435903894213     1.007699397048     0.340714535775    12.000000000000
         C           -0.905019105787     0.468422397048     0.831037535775    12.000000000000
         C            1.478459894213    -0.040680802952     0.462865735775    12.000000000000
         C           -1.210830105787    -0.942294602952     0.330685535775    12.000000000000
         C            1.059282894213    -1.322552602952    -0.237683464225    12.000000000000
         H            0.708568894213     1.881600397048     0.951555535775     1.007825032230
         H           -0.877570105787     0.426417397048     1.926304535775     1.007825032230
         H            1.788088894213    -0.237483602952     1.459007535775     1.007825032230
         H           -1.989639105787    -1.402716602952     0.952739535775     1.007825032230
         H            0.847914894213    -1.153388602952    -1.299000464225     1.007825032230
         H            1.810226894213    -2.107240602952    -0.135545464225     1.007825032230
         H           -0.388739105787     2.006263397048    -1.092702464225     1.007825032230
         H           -2.337395105787     0.970844397048    -0.349106464225     1.007825032230
         H            2.404012894213     0.929443397048    -1.001835464225     1.007825032230
         H           -1.991329105787    -1.682112602952    -1.287527464225     1.007825032230

  Basis Set: AUG-CC-PVTZ
    Blend: AUG-CC-PVTZ
  Basis Set: (AUG-CC-PVTZ AUX)
    Blend: AUG-CC-PVTZ-JKFIT
	 Reference Energy          =    -569.6659641467613255 [Eh]
	 Singles Energy            =      -0.0000000000000000 [Eh]
	 Same-Spin Energy          =      -0.5550407599162508 [Eh]
	 Opposite-Spin Energy      =      -1.7047768633118978 [Eh]
	 Correlation Energy        =      -2.2598176232281486 [Eh]
	 Total Energy              =    -571.9257817699894986 [Eh]

	 ================> DF-SCS-MP2 Energies <==================
	-----------------------------------------------------------
	 SCS Same-Spin Scale       =       0.3333333333333333 [-]
	 SCS Opposite-Spin Scale   =       1.2000000000000000 [-]
	 SCS Same-Spin Energy      =      -0.1850135866387503 [Eh]
	 SCS Opposite-Spin Energy  =      -2.0457322359742771 [Eh]
	 SCS Correlation Energy    =      -2.2307458226130272 [Eh]
	 SCS Total Energy          =    -571.8967099693743421 [Eh]
	-----------------------------------------------------------

  Dipole Moment: [D]
     X:    -2.3487      Y:    -1.2797      Z:    -0.2783     Total:     2.6891

*** Psi4 exiting successfully. Buy a developer a beer!
