                               Psi4 1.3.2 release

  ==> Input File <==

--------------------------------------------------------------------------
#psi4
#
memory 32 gb

molecule  {
0 1
  O       -0.1147700    -1.8002930     0.4548730
  O        0.3584290     1.3939840    -1.0246780
  O       -1.9551560     1.3713260     0.4690830
  O        2.7148150     0.4505790    -0.2056670
  O       -1.6716310    -0.8002260    -0.9984850
  C        0.4315910     1.0135520     0.3497470
  C       -0.8991245     0.5036481     0.8789760
  C        1.5345100    -0.0288940     0.4204030
  C       -1.2151430    -0.9364420     0.3397180
  C        1.0549700    -1.3167000    -0.2286510
  H        0.7042560     1.8874530     0.9605880
  H       -0.8818830     0.4322700     1.9353370
  H        1.7837760    -0.2316310     1.4680400
  H       -1.9939520    -1.3968640     0.9617720
  H        0.8436020    -1.1475360    -1.2899680
  H        1.8059140    -2.1013880    -0.1265130
  H       -0.3930520     2.0121160    -1.0836700
  H       -2.3638663     1.0027083    -0.3414516
  H        2.3997000     0.9352960    -0.9928030
  H       -1.9956420    -1.6762600    -1.2784950
units angstrom
no_reorient  #important for SAPT in psi4, default
symmetry c1  #important for SAPT in psi4, default
}

set PROPERTIES_ORIGIN ["COM"]
properties('MP2/aug-cc-pvtz', properties = ['dipole'])
--------------------------------------------------------------------------

    Molecular point group: c1
  Charge       = 0
  Multiplicity = 1
  Basis Set: AUG-CC-PVTZ
    Blend: AUG-CC-PVTZ
  Basis Set: (AUG-CC-PVTZ AUX)
    Blend: AUG-CC-PVTZ-JKFIT

    Orbital Energies [Eh]
    ---------------------

    Doubly Occupied:

       1A    -20.590344     2A    -20.579146     3A    -20.572831
       4A    -20.572068     5A    -20.558149     6A    -11.353421
       7A    -11.298548     8A    -11.290608     9A    -11.285749
      10A    -11.277422    11A     -1.435735    12A     -1.390956
      13A     -1.373642    14A     -1.352409    15A     -1.347443
      16A     -1.059387    17A     -1.019324    18A     -0.894121
      19A     -0.873124    20A     -0.799731    21A     -0.749300
      22A     -0.727346    23A     -0.709245    24A     -0.698446
      25A     -0.670343    26A     -0.648732    27A     -0.619710
      28A     -0.612282    29A     -0.604332    30A     -0.585132
      31A     -0.571286    32A     -0.552443    33A     -0.544625
      34A     -0.517474    35A     -0.500878    36A     -0.489609
      37A     -0.485564    38A     -0.470140    39A     -0.442374
      40A     -0.410992

  @DF-RHF Final Energy:  -569.67264186780108

   => Energetics <=

    Nuclear Repulsion Energy =            632.9883958955218759
    One-Electron Energy =               -2040.2532551812869315
    Two-Electron Energy =                 837.5922174179638660
    Total Energy =                       -569.6726418678010759
  Basis Set: (AUG-CC-PVTZ AUX)
    Blend: AUG-CC-PVTZ-RI
    Molecular point group: c1

    Geometry (in Angstrom), charge = 0, multiplicity = 1:

       Center              X                  Y                   Z               Mass
    ------------   -----------------  -----------------  -----------------  -----------------
         O           -0.115437578877    -1.802816798469     0.451770961519    15.994914619570
         O            0.357761421123     1.391460201531    -1.027780038481    15.994914619570
         O           -1.955823578877     1.368802201531     0.465980961519    15.994914619570
         O            2.714147421123     0.448055201531    -0.208769038481    15.994914619570
         O           -1.672298578877    -0.802749798469    -1.001587038481    15.994914619570
         C            0.430923421123     1.011028201531     0.346644961519    12.000000000000
         C           -0.899792078877     0.501124301531     0.875873961519    12.000000000000
         C            1.533842421123    -0.031417798469     0.417300961519    12.000000000000
         C           -1.215810578877    -0.938965798469     0.336615961519    12.000000000000
         C            1.054302421123    -1.319223798469    -0.231753038481    12.000000000000
         H            0.703588421123     1.884929201531     0.957485961519     1.007825032230
         H           -0.882550578877     0.429746201531     1.932234961519     1.007825032230
         H            1.783108421123    -0.234154798469     1.464937961519     1.007825032230
         H           -1.994619578877    -1.399387798469     0.958669961519     1.007825032230
         H            0.842934421123    -1.150059798469    -1.293070038481     1.007825032230
         H            1.805246421123    -2.103911798469    -0.129615038481     1.007825032230
         H           -0.393719578877     2.009592201531    -1.086772038481     1.007825032230
         H           -2.364533878877     1.000184501531    -0.344553638481     1.007825032230
         H            2.399032421123     0.932772201531    -0.995905038481     1.007825032230
         H           -1.996309578877    -1.678783798469    -1.281597038481     1.007825032230

  Basis Set: AUG-CC-PVTZ
    Blend: AUG-CC-PVTZ
  Basis Set: (AUG-CC-PVTZ AUX)
    Blend: AUG-CC-PVTZ-JKFIT
	 Reference Energy          =    -569.6726418678010759 [Eh]
	 Singles Energy            =      -0.0000000000000000 [Eh]
	 Same-Spin Energy          =      -0.5542479393495892 [Eh]
	 Opposite-Spin Energy      =      -1.7033762901652476 [Eh]
	 Correlation Energy        =      -2.2576242295148368 [Eh]
	 Total Energy              =    -571.9302660973158936 [Eh]

	 ================> DF-SCS-MP2 Energies <==================
	-----------------------------------------------------------
	 SCS Same-Spin Scale       =       0.3333333333333333 [-]
	 SCS Opposite-Spin Scale   =       1.2000000000000000 [-]
	 SCS Same-Spin Energy      =      -0.1847493131165297 [Eh]
	 SCS Opposite-Spin Energy  =      -2.0440515481982970 [Eh]
	 SCS Correlation Energy    =      -2.2288008613148267 [Eh]
	 SCS Total Energy          =    -571.9014427291159564 [Eh]
	-----------------------------------------------------------

  Dipole Moment: [D]
     X:    -2.2101      Y:    -0.9362      Z:    -0.2681     Total:     2.4151

*** Psi4 exiting successfully. Buy a developer a beer!
