                               Psi4 1.3.2 release

  ==> Input File <==

--------------------------------------------------------------------------
#psi4
#
memory 32 gb

molecule  {
0 1
  O       -0.1147700    -1.8002930     0.4548730
  O        0.3584290     1.3939840    -1.0246780
  O       -1.9551560     1.3713260     0.4690830
  O        2.7148150     0.4505790    -0.2056670
  O       -1.6716310    -0.8002260    -0.9984850
  C        0.4315910     1.0135520     0.3497470
  C       -0.9100652     0.4935032     0.8584893
  C        1.5345100    -0.0288940     0.4204030
  C       -1.2151430    -0.9364420     0.3397180
  C        1.0549700    -1.3167000    -0.2286510
  H        0.6880100     1.8853071     0.9706079
  H       -0.8818830     0.4322700     1.9353370
  H        1.7837760    -0.2316310     1.4680400
  H       -1.9939520    -1.3968640     0.9617720
  H        0.8436020    -1.1475360    -1.2899680
  H        1.8059140    -2.1013880    -0.1265130
  H       -0.3930520     2.0121160    -1.0836700
  H       -2.3417080     0.9766970    -0.3400740
  H        2.3997000     0.9352960    -0.9928030
  H       -1.9956420    -1.6762600    -1.2784950
units angstrom
no_reorient  #important for SAPT in psi4, default
symmetry c1  #important for SAPT in psi4, default
}

set PROPERTIES_ORIGIN ["COM"]
properties('MP2/aug-cc-pvtz', properties = ['dipole'])
--------------------------------------------------------------------------

    Molecular point group: c1
  Charge       = 0
  Multiplicity = 1
  Basis Set: AUG-CC-PVTZ
    Blend: AUG-CC-PVTZ
  Basis Set: (AUG-CC-PVTZ AUX)
    Blend: AUG-CC-PVTZ-JKFIT

    Orbital Energies [Eh]
    ---------------------

    Doubly Occupied:

       1A    -20.591351     2A    -20.580145     3A    -20.574661
       4A    -20.571890     5A    -20.558184     6A    -11.353509
       7A    -11.297949     8A    -11.290675     9A    -11.285825
      10A    -11.277879    11A     -1.437618    12A     -1.392015
      13A     -1.376343    14A     -1.353908    15A     -1.348032
      16A     -1.058364    17A     -1.020629    18A     -0.896094
      19A     -0.871545    20A     -0.799160    21A     -0.751233
      22A     -0.727658    23A     -0.710855    24A     -0.697887
      25A     -0.670128    26A     -0.647335    27A     -0.620621
      28A     -0.613432    29A     -0.603714    30A     -0.585564
      31A     -0.572059    32A     -0.554690    33A     -0.544392
      34A     -0.517083    35A     -0.502020    36A     -0.490452
      37A     -0.486708    38A     -0.471152    39A     -0.440731
      40A     -0.413059

  @DF-RHF Final Energy:  -569.67432204765737

   => Energetics <=

    Nuclear Repulsion Energy =            633.4416364869462086
    One-Electron Energy =               -2041.1188201069423940
    Two-Electron Energy =                 838.0028615723388157
    Total Energy =                       -569.6743220476573697
  Basis Set: (AUG-CC-PVTZ AUX)
    Blend: AUG-CC-PVTZ-RI
    Molecular point group: c1

    Geometry (in Angstrom), charge = 0, multiplicity = 1:

       Center              X                  Y                   Z               Mass
    ------------   -----------------  -----------------  -----------------  -----------------
         O           -0.114602340770    -1.801816375234     0.453332769614    15.994914619570
         O            0.358596659230     1.392460624766    -1.026218230386    15.994914619570
         O           -1.954988340770     1.369802624766     0.467542769614    15.994914619570
         O            2.714982659230     0.449055624766    -0.207207230386    15.994914619570
         O           -1.671463340770    -0.801749375234    -1.000025230386    15.994914619570
         C            0.431758659230     1.012028624766     0.348206769614    12.000000000000
         C           -0.909897540770     0.491979824766     0.856949069614    12.000000000000
         C            1.534677659230    -0.030417375234     0.418862769614    12.000000000000
         C           -1.214975340770    -0.937965375234     0.338177769614    12.000000000000
         C            1.055137659230    -1.318223375234    -0.230191230386    12.000000000000
         H            0.688177659230     1.883783724766     0.969067669614     1.007825032230
         H           -0.881715340770     0.430746624766     1.933796769614     1.007825032230
         H            1.783943659230    -0.233154375234     1.466499769614     1.007825032230
         H           -1.993784340770    -1.398387375234     0.960231769614     1.007825032230
         H            0.843769659230    -1.149059375234    -1.291508230386     1.007825032230
         H            1.806081659230    -2.102911375234    -0.128053230386     1.007825032230
         H           -0.392884340770     2.010592624766    -1.085210230386     1.007825032230
         H           -2.341540340770     0.975173624766    -0.341614230386     1.007825032230
         H            2.399867659230     0.933772624766    -0.994343230386     1.007825032230
         H           -1.995474340770    -1.677783375234    -1.280035230386     1.007825032230

  Basis Set: AUG-CC-PVTZ
    Blend: AUG-CC-PVTZ
  Basis Set: (AUG-CC-PVTZ AUX)
    Blend: AUG-CC-PVTZ-JKFIT
	 Reference Energy          =    -569.6743220476573697 [Eh]
	 Singles Energy            =      -0.0000000000000000 [Eh]
	 Same-Spin Energy          =      -0.5544611954121849 [Eh]
	 Opposite-Spin Energy      =      -1.7035995351263991 [Eh]
	 Correlation Energy        =      -2.2580607305385838 [Eh]
	 Total Energy              =    -571.9323827781959153 [Eh]

	 ================> DF-SCS-MP2 Energies <==================
	-----------------------------------------------------------
	 SCS Same-Spin Scale       =       0.3333333333333333 [-]
	 SCS Opposite-Spin Scale   =       1.2000000000000000 [-]
	 SCS Same-Spin Energy      =      -0.1848203984707283 [Eh]
	 SCS Opposite-Spin Energy  =      -2.0443194421516786 [Eh]
	 SCS Correlation Energy    =      -2.2291398406224068 [Eh]
	 SCS Total Energy          =    -571.9034618882798213 [Eh]
	-----------------------------------------------------------

  Dipole Moment: [D]
     X:    -2.2000      Y:    -0.9720      Z:    -0.2872     Total:     2.4223

*** Psi4 exiting successfully. Buy a developer a beer!
