                               Psi4 1.3.2 release

  ==> Input File <==

--------------------------------------------------------------------------
#psi4
#
memory 32 gb

molecule  {
0 1
  O       -0.1163891    -1.8583238     0.4068963
  O        0.3584290     1.3939840    -1.0246780
  O       -1.9551560     1.3713260     0.4690830
  O        2.7148150     0.4505790    -0.2056670
  O       -1.6716310    -0.8002260    -0.9984850
  C        0.4315910     1.0135520     0.3497470
  C       -0.9093320     0.4742750     0.8400700
  C        1.5935586    -0.0264896     0.3671288
  C       -1.2151430    -0.9364420     0.3397180
  C        1.0549700    -1.3167000    -0.2286510
  H        0.7042560     1.8874530     0.9605880
  H       -0.8818830     0.4322700     1.9353370
  H        1.7837760    -0.2316310     1.4680400
  H       -1.9939520    -1.3968640     0.9617720
  H        0.8436020    -1.1475360    -1.2899680
  H        1.8059140    -2.1013880    -0.1265130
  H       -0.3930520     2.0121160    -1.0836700
  H       -2.3417080     0.9766970    -0.3400740
  H        2.3997000     0.9352960    -0.9928030
  H       -1.9956420    -1.6762600    -1.2784950
units angstrom
no_reorient  #important for SAPT in psi4, default
symmetry c1  #important for SAPT in psi4, default
}

set PROPERTIES_ORIGIN ["COM"]
properties('MP2/aug-cc-pvtz', properties = ['dipole'])
--------------------------------------------------------------------------

    Molecular point group: c1
  Charge       = 0
  Multiplicity = 1
  Basis Set: AUG-CC-PVTZ
    Blend: AUG-CC-PVTZ
  Basis Set: (AUG-CC-PVTZ AUX)
    Blend: AUG-CC-PVTZ-JKFIT

    Orbital Energies [Eh]
    ---------------------

    Doubly Occupied:

       1A    -20.590576     2A    -20.582282     3A    -20.576919
       4A    -20.570442     5A    -20.567815     6A    -11.355649
       7A    -11.301121     8A    -11.290309     9A    -11.289327
      10A    -11.273774    11A     -1.433742    12A     -1.404925
      13A     -1.383391    14A     -1.358857    15A     -1.349756
      16A     -1.052845    17A     -1.017717    18A     -0.898507
      19A     -0.868135    20A     -0.800398    21A     -0.752021
      22A     -0.725200    23A     -0.709566    24A     -0.699646
      25A     -0.673321    26A     -0.650399    27A     -0.626235
      28A     -0.616102    29A     -0.601838    30A     -0.585390
      31A     -0.575137    32A     -0.563376    33A     -0.544512
      34A     -0.511113    35A     -0.501764    36A     -0.494484
      37A     -0.486345    38A     -0.457417    39A     -0.438334
      40A     -0.413944

  @DF-RHF Final Energy:  -569.66486808552963

   => Energetics <=

    Nuclear Repulsion Energy =            632.3878210630012973
    One-Electron Energy =               -2038.9201133481935813
    Two-Electron Energy =                 836.8674241996627643
    Total Energy =                       -569.6648680855296334
  Basis Set: (AUG-CC-PVTZ AUX)
    Blend: AUG-CC-PVTZ-RI
    Molecular point group: c1

    Geometry (in Angstrom), charge = 0, multiplicity = 1:

       Center              X                  Y                   Z               Mass
    ------------   -----------------  -----------------  -----------------  -----------------
         O           -0.120938828575    -1.852330351665     0.416270916059    15.994914619570
         O            0.353879271425     1.399977448335    -1.015303383941    15.994914619570
         O           -1.959705728575     1.377319448335     0.478457616059    15.994914619570
         O            2.710265271425     0.456572448335    -0.196292383941    15.994914619570
         O           -1.676180728575    -0.794232551665    -0.989110383941    15.994914619570
         C            0.427041271425     1.019545448335     0.359121616059    12.000000000000
         C           -0.913881728575     0.480268448335     0.849444616059    12.000000000000
         C            1.589008871425    -0.020496151665     0.376503416059    12.000000000000
         C           -1.219692728575    -0.930448551665     0.349092616059    12.000000000000
         C            1.050420271425    -1.310706551665    -0.219276383941    12.000000000000
         H            0.699706271425     1.893446448335     0.969962616059     1.007825032230
         H           -0.886432728575     0.438263448335     1.944711616059     1.007825032230
         H            1.779226271425    -0.225637551665     1.477414616059     1.007825032230
         H           -1.998501728575    -1.390870551665     0.971146616059     1.007825032230
         H            0.839052271425    -1.141542551665    -1.280593383941     1.007825032230
         H            1.801364271425    -2.095394551665    -0.117138383941     1.007825032230
         H           -0.397601728575     2.018109448335    -1.074295383941     1.007825032230
         H           -2.346257728575     0.982690448335    -0.330699383941     1.007825032230
         H            2.395150271425     0.941289448335    -0.983428383941     1.007825032230
         H           -2.000191728575    -1.670266551665    -1.269120383941     1.007825032230

  Basis Set: AUG-CC-PVTZ
    Blend: AUG-CC-PVTZ
  Basis Set: (AUG-CC-PVTZ AUX)
    Blend: AUG-CC-PVTZ-JKFIT
	 Reference Energy          =    -569.6648680855296334 [Eh]
	 Singles Energy            =      -0.0000000000000000 [Eh]
	 Same-Spin Energy          =      -0.5549703737991835 [Eh]
	 Opposite-Spin Energy      =      -1.7045362538280102 [Eh]
	 Correlation Energy        =      -2.2595066276271938 [Eh]
	 Total Energy              =    -571.9243747131567943 [Eh]

	 ================> DF-SCS-MP2 Energies <==================
	-----------------------------------------------------------
	 SCS Same-Spin Scale       =       0.3333333333333333 [-]
	 SCS Opposite-Spin Scale   =       1.2000000000000000 [-]
	 SCS Same-Spin Energy      =      -0.1849901245997278 [Eh]
	 SCS Opposite-Spin Energy  =      -2.0454435045936123 [Eh]
	 SCS Correlation Energy    =      -2.2304336291933402 [Eh]
	 SCS Total Energy          =    -571.8953017147230184 [Eh]
	-----------------------------------------------------------

  Dipole Moment: [D]
     X:    -2.0292      Y:    -0.7223      Z:    -0.3422     Total:     2.1809

*** Psi4 exiting successfully. Buy a developer a beer!
