                               Psi4 1.3.2 release

  ==> Input File <==

--------------------------------------------------------------------------
#psi4
#
memory 32 gb

molecule  {
0 1
  O       -0.1147700    -1.8002930     0.4548730
  O        0.3584290     1.3939840    -1.0246780
  O       -1.9551560     1.3713260     0.4690830
  O        2.7148150     0.4505790    -0.2056670
  O       -1.6716310    -0.8002260    -0.9984850
  C        0.4315910     1.0135520     0.3497470
  C       -0.9093320     0.4742750     0.8400700
  C        1.5345100    -0.0288940     0.4204030
  C       -1.2030512    -0.8883582     0.3395692
  C        1.0549700    -1.3167000    -0.2286510
  H        0.7042560     1.8874530     0.9605880
  H       -0.8818830     0.4322700     1.9353370
  H        1.7837760    -0.2316310     1.4680400
  H       -1.9939520    -1.3968640     0.9617720
  H        0.8436020    -1.1475360    -1.2899680
  H        1.8059140    -2.1013880    -0.1265130
  H       -0.3930520     2.0121160    -1.0836700
  H       -2.3417080     0.9766970    -0.3400740
  H        2.3997000     0.9352960    -0.9928030
  H       -2.0034346    -1.6630103    -1.3088620
units angstrom
no_reorient  #important for SAPT in psi4, default
symmetry c1  #important for SAPT in psi4, default
}

set PROPERTIES_ORIGIN ["COM"]
properties('MP2/aug-cc-pvtz', properties = ['dipole'])
--------------------------------------------------------------------------

    Molecular point group: c1
  Charge       = 0
  Multiplicity = 1
  Basis Set: AUG-CC-PVTZ
    Blend: AUG-CC-PVTZ
  Basis Set: (AUG-CC-PVTZ AUX)
    Blend: AUG-CC-PVTZ-JKFIT

    Orbital Energies [Eh]
    ---------------------

    Doubly Occupied:

       1A    -20.589935     2A    -20.579713     3A    -20.576631
       4A    -20.572299     5A    -20.558314     6A    -11.355638
       7A    -11.299328     8A    -11.292095     9A    -11.285739
      10A    -11.276349    11A     -1.435630    12A     -1.391806
      13A     -1.376056    14A     -1.351184    15A     -1.348382
      16A     -1.063965    17A     -1.025136    18A     -0.902831
      19A     -0.868137    20A     -0.800504    21A     -0.750346
      22A     -0.729511    23A     -0.709819    24A     -0.697523
      25A     -0.670546    26A     -0.646827    27A     -0.617139
      28A     -0.613405    29A     -0.604848    30A     -0.583330
      31A     -0.567565    32A     -0.558929    33A     -0.543490
      34A     -0.517841    35A     -0.497680    36A     -0.495021
      37A     -0.488344    38A     -0.470057    39A     -0.440047
      40A     -0.418457

  @DF-RHF Final Energy:  -569.67035850221771

   => Energetics <=

    Nuclear Repulsion Energy =            634.4197557385241453
    One-Electron Energy =               -2043.0394344585486124
    Two-Electron Energy =                 838.9493202178067577
    Total Energy =                       -569.6703585022177094
  Basis Set: (AUG-CC-PVTZ AUX)
    Blend: AUG-CC-PVTZ-RI
    Molecular point group: c1

    Geometry (in Angstrom), charge = 0, multiplicity = 1:

       Center              X                  Y                   Z               Mass
    ------------   -----------------  -----------------  -----------------  -----------------
         O           -0.115684756579    -1.804227414645     0.455088952022    15.994914619570
         O            0.357514243421     1.390049585355    -1.024462047978    15.994914619570
         O           -1.956070756579     1.367391585355     0.469298952022    15.994914619570
         O            2.713900243421     0.446644585355    -0.205451047978    15.994914619570
         O           -1.672545756579    -0.804160414645    -0.998269047978    15.994914619570
         C            0.430676243421     1.009617585355     0.349962952022    12.000000000000
         C           -0.910246756579     0.470340585355     0.840285952022    12.000000000000
         C            1.533595243421    -0.032828414645     0.420618952022    12.000000000000
         C           -1.203965956579    -0.892292614645     0.339785152022    12.000000000000
         C            1.054055243421    -1.320634414645    -0.228435047978    12.000000000000
         H            0.703341243421     1.883518585355     0.960803952022     1.007825032230
         H           -0.882797756579     0.428335585355     1.935552952022     1.007825032230
         H            1.782861243421    -0.235565414645     1.468255952022     1.007825032230
         H           -1.994866756579    -1.400798414645     0.961987952022     1.007825032230
         H            0.842687243421    -1.151470414645    -1.289752047978     1.007825032230
         H            1.804999243421    -2.105322414645    -0.126297047978     1.007825032230
         H           -0.393966756579     2.008181585355    -1.083454047978     1.007825032230
         H           -2.342622756579     0.972762585355    -0.339858047978     1.007825032230
         H            2.398785243421     0.931361585355    -0.992587047978     1.007825032230
         H           -2.004349356579    -1.666944714645    -1.308646047978     1.007825032230

  Basis Set: AUG-CC-PVTZ
    Blend: AUG-CC-PVTZ
  Basis Set: (AUG-CC-PVTZ AUX)
    Blend: AUG-CC-PVTZ-JKFIT
	 Reference Energy          =    -569.6703585022177094 [Eh]
	 Singles Energy            =      -0.0000000000000000 [Eh]
	 Same-Spin Energy          =      -0.5550426706171303 [Eh]
	 Opposite-Spin Energy      =      -1.7046602306799725 [Eh]
	 Correlation Energy        =      -2.2597029012971026 [Eh]
	 Total Energy              =    -571.9300614035148556 [Eh]

	 ================> DF-SCS-MP2 Energies <==================
	-----------------------------------------------------------
	 SCS Same-Spin Scale       =       0.3333333333333333 [-]
	 SCS Opposite-Spin Scale   =       1.2000000000000000 [-]
	 SCS Same-Spin Energy      =      -0.1850142235390434 [Eh]
	 SCS Opposite-Spin Energy  =      -2.0455922768159671 [Eh]
	 SCS Correlation Energy    =      -2.2306065003550106 [Eh]
	 SCS Total Energy          =    -571.9009650025727751 [Eh]
	-----------------------------------------------------------

  Dipole Moment: [D]
     X:    -2.2000      Y:    -0.8589      Z:    -0.3310     Total:     2.3848

*** Psi4 exiting successfully. Buy a developer a beer!
