                               Psi4 1.3.2 release

  ==> Input File <==

--------------------------------------------------------------------------
#psi4
#
memory 32 gb

molecule  {
0 1
  O       -0.1147700    -1.8002930     0.4548730
  O        0.3584290     1.3939840    -1.0246780
  O       -1.9647801     1.3787014     0.5173907
  O        2.7148150     0.4505790    -0.2056670
  O       -1.6716310    -0.8002260    -0.9984850
  C        0.4315910     1.0135520     0.3497470
  C       -0.9093320     0.4742750     0.8400700
  C        1.5345100    -0.0288940     0.4204030
  C       -1.2151430    -0.9364420     0.3397180
  C        1.0549700    -1.3167000    -0.2286510
  H        0.7042560     1.8874530     0.9605880
  H       -0.9110162     0.4570659     1.9363495
  H        1.7837760    -0.2316310     1.4680400
  H       -1.9939520    -1.3968640     0.9617720
  H        0.8436020    -1.1475360    -1.2899680
  H        1.8059140    -2.1013880    -0.1265130
  H       -0.3930520     2.0121160    -1.0836700
  H       -2.3417080     0.9766970    -0.3400740
  H        2.3997000     0.9352960    -0.9928030
  H       -1.9956420    -1.6762600    -1.2784950
units angstrom
no_reorient  #important for SAPT in psi4, default
symmetry c1  #important for SAPT in psi4, default
}

set PROPERTIES_ORIGIN ["COM"]
properties('MP2/aug-cc-pvtz', properties = ['dipole'])
--------------------------------------------------------------------------

    Molecular point group: c1
  Charge       = 0
  Multiplicity = 1
  Basis Set: AUG-CC-PVTZ
    Blend: AUG-CC-PVTZ
  Basis Set: (AUG-CC-PVTZ AUX)
    Blend: AUG-CC-PVTZ-JKFIT

    Orbital Energies [Eh]
    ---------------------

    Doubly Occupied:

       1A    -20.592722     2A    -20.581157     3A    -20.577755
       4A    -20.572528     5A    -20.558619     6A    -11.354359
       7A    -11.297086     8A    -11.291615     9A    -11.285935
      10A    -11.278472    11A     -1.438650    12A     -1.390977
      13A     -1.372722    14A     -1.353539    15A     -1.347408
      16A     -1.057892    17A     -1.022196    18A     -0.898974
      19A     -0.868174    20A     -0.798182    21A     -0.752855
      22A     -0.727753    23A     -0.711374    24A     -0.692739
      25A     -0.670156    26A     -0.642598    27A     -0.621704
      28A     -0.614756    29A     -0.601143    30A     -0.584097
      31A     -0.570027    32A     -0.556018    33A     -0.543992
      34A     -0.515228    35A     -0.503069    36A     -0.491747
      37A     -0.487996    38A     -0.472228    39A     -0.440424
      40A     -0.416065

  @DF-RHF Final Energy:  -569.66970118074153

   => Energetics <=

    Nuclear Repulsion Energy =            633.0517382479220032
    One-Electron Energy =               -2040.3330163389334757
    Two-Electron Energy =                 837.6115769102699460
    Total Energy =                       -569.6697011807415265
  Basis Set: (AUG-CC-PVTZ AUX)
    Blend: AUG-CC-PVTZ-RI
    Molecular point group: c1

    Geometry (in Angstrom), charge = 0, multiplicity = 1:

       Center              X                  Y                   Z               Mass
    ------------   -----------------  -----------------  -----------------  -----------------
         O           -0.113548536537    -1.801245796925     0.449716922598    15.994914619570
         O            0.359650463463     1.393031203075    -1.029834077402    15.994914619570
         O           -1.963558636537     1.377748603075     0.512234622598    15.994914619570
         O            2.716036463463     0.449626203075    -0.210823077402    15.994914619570
         O           -1.670409536537    -0.801178796925    -1.003641077402    15.994914619570
         C            0.432812463463     1.012599203075     0.344590922598    12.000000000000
         C           -0.908110536537     0.473322203075     0.834913922598    12.000000000000
         C            1.535731463463    -0.029846796925     0.415246922598    12.000000000000
         C           -1.213921536537    -0.937394796925     0.334561922598    12.000000000000
         C            1.056191463463    -1.317652796925    -0.233807077402    12.000000000000
         H            0.705477463463     1.886500203075     0.955431922598     1.007825032230
         H           -0.909794736537     0.456113103075     1.931193422598     1.007825032230
         H            1.784997463463    -0.232583796925     1.462883922598     1.007825032230
         H           -1.992730536537    -1.397816796925     0.956615922598     1.007825032230
         H            0.844823463463    -1.148488796925    -1.295124077402     1.007825032230
         H            1.807135463463    -2.102340796925    -0.131669077402     1.007825032230
         H           -0.391830536537     2.011163203075    -1.088826077402     1.007825032230
         H           -2.340486536537     0.975744203075    -0.345230077402     1.007825032230
         H            2.400921463463     0.934343203075    -0.997959077402     1.007825032230
         H           -1.994420536537    -1.677212796925    -1.283651077402     1.007825032230

  Basis Set: AUG-CC-PVTZ
    Blend: AUG-CC-PVTZ
  Basis Set: (AUG-CC-PVTZ AUX)
    Blend: AUG-CC-PVTZ-JKFIT
	 Reference Energy          =    -569.6697011807415265 [Eh]
	 Singles Energy            =      -0.0000000000000000 [Eh]
	 Same-Spin Energy          =      -0.5552047976121243 [Eh]
	 Opposite-Spin Energy      =      -1.7054369031793757 [Eh]
	 Correlation Energy        =      -2.2606417007915001 [Eh]
	 Total Energy              =    -571.9303428815330790 [Eh]

	 ================> DF-SCS-MP2 Energies <==================
	-----------------------------------------------------------
	 SCS Same-Spin Scale       =       0.3333333333333333 [-]
	 SCS Opposite-Spin Scale   =       1.2000000000000000 [-]
	 SCS Same-Spin Energy      =      -0.1850682658707081 [Eh]
	 SCS Opposite-Spin Energy  =      -2.0465242838152506 [Eh]
	 SCS Correlation Energy    =      -2.2315925496859585 [Eh]
	 SCS Total Energy          =    -571.9012937304274828 [Eh]
	-----------------------------------------------------------

  Dipole Moment: [D]
     X:    -2.1502      Y:    -1.0001      Z:    -0.3858     Total:     2.4026

*** Psi4 exiting successfully. Buy a developer a beer!
