                               Psi4 1.3.2 release

  ==> Input File <==

--------------------------------------------------------------------------
#psi4
#
memory 32 gb

molecule  {
0 1
  O       -0.1147700    -1.8002930     0.4548730
  O        0.3584290     1.3939840    -1.0246780
  O       -1.9551560     1.3713260     0.4690830
  O        2.7148150     0.4505790    -0.2056670
  O       -1.6716310    -0.8002260    -0.9984850
  C        0.4315910     1.0135520     0.3497470
  C       -0.9093320     0.4742750     0.8400700
  C        1.5345100    -0.0288940     0.4204030
  C       -1.2151430    -0.9364420     0.3397180
  C        1.0549700    -1.3167000    -0.2286510
  H        0.7042560     1.8874530     0.9605880
  H       -0.8818830     0.4322700     1.9353370
  H        1.8292708    -0.2686335     1.6592494
  H       -1.9939520    -1.3968640     0.9617720
  H        0.8436020    -1.1475360    -1.2899680
  H        1.8059140    -2.1013880    -0.1265130
  H       -0.3930520     2.0121160    -1.0836700
  H       -2.3417080     0.9766970    -0.3400740
  H        2.3997000     0.9352960    -0.9928030
  H       -1.9956420    -1.6762600    -1.2784950
units angstrom
no_reorient  #important for SAPT in psi4, default
symmetry c1  #important for SAPT in psi4, default
}

set PROPERTIES_ORIGIN ["COM"]
properties('MP2/aug-cc-pvtz', properties = ['dipole'])
--------------------------------------------------------------------------

    Molecular point group: c1
  Charge       = 0
  Multiplicity = 1
  Basis Set: AUG-CC-PVTZ
    Blend: AUG-CC-PVTZ
  Basis Set: (AUG-CC-PVTZ AUX)
    Blend: AUG-CC-PVTZ-JKFIT

    Orbital Energies [Eh]
    ---------------------

    Doubly Occupied:

       1A    -20.592001     2A    -20.580981     3A    -20.574954
       4A    -20.572962     5A    -20.561984     6A    -11.354075
       7A    -11.308576     8A    -11.298494     9A    -11.293176
      10A    -11.280756    11A     -1.439107    12A     -1.393064
      13A     -1.376619    14A     -1.354594    15A     -1.349799
      16A     -1.057022    17A     -1.021929    18A     -0.899958
      19A     -0.864888    20A     -0.789120    21A     -0.749897
      22A     -0.728246    23A     -0.712473    24A     -0.696854
      25A     -0.669750    26A     -0.646467    27A     -0.620911
      28A     -0.615190    29A     -0.602775    30A     -0.576105
      31A     -0.571219    32A     -0.557385    33A     -0.542240
      34A     -0.509621    35A     -0.503161    36A     -0.492050
      37A     -0.484824    38A     -0.461829    39A     -0.442082
      40A     -0.416506

  @DF-RHF Final Energy:  -569.65423516153623

   => Energetics <=

    Nuclear Repulsion Energy =            632.7397543119701595
    One-Electron Energy =               -2039.6606921782226891
    Two-Electron Energy =                 837.2667027047164083
    Total Energy =                       -569.6542351615362350
  Basis Set: (AUG-CC-PVTZ AUX)
    Blend: AUG-CC-PVTZ-RI
    Molecular point group: c1

    Geometry (in Angstrom), charge = 0, multiplicity = 1:

       Center              X                  Y                   Z               Mass
    ------------   -----------------  -----------------  -----------------  -----------------
         O           -0.115075656248    -1.800044547500     0.453588841345    15.994914619570
         O            0.358123343752     1.394232452500    -1.025962158655    15.994914619570
         O           -1.955461656248     1.371574452500     0.467798841345    15.994914619570
         O            2.714509343752     0.450827452500    -0.206951158655    15.994914619570
         O           -1.671936656248    -0.799977547500    -0.999769158655    15.994914619570
         C            0.431285343752     1.013800452500     0.348462841345    12.000000000000
         C           -0.909637656248     0.474523452500     0.838785841345    12.000000000000
         C            1.534204343752    -0.028645547500     0.419118841345    12.000000000000
         C           -1.215448656248    -0.936193547500     0.338433841345    12.000000000000
         C            1.054664343752    -1.316451547500    -0.229935158655    12.000000000000
         H            0.703950343752     1.887701452500     0.959303841345     1.007825032230
         H           -0.882188656248     0.432518452500     1.934052841345     1.007825032230
         H            1.828965143752    -0.268385047500     1.657965241345     1.007825032230
         H           -1.994257656248    -1.396615547500     0.960487841345     1.007825032230
         H            0.843296343752    -1.147287547500    -1.291252158655     1.007825032230
         H            1.805608343752    -2.101139547500    -0.127797158655     1.007825032230
         H           -0.393357656248     2.012364452500    -1.084954158655     1.007825032230
         H           -2.342013656248     0.976945452500    -0.341358158655     1.007825032230
         H            2.399394343752     0.935544452500    -0.994087158655     1.007825032230
         H           -1.995947656248    -1.676011547500    -1.279779158655     1.007825032230

  Basis Set: AUG-CC-PVTZ
    Blend: AUG-CC-PVTZ
  Basis Set: (AUG-CC-PVTZ AUX)
    Blend: AUG-CC-PVTZ-JKFIT
	 Reference Energy          =    -569.6542351615362350 [Eh]
	 Singles Energy            =      -0.0000000000000000 [Eh]
	 Same-Spin Energy          =      -0.5549107653616971 [Eh]
	 Opposite-Spin Energy      =      -1.7057768030914460 [Eh]
	 Correlation Energy        =      -2.2606875684531431 [Eh]
	 Total Energy              =    -571.9149227299893710 [Eh]

	 ================> DF-SCS-MP2 Energies <==================
	-----------------------------------------------------------
	 SCS Same-Spin Scale       =       0.3333333333333333 [-]
	 SCS Opposite-Spin Scale   =       1.2000000000000000 [-]
	 SCS Same-Spin Energy      =      -0.1849702551205657 [Eh]
	 SCS Opposite-Spin Energy  =      -2.0469321637097351 [Eh]
	 SCS Correlation Energy    =      -2.2319024188303009 [Eh]
	 SCS Total Energy          =    -571.8861375803664941 [Eh]
	-----------------------------------------------------------

  Dipole Moment: [D]
     X:    -2.1868      Y:    -0.9669      Z:    -0.4322     Total:     2.4297

*** Psi4 exiting successfully. Buy a developer a beer!
