                               Psi4 1.3.2 release

  ==> Input File <==

--------------------------------------------------------------------------
#psi4
#
memory 32 gb

molecule  {
0 1
  O       -0.1176353    -1.8105106     0.3821550
  O        0.3584290     1.3939840    -1.0246780
  O       -1.9551560     1.3713260     0.4690830
  O        2.7148150     0.4505790    -0.2056670
  O       -1.6178320    -0.8470545    -1.0195372
  C        0.4315910     1.0135520     0.3497470
  C       -0.9093320     0.4742750     0.8400700
  C        1.5345100    -0.0288940     0.4204030
  C       -1.2151430    -0.9364420     0.3397180
  C        1.0549700    -1.3167000    -0.2286510
  H        0.7042560     1.8874530     0.9605880
  H       -0.8818830     0.4322700     1.9353370
  H        1.7837760    -0.2316310     1.4680400
  H       -1.9939520    -1.3968640     0.9617720
  H        0.8436020    -1.1475360    -1.2899680
  H        1.8059140    -2.1013880    -0.1265130
  H       -0.3930520     2.0121160    -1.0836700
  H       -2.3417080     0.9766970    -0.3400740
  H        2.3997000     0.9352960    -0.9928030
  H       -1.9956420    -1.6762600    -1.2784950
units angstrom
no_reorient  #important for SAPT in psi4, default
symmetry c1  #important for SAPT in psi4, default
}

set PROPERTIES_ORIGIN ["COM"]
properties('MP2/aug-cc-pvtz', properties = ['dipole'])
--------------------------------------------------------------------------

    Molecular point group: c1
  Charge       = 0
  Multiplicity = 1
  Basis Set: AUG-CC-PVTZ
    Blend: AUG-CC-PVTZ
  Basis Set: (AUG-CC-PVTZ AUX)
    Blend: AUG-CC-PVTZ-JKFIT

    Orbital Energies [Eh]
    ---------------------

    Doubly Occupied:

       1A    -20.583847     2A    -20.578567     3A    -20.574906
       4A    -20.571425     5A    -20.557850     6A    -11.355731
       7A    -11.301915     8A    -11.291771     9A    -11.285008
      10A    -11.273292    11A     -1.443682    12A     -1.393331
      13A     -1.376459    14A     -1.354623    15A     -1.347821
      16A     -1.060335    17A     -1.024611    18A     -0.898579
      19A     -0.874250    20A     -0.799854    21A     -0.752040
      22A     -0.727651    23A     -0.715556    24A     -0.698728
      25A     -0.671008    26A     -0.647137    27A     -0.620875
      28A     -0.614124    29A     -0.605562    30A     -0.585478
      31A     -0.572301    32A     -0.554471    33A     -0.544562
      34A     -0.517027    35A     -0.503208    36A     -0.492882
      37A     -0.485863    38A     -0.462297    39A     -0.442012
      40A     -0.415437

  @DF-RHF Final Energy:  -569.67449740064251

   => Energetics <=

    Nuclear Repulsion Energy =            634.6267919586498465
    One-Electron Energy =               -2043.4504240499709340
    Two-Electron Energy =                 839.1491346906785793
    Total Energy =                       -569.6744974006425082
  Basis Set: (AUG-CC-PVTZ AUX)
    Blend: AUG-CC-PVTZ-RI
    Molecular point group: c1

    Geometry (in Angstrom), charge = 0, multiplicity = 1:

       Center              X                  Y                   Z               Mass
    ------------   -----------------  -----------------  -----------------  -----------------
         O           -0.123064681127    -1.804429831699     0.392150548877    15.994914619570
         O            0.352999618873     1.400064768301    -1.014682451123    15.994914619570
         O           -1.960585381127     1.377406768301     0.479078548877    15.994914619570
         O            2.709385618873     0.456659768301    -0.195671451123    15.994914619570
         O           -1.623261381127    -0.840973731699    -1.009541651123    15.994914619570
         C            0.426161618873     1.019632768301     0.359742548877    12.000000000000
         C           -0.914761381127     0.480355768301     0.850065548877    12.000000000000
         C            1.529080618873    -0.022813231699     0.430398548877    12.000000000000
         C           -1.220572381127    -0.930361231699     0.349713548877    12.000000000000
         C            1.049540618873    -1.310619231699    -0.218655451123    12.000000000000
         H            0.698826618873     1.893533768301     0.970583548877     1.007825032230
         H           -0.887312381127     0.438350768301     1.945332548877     1.007825032230
         H            1.778346618873    -0.225550231699     1.478035548877     1.007825032230
         H           -1.999381381127    -1.390783231699     0.971767548877     1.007825032230
         H            0.838172618873    -1.141455231699    -1.279972451123     1.007825032230
         H            1.800484618873    -2.095307231699    -0.116517451123     1.007825032230
         H           -0.398481381127     2.018196768301    -1.073674451123     1.007825032230
         H           -2.347137381127     0.982777768301    -0.330078451123     1.007825032230
         H            2.394270618873     0.941376768301    -0.982807451123     1.007825032230
         H           -2.001071381127    -1.670179231699    -1.268499451123     1.007825032230

  Basis Set: AUG-CC-PVTZ
    Blend: AUG-CC-PVTZ
  Basis Set: (AUG-CC-PVTZ AUX)
    Blend: AUG-CC-PVTZ-JKFIT
	 Reference Energy          =    -569.6744974006425082 [Eh]
	 Singles Energy            =      -0.0000000000000000 [Eh]
	 Same-Spin Energy          =      -0.5539108993237984 [Eh]
	 Opposite-Spin Energy      =      -1.7020138013535113 [Eh]
	 Correlation Energy        =      -2.2559247006773098 [Eh]
	 Total Energy              =    -571.9304221013197775 [Eh]

	 ================> DF-SCS-MP2 Energies <==================
	-----------------------------------------------------------
	 SCS Same-Spin Scale       =       0.3333333333333333 [-]
	 SCS Opposite-Spin Scale   =       1.2000000000000000 [-]
	 SCS Same-Spin Energy      =      -0.1846369664412661 [Eh]
	 SCS Opposite-Spin Energy  =      -2.0424165616242136 [Eh]
	 SCS Correlation Energy    =      -2.2270535280654800 [Eh]
	 SCS Total Energy          =    -571.9015509287079340 [Eh]
	-----------------------------------------------------------

  Dipole Moment: [D]
     X:    -2.3607      Y:    -0.8384      Z:    -0.0655     Total:     2.5060

*** Psi4 exiting successfully. Buy a developer a beer!
