                               Psi4 1.3.2 release

  ==> Input File <==

--------------------------------------------------------------------------
#psi4
#
memory 32 gb

molecule  {
0 1
  O       -0.1147700    -1.8002930     0.4548730
  O        0.3584290     1.3939840    -1.0246780
  O       -1.9551560     1.3713260     0.4690830
  O        2.7148150     0.4505790    -0.2056670
  O       -1.6716310    -0.8002260    -0.9984850
  C        0.4315910     1.0135520     0.3497470
  C       -0.9310756     0.5218648     0.8300534
  C        1.5683757     0.0069650     0.4009266
  C       -1.2151430    -0.9364420     0.3397180
  C        1.0549700    -1.3167000    -0.2286510
  H        0.7042560     1.8874530     0.9605880
  H       -0.8818830     0.4322700     1.9353370
  H        1.7837760    -0.2316310     1.4680400
  H       -1.9939520    -1.3968640     0.9617720
  H        0.8436020    -1.1475360    -1.2899680
  H        1.8059140    -2.1013880    -0.1265130
  H       -0.3930520     2.0121160    -1.0836700
  H       -2.3417080     0.9766970    -0.3400740
  H        2.3997000     0.9352960    -0.9928030
  H       -1.9956420    -1.6762600    -1.2784950
units angstrom
no_reorient  #important for SAPT in psi4, default
symmetry c1  #important for SAPT in psi4, default
}

set PROPERTIES_ORIGIN ["COM"]
properties('MP2/aug-cc-pvtz', properties = ['dipole'])
--------------------------------------------------------------------------

    Molecular point group: c1
  Charge       = 0
  Multiplicity = 1
  Basis Set: AUG-CC-PVTZ
    Blend: AUG-CC-PVTZ
  Basis Set: (AUG-CC-PVTZ AUX)
    Blend: AUG-CC-PVTZ-JKFIT

    Orbital Energies [Eh]
    ---------------------

    Doubly Occupied:

       1A    -20.589811     2A    -20.579819     3A    -20.579283
       4A    -20.570170     5A    -20.563839     6A    -11.352109
       7A    -11.299196     8A    -11.288066     9A    -11.286666
      10A    -11.275825    11A     -1.438032    12A     -1.400495
      13A     -1.391732    14A     -1.358666    15A     -1.354494
      16A     -1.051585    17A     -1.013232    18A     -0.892642
      19A     -0.872241    20A     -0.800501    21A     -0.752370
      22A     -0.726332    23A     -0.711155    24A     -0.704366
      25A     -0.674685    26A     -0.649166    27A     -0.622377
      28A     -0.617471    29A     -0.603567    30A     -0.591412
      31A     -0.573540    32A     -0.558779    33A     -0.546638
      34A     -0.512134    35A     -0.501778    36A     -0.490294
      37A     -0.482355    38A     -0.466707    39A     -0.439388
      40A     -0.404001

  @DF-RHF Final Energy:  -569.67035401457622

   => Energetics <=

    Nuclear Repulsion Energy =            633.6079573975507628
    One-Electron Energy =               -2041.3827827994537074
    Two-Electron Energy =                 838.1044713873267256
    Total Energy =                       -569.6703540145762190
  Basis Set: (AUG-CC-PVTZ AUX)
    Blend: AUG-CC-PVTZ-RI
    Molecular point group: c1

    Geometry (in Angstrom), charge = 0, multiplicity = 1:

       Center              X                  Y                   Z               Mass
    ------------   -----------------  -----------------  -----------------  -----------------
         O           -0.115739518476    -1.806966627486     0.457231702621    15.994914619570
         O            0.357459481524     1.387310372514    -1.022319297379    15.994914619570
         O           -1.956125518476     1.364652372514     0.471441702621    15.994914619570
         O            2.713845481524     0.443905372514    -0.203308297379    15.994914619570
         O           -1.672600518476    -0.806899627486    -0.996126297379    15.994914619570
         C            0.430621481524     1.006878372514     0.352105702621    12.000000000000
         C           -0.932045118476     0.515191172514     0.832412102621    12.000000000000
         C            1.567406181524     0.000291372514     0.403285302621    12.000000000000
         C           -1.216112518476    -0.943115627486     0.342076702621    12.000000000000
         C            1.054000481524    -1.323373627486    -0.226292297379    12.000000000000
         H            0.703286481524     1.880779372514     0.962946702621     1.007825032230
         H           -0.882852518476     0.425596372514     1.937695702621     1.007825032230
         H            1.782806481524    -0.238304627486     1.470398702621     1.007825032230
         H           -1.994921518476    -1.403537627486     0.964130702621     1.007825032230
         H            0.842632481524    -1.154209627486    -1.287609297379     1.007825032230
         H            1.804944481524    -2.108061627486    -0.124154297379     1.007825032230
         H           -0.394021518476     2.005442372514    -1.081311297379     1.007825032230
         H           -2.342677518476     0.970023372514    -0.337715297379     1.007825032230
         H            2.398730481524     0.928622372514    -0.990444297379     1.007825032230
         H           -1.996611518476    -1.682933627486    -1.276136297379     1.007825032230

  Basis Set: AUG-CC-PVTZ
    Blend: AUG-CC-PVTZ
  Basis Set: (AUG-CC-PVTZ AUX)
    Blend: AUG-CC-PVTZ-JKFIT
	 Reference Energy          =    -569.6703540145762190 [Eh]
	 Singles Energy            =      -0.0000000000000000 [Eh]
	 Same-Spin Energy          =      -0.5545716605827624 [Eh]
	 Opposite-Spin Energy      =      -1.7028712547017668 [Eh]
	 Correlation Energy        =      -2.2574429152845292 [Eh]
	 Total Energy              =    -571.9277969298607331 [Eh]

	 ================> DF-SCS-MP2 Energies <==================
	-----------------------------------------------------------
	 SCS Same-Spin Scale       =       0.3333333333333333 [-]
	 SCS Opposite-Spin Scale   =       1.2000000000000000 [-]
	 SCS Same-Spin Energy      =      -0.1848572201942541 [Eh]
	 SCS Opposite-Spin Energy  =      -2.0434455056421199 [Eh]
	 SCS Correlation Energy    =      -2.2283027258363739 [Eh]
	 SCS Total Energy          =    -571.8986567404125481 [Eh]
	-----------------------------------------------------------

  Dipole Moment: [D]
     X:    -2.1505      Y:    -0.8086      Z:    -0.4032     Total:     2.3326

*** Psi4 exiting successfully. Buy a developer a beer!
