                               Psi4 1.3.2 release

  ==> Input File <==

--------------------------------------------------------------------------
#psi4
#
memory 32 gb

molecule  {
0 1
  O       -0.1147700    -1.8002930     0.4548730
  O        0.3584290     1.3939840    -1.0246780
  O       -1.9551560     1.3713260     0.4690830
  O        2.7148150     0.4505790    -0.2056670
  O       -1.6716310    -0.8002260    -0.9984850
  C        0.4315910     1.0135520     0.3497470
  C       -0.9642878     0.4636561     0.8972051
  C        1.5345100    -0.0288940     0.4204030
  C       -1.2151430    -0.9364420     0.3397180
  C        1.0549700    -1.3167000    -0.2286510
  H        0.7042560     1.8874530     0.9605880
  H       -0.8818830     0.4322700     1.9353370
  H        1.7837760    -0.2316310     1.4680400
  H       -1.9955524    -1.3485494     0.9928732
  H        0.8436020    -1.1475360    -1.2899680
  H        1.8059140    -2.1013880    -0.1265130
  H       -0.3930520     2.0121160    -1.0836700
  H       -2.3417080     0.9766970    -0.3400740
  H        2.3997000     0.9352960    -0.9928030
  H       -1.9956420    -1.6762600    -1.2784950
units angstrom
no_reorient  #important for SAPT in psi4, default
symmetry c1  #important for SAPT in psi4, default
}

set PROPERTIES_ORIGIN ["COM"]
properties('MP2/aug-cc-pvtz', properties = ['dipole'])
--------------------------------------------------------------------------

    Molecular point group: c1
  Charge       = 0
  Multiplicity = 1
  Basis Set: AUG-CC-PVTZ
    Blend: AUG-CC-PVTZ
  Basis Set: (AUG-CC-PVTZ AUX)
    Blend: AUG-CC-PVTZ-JKFIT

    Orbital Energies [Eh]
    ---------------------

    Doubly Occupied:

       1A    -20.593548     2A    -20.581609     3A    -20.576263
       4A    -20.570673     5A    -20.556441     6A    -11.353144
       7A    -11.296925     8A    -11.290087     9A    -11.283468
      10A    -11.277385    11A     -1.438480    12A     -1.390924
      13A     -1.377727    14A     -1.355313    15A     -1.346693
      16A     -1.050183    17A     -1.024077    18A     -0.897148
      19A     -0.869010    20A     -0.800629    21A     -0.750435
      22A     -0.724073    23A     -0.714486    24A     -0.696881
      25A     -0.666949    26A     -0.649092    27A     -0.620960
      28A     -0.613691    29A     -0.603899    30A     -0.586819
      31A     -0.573308    32A     -0.555998    33A     -0.544007
      34A     -0.520055    35A     -0.504741    36A     -0.489418
      37A     -0.488756    38A     -0.470383    39A     -0.429098
      40A     -0.409768

  @DF-RHF Final Energy:  -569.66851798100936

   => Energetics <=

    Nuclear Repulsion Energy =            632.6508444206469903
    One-Electron Energy =               -2039.5536362090160765
    Two-Electron Energy =                 837.2342738073597275
    Total Energy =                       -569.6685179810093587
  Basis Set: (AUG-CC-PVTZ AUX)
    Blend: AUG-CC-PVTZ-RI
    Molecular point group: c1

    Geometry (in Angstrom), charge = 0, multiplicity = 1:

       Center              X                  Y                   Z               Mass
    ------------   -----------------  -----------------  -----------------  -----------------
         O           -0.110364426527    -1.799768364154     0.450095004067    15.994914619570
         O            0.362834573473     1.394508635846    -1.029455995933    15.994914619570
         O           -1.950750426527     1.371850635846     0.464305004067    15.994914619570
         O            2.719220573473     0.451103635846    -0.210444995933    15.994914619570
         O           -1.667225426527    -0.799701364154    -1.003262995933    15.994914619570
         C            0.435996573473     1.014076635846     0.344969004067    12.000000000000
         C           -0.959882226527     0.464180735846     0.892427104067    12.000000000000
         C            1.538915573473    -0.028369364154     0.415625004067    12.000000000000
         C           -1.210737426527    -0.935917364154     0.334940004067    12.000000000000
         C            1.059375573473    -1.316175364154    -0.233428995933    12.000000000000
         H            0.708661573473     1.887977635846     0.955810004067     1.007825032230
         H           -0.877477426527     0.432794635846     1.930559004067     1.007825032230
         H            1.788181573473    -0.231106364154     1.463262004067     1.007825032230
         H           -1.991146826527    -1.348024764154     0.988095204067     1.007825032230
         H            0.848007573473    -1.147011364154    -1.294745995933     1.007825032230
         H            1.810319573473    -2.100863364154    -0.131290995933     1.007825032230
         H           -0.388646426527     2.012640635846    -1.088447995933     1.007825032230
         H           -2.337302426527     0.977221635846    -0.344851995933     1.007825032230
         H            2.404105573473     0.935820635846    -0.997580995933     1.007825032230
         H           -1.991236426527    -1.675735364154    -1.283272995933     1.007825032230

  Basis Set: AUG-CC-PVTZ
    Blend: AUG-CC-PVTZ
  Basis Set: (AUG-CC-PVTZ AUX)
    Blend: AUG-CC-PVTZ-JKFIT
	 Reference Energy          =    -569.6685179810093587 [Eh]
	 Singles Energy            =      -0.0000000000000000 [Eh]
	 Same-Spin Energy          =      -0.5543986390600233 [Eh]
	 Opposite-Spin Energy      =      -1.7035754322204704 [Eh]
	 Correlation Energy        =      -2.2579740712804934 [Eh]
	 Total Energy              =    -571.9264920522898592 [Eh]

	 ================> DF-SCS-MP2 Energies <==================
	-----------------------------------------------------------
	 SCS Same-Spin Scale       =       0.3333333333333333 [-]
	 SCS Opposite-Spin Scale   =       1.2000000000000000 [-]
	 SCS Same-Spin Energy      =      -0.1847995463533411 [Eh]
	 SCS Opposite-Spin Energy  =      -2.0442905186645643 [Eh]
	 SCS Correlation Energy    =      -2.2290900650179055 [Eh]
	 SCS Total Energy          =    -571.8976080460272442 [Eh]
	-----------------------------------------------------------

  Dipole Moment: [D]
     X:    -2.3121      Y:    -0.9556      Z:    -0.2554     Total:     2.5148

*** Psi4 exiting successfully. Buy a developer a beer!
