                               Psi4 1.3.2 release

  ==> Input File <==

--------------------------------------------------------------------------
#psi4
#
memory 32 gb

molecule  {
0 1
  O       -0.1147700    -1.8002930     0.4548730
  O        0.3584290     1.3939840    -1.0246780
  O       -1.9551560     1.3713260     0.4690830
  O        2.7148150     0.4505790    -0.2056670
  O       -1.6716310    -0.8002260    -0.9984850
  C        0.4315910     1.0135520     0.3497470
  C       -0.9093320     0.4742750     0.8400700
  C        1.5345100    -0.0288940     0.4204030
  C       -1.2151430    -0.9364420     0.3397180
  C        1.0585595    -1.3293684    -0.2056254
  H        0.7042560     1.8874530     0.9605880
  H       -0.8818830     0.4322700     1.9353370
  H        1.7788474    -0.2499342     1.4654961
  H       -1.9939520    -1.3968640     0.9617720
  H        0.8436020    -1.1475360    -1.2899680
  H        1.8059140    -2.1013880    -0.1265130
  H       -0.3930520     2.0121160    -1.0836700
  H       -2.3417080     0.9766970    -0.3400740
  H        2.3997000     0.9352960    -0.9928030
  H       -1.9956420    -1.6762600    -1.2784950
units angstrom
no_reorient  #important for SAPT in psi4, default
symmetry c1  #important for SAPT in psi4, default
}

set PROPERTIES_ORIGIN ["COM"]
properties('MP2/aug-cc-pvtz', properties = ['dipole'])
--------------------------------------------------------------------------

    Molecular point group: c1
  Charge       = 0
  Multiplicity = 1
  Basis Set: AUG-CC-PVTZ
    Blend: AUG-CC-PVTZ
  Basis Set: (AUG-CC-PVTZ AUX)
    Blend: AUG-CC-PVTZ-JKFIT

    Orbital Energies [Eh]
    ---------------------

    Doubly Occupied:

       1A    -20.591793     2A    -20.581360     3A    -20.574864
       4A    -20.571125     5A    -20.558532     6A    -11.354820
       7A    -11.298712     8A    -11.291430     9A    -11.285340
      10A    -11.278123    11A     -1.440153    12A     -1.391710
      13A     -1.376548    14A     -1.355250    15A     -1.347678
      16A     -1.059092    17A     -1.024005    18A     -0.898361
      19A     -0.871042    20A     -0.797663    21A     -0.751928
      22A     -0.728345    23A     -0.712999    24A     -0.696481
      25A     -0.669931    26A     -0.645395    27A     -0.622216
      28A     -0.614548    29A     -0.604148    30A     -0.586088
      31A     -0.569800    32A     -0.557741    33A     -0.543089
      34A     -0.516723    35A     -0.503751    36A     -0.490588
      37A     -0.487646    38A     -0.467813    39A     -0.440989
      40A     -0.414916

  @DF-RHF Final Energy:  -569.67404832748696

   => Energetics <=

    Nuclear Repulsion Energy =            633.7916591612255388
    One-Electron Energy =               -2041.7859447043952059
    Two-Electron Energy =                 838.3202372156825959
    Total Energy =                       -569.6740483274869575
  Basis Set: (AUG-CC-PVTZ AUX)
    Blend: AUG-CC-PVTZ-RI
    Molecular point group: c1

    Geometry (in Angstrom), charge = 0, multiplicity = 1:

       Center              X                  Y                   Z               Mass
    ------------   -----------------  -----------------  -----------------  -----------------
         O           -0.115024047990    -1.799157025531     0.453048779703    15.994914619570
         O            0.358174952010     1.395119974469    -1.026502220297    15.994914619570
         O           -1.955410047990     1.372461974469     0.467258779703    15.994914619570
         O            2.714560952010     0.451714974469    -0.207491220297    15.994914619570
         O           -1.671885047990    -0.799090025531    -1.000309220297    15.994914619570
         C            0.431336952010     1.014687974469     0.347922779703    12.000000000000
         C           -0.909586047990     0.475410974469     0.838245779703    12.000000000000
         C            1.534255952010    -0.027758025531     0.418578779703    12.000000000000
         C           -1.215397047990    -0.935306025531     0.337893779703    12.000000000000
         C            1.058305452010    -1.328232425531    -0.207449620297    12.000000000000
         H            0.704001952010     1.888588974469     0.958763779703     1.007825032230
         H           -0.882137047990     0.433405974469     1.933512779703     1.007825032230
         H            1.778593352010    -0.248798225531     1.463671879703     1.007825032230
         H           -1.994206047990    -1.395728025531     0.959947779703     1.007825032230
         H            0.843347952010    -1.146400025531    -1.291792220297     1.007825032230
         H            1.805659952010    -2.100252025531    -0.128337220297     1.007825032230
         H           -0.393306047990     2.013251974469    -1.085494220297     1.007825032230
         H           -2.341962047990     0.977832974469    -0.341898220297     1.007825032230
         H            2.399445952010     0.936431974469    -0.994627220297     1.007825032230
         H           -1.995896047990    -1.675124025531    -1.280319220297     1.007825032230

  Basis Set: AUG-CC-PVTZ
    Blend: AUG-CC-PVTZ
  Basis Set: (AUG-CC-PVTZ AUX)
    Blend: AUG-CC-PVTZ-JKFIT
	 Reference Energy          =    -569.6740483274869575 [Eh]
	 Singles Energy            =      -0.0000000000000000 [Eh]
	 Same-Spin Energy          =      -0.5545854856375700 [Eh]
	 Opposite-Spin Energy      =      -1.7036905710434784 [Eh]
	 Correlation Energy        =      -2.2582760566810487 [Eh]
	 Total Energy              =    -571.9323243841680551 [Eh]

	 ================> DF-SCS-MP2 Energies <==================
	-----------------------------------------------------------
	 SCS Same-Spin Scale       =       0.3333333333333333 [-]
	 SCS Opposite-Spin Scale   =       1.2000000000000000 [-]
	 SCS Same-Spin Energy      =      -0.1848618285458567 [Eh]
	 SCS Opposite-Spin Energy  =      -2.0444286852521740 [Eh]
	 SCS Correlation Energy    =      -2.2292905137980306 [Eh]
	 SCS Total Energy          =    -571.9033388412849490 [Eh]
	-----------------------------------------------------------

  Dipole Moment: [D]
     X:    -2.2036      Y:    -1.0107      Z:    -0.2658     Total:     2.4389

*** Psi4 exiting successfully. Buy a developer a beer!
