                               Psi4 1.3.2 release

  ==> Input File <==

--------------------------------------------------------------------------
#psi4
#
memory 32 gb

molecule  {
0 1
  O       -0.1147700    -1.8002930     0.4548730
  O        0.3584290     1.3939840    -1.0246780
  O       -1.9551560     1.3713260     0.4690830
  O        2.7148150     0.4505790    -0.2056670
  O       -1.6716310    -0.8002260    -0.9984850
  C        0.4315910     1.0135520     0.3497470
  C       -0.9093320     0.4742750     0.8400700
  C        1.5345100    -0.0288940     0.4204030
  C       -1.2151430    -0.9364420     0.3397180
  C        1.0532300    -1.3102185    -0.2400901
  H        0.7042560     1.8874530     0.9605880
  H       -0.8818830     0.4322700     1.9353370
  H        1.7862119    -0.2224559     1.4691923
  H       -1.9939520    -1.3968640     0.9617720
  H        0.8436020    -1.1475360    -1.2899680
  H        1.8059140    -2.1013880    -0.1265130
  H       -0.3930520     2.0121160    -1.0836700
  H       -2.3417080     0.9766970    -0.3400740
  H        2.3997000     0.9352960    -0.9928030
  H       -1.9956420    -1.6762600    -1.2784950
units angstrom
no_reorient  #important for SAPT in psi4, default
symmetry c1  #important for SAPT in psi4, default
}

set PROPERTIES_ORIGIN ["COM"]
properties('MP2/aug-cc-pvtz', properties = ['dipole'])
--------------------------------------------------------------------------

    Molecular point group: c1
  Charge       = 0
  Multiplicity = 1
  Basis Set: AUG-CC-PVTZ
    Blend: AUG-CC-PVTZ
  Basis Set: (AUG-CC-PVTZ AUX)
    Blend: AUG-CC-PVTZ-JKFIT

    Orbital Energies [Eh]
    ---------------------

    Doubly Occupied:

       1A    -20.591505     2A    -20.580468     3A    -20.574532
       4A    -20.571277     5A    -20.558147     6A    -11.353409
       7A    -11.298230     8A    -11.290875     9A    -11.285872
      10A    -11.278269    11A     -1.438046    12A     -1.391444
      13A     -1.375328    14A     -1.353265    15A     -1.347810
      16A     -1.059090    17A     -1.022530    18A     -0.898960
      19A     -0.869565    20A     -0.798802    21A     -0.752494
      22A     -0.727381    23A     -0.711399    24A     -0.695898
      25A     -0.669635    26A     -0.646764    27A     -0.620611
      28A     -0.613966    29A     -0.602259    30A     -0.583978
      31A     -0.572615    32A     -0.555161    33A     -0.542680
      34A     -0.515945    35A     -0.502052    36A     -0.491502
      37A     -0.487511    38A     -0.473305    39A     -0.440426
      40A     -0.416164

  @DF-RHF Final Energy:  -569.67416462284109

   => Energetics <=

    Nuclear Repulsion Energy =            633.8412457961129576
    One-Electron Energy =               -2041.9124762867645586
    Two-Electron Energy =                 838.3970658678103973
    Total Energy =                       -569.6741646228410900
  Basis Set: (AUG-CC-PVTZ AUX)
    Blend: AUG-CC-PVTZ-RI
    Molecular point group: c1

    Geometry (in Angstrom), charge = 0, multiplicity = 1:

       Center              X                  Y                   Z               Mass
    ------------   -----------------  -----------------  -----------------  -----------------
         O           -0.114647301514    -1.800873035351     0.455780159679    15.994914619570
         O            0.358551698486     1.393403964649    -1.023770840321    15.994914619570
         O           -1.955033301514     1.370745964649     0.469990159679    15.994914619570
         O            2.714937698486     0.449998964649    -0.204759840321    15.994914619570
         O           -1.671508301514    -0.800806035351    -0.997577840321    15.994914619570
         C            0.431713698486     1.012971964649     0.350654159679    12.000000000000
         C           -0.909209301514     0.473694964649     0.840977159679    12.000000000000
         C            1.534632698486    -0.029474035351     0.421310159679    12.000000000000
         C           -1.215020301514    -0.937022035351     0.340625159679    12.000000000000
         C            1.053352698486    -1.310798535351    -0.239182940321    12.000000000000
         H            0.704378698486     1.886872964649     0.961495159679     1.007825032230
         H           -0.881760301514     0.431689964649     1.936244159679     1.007825032230
         H            1.786334598486    -0.223035935351     1.470099459679     1.007825032230
         H           -1.993829301514    -1.397444035351     0.962679159679     1.007825032230
         H            0.843724698486    -1.148116035351    -1.289060840321     1.007825032230
         H            1.806036698486    -2.101968035351    -0.125605840321     1.007825032230
         H           -0.392929301514     2.011535964649    -1.082762840321     1.007825032230
         H           -2.341585301514     0.976116964649    -0.339166840321     1.007825032230
         H            2.399822698486     0.934715964649    -0.991895840321     1.007825032230
         H           -1.995519301514    -1.676840035351    -1.277587840321     1.007825032230

  Basis Set: AUG-CC-PVTZ
    Blend: AUG-CC-PVTZ
  Basis Set: (AUG-CC-PVTZ AUX)
    Blend: AUG-CC-PVTZ-JKFIT
	 Reference Energy          =    -569.6741646228410900 [Eh]
	 Singles Energy            =      -0.0000000000000000 [Eh]
	 Same-Spin Energy          =      -0.5546621624729111 [Eh]
	 Opposite-Spin Energy      =      -1.7040875091138425 [Eh]
	 Correlation Energy        =      -2.2587496715867537 [Eh]
	 Total Energy              =    -571.9329142944278601 [Eh]

	 ================> DF-SCS-MP2 Energies <==================
	-----------------------------------------------------------
	 SCS Same-Spin Scale       =       0.3333333333333333 [-]
	 SCS Opposite-Spin Scale   =       1.2000000000000000 [-]
	 SCS Same-Spin Energy      =      -0.1848873874909704 [Eh]
	 SCS Opposite-Spin Energy  =      -2.0449050109366111 [Eh]
	 SCS Correlation Energy    =      -2.2297923984275814 [Eh]
	 SCS Total Energy          =    -571.9039570212686385 [Eh]
	-----------------------------------------------------------

  Dipole Moment: [D]
     X:    -2.1712      Y:    -0.9848      Z:    -0.3151     Total:     2.4048

*** Psi4 exiting successfully. Buy a developer a beer!
