                               Psi4 1.3.2 release

  ==> Input File <==

--------------------------------------------------------------------------
#psi4
#
memory 32 gb

molecule  {
0 1
  O       -0.1147700    -1.8002930     0.4548730
  O        0.3584290     1.3939840    -1.0246780
  O       -1.9551560     1.3713260     0.4690830
  O        2.7148150     0.4505790    -0.2056670
  O       -1.6716310    -0.8002260    -0.9984850
  C        0.4315910     1.0135520     0.3497470
  C       -0.9002502     0.4756695     0.8304099
  C        1.5345100    -0.0288940     0.4204030
  C       -1.2151430    -0.9364420     0.3397180
  C        1.0549700    -1.3167000    -0.2286510
  H        0.7042560     1.8874530     0.9605880
  H       -0.8818830     0.4322700     1.9353370
  H        1.7837760    -0.2316310     1.4680400
  H       -1.9934775    -1.4047973     0.9564203
  H        0.8436020    -1.1475360    -1.2899680
  H        1.8059140    -2.1013880    -0.1265130
  H       -0.3930520     2.0121160    -1.0836700
  H       -2.3417080     0.9766970    -0.3400740
  H        2.3997000     0.9352960    -0.9928030
  H       -1.9956420    -1.6762600    -1.2784950
units angstrom
no_reorient  #important for SAPT in psi4, default
symmetry c1  #important for SAPT in psi4, default
}

set PROPERTIES_ORIGIN ["COM"]
properties('MP2/aug-cc-pvtz', properties = ['dipole'])
--------------------------------------------------------------------------

    Molecular point group: c1
  Charge       = 0
  Multiplicity = 1
  Basis Set: AUG-CC-PVTZ
    Blend: AUG-CC-PVTZ
  Basis Set: (AUG-CC-PVTZ AUX)
    Blend: AUG-CC-PVTZ-JKFIT

    Orbital Energies [Eh]
    ---------------------

    Doubly Occupied:

       1A    -20.591295     2A    -20.580627     3A    -20.574411
       4A    -20.571311     5A    -20.558559     6A    -11.354100
       7A    -11.298786     8A    -11.291123     9A    -11.286024
      10A    -11.278292    11A     -1.438803    12A     -1.391725
      13A     -1.375295    14A     -1.353738    15A     -1.347841
      16A     -1.060763    17A     -1.022892    18A     -0.899059
      19A     -0.870341    20A     -0.797961    21A     -0.752567
      22A     -0.728253    23A     -0.711762    24A     -0.695769
      25A     -0.670286    26A     -0.645956    27A     -0.621211
      28A     -0.614500    29A     -0.602543    30A     -0.584171
      31A     -0.571477    32A     -0.556126    33A     -0.542406
      34A     -0.515416    35A     -0.502329    36A     -0.491267
      37A     -0.487242    38A     -0.471840    39A     -0.442631
      40A     -0.416374

  @DF-RHF Final Energy:  -569.67407671550893

   => Energetics <=

    Nuclear Repulsion Energy =            634.0228000534499415
    One-Electron Energy =               -2042.2596069672265457
    Two-Electron Energy =                 838.5627301982675590
    Total Energy =                       -569.6740767155089316
  Basis Set: (AUG-CC-PVTZ AUX)
    Blend: AUG-CC-PVTZ-RI
    Molecular point group: c1

    Geometry (in Angstrom), charge = 0, multiplicity = 1:

       Center              X                  Y                   Z               Mass
    ------------   -----------------  -----------------  -----------------  -----------------
         O           -0.115499567063    -1.800351310588     0.455681573690    15.994914619570
         O            0.357699432937     1.393925689412    -1.023869426310    15.994914619570
         O           -1.955885567063     1.371267689412     0.469891573690    15.994914619570
         O            2.714085432937     0.450520689412    -0.204858426310    15.994914619570
         O           -1.672360567063    -0.800284310588    -0.997676426310    15.994914619570
         C            0.430861432937     1.013493689412     0.350555573690    12.000000000000
         C           -0.900979767063     0.475611189412     0.831218473690    12.000000000000
         C            1.533780432937    -0.028952310588     0.421211573690    12.000000000000
         C           -1.215872567063    -0.936500310588     0.340526573690    12.000000000000
         C            1.054240432937    -1.316758310588    -0.227842426310    12.000000000000
         H            0.703526432937     1.887394689412     0.961396573690     1.007825032230
         H           -0.882612567063     0.432211689412     1.936145573690     1.007825032230
         H            1.783046432937    -0.231689310588     1.468848573690     1.007825032230
         H           -1.994207067063    -1.404855610588     0.957228873690     1.007825032230
         H            0.842872432937    -1.147594310588    -1.289159426310     1.007825032230
         H            1.805184432937    -2.101446310588    -0.125704426310     1.007825032230
         H           -0.393781567063     2.012057689412    -1.082861426310     1.007825032230
         H           -2.342437567063     0.976638689412    -0.339265426310     1.007825032230
         H            2.398970432937     0.935237689412    -0.991994426310     1.007825032230
         H           -1.996371567063    -1.676318310588    -1.277686426310     1.007825032230

  Basis Set: AUG-CC-PVTZ
    Blend: AUG-CC-PVTZ
  Basis Set: (AUG-CC-PVTZ AUX)
    Blend: AUG-CC-PVTZ-JKFIT
	 Reference Energy          =    -569.6740767155089316 [Eh]
	 Singles Energy            =      -0.0000000000000000 [Eh]
	 Same-Spin Energy          =      -0.5547266256241923 [Eh]
	 Opposite-Spin Energy      =      -1.7041095924016010 [Eh]
	 Correlation Energy        =      -2.2588362180257935 [Eh]
	 Total Energy              =    -571.9329129335346806 [Eh]

	 ================> DF-SCS-MP2 Energies <==================
	-----------------------------------------------------------
	 SCS Same-Spin Scale       =       0.3333333333333333 [-]
	 SCS Opposite-Spin Scale   =       1.2000000000000000 [-]
	 SCS Same-Spin Energy      =      -0.1849088752080641 [Eh]
	 SCS Opposite-Spin Energy  =      -2.0449315108819213 [Eh]
	 SCS Correlation Energy    =      -2.2298403860899851 [Eh]
	 SCS Total Energy          =    -571.9039171015989496 [Eh]
	-----------------------------------------------------------

  Dipole Moment: [D]
     X:    -2.1602      Y:    -1.0004      Z:    -0.3075     Total:     2.4004

*** Psi4 exiting successfully. Buy a developer a beer!
