                               Psi4 1.4a3.dev225

  ==> Input File <==

--------------------------------------------------------------------------
#psi4
#
memory 32 gb

molecule  {
0 1
  O       -0.2343850     1.7978400    -0.4145210
  O        0.4791390    -1.3900560     0.9851260
  O       -1.8902550    -1.4798720    -0.4079610
  O        2.7489250    -0.2990660     0.0843650
  O       -1.6766260     0.6849030     1.0797040
  C        0.4758930    -0.9871420    -0.3839460
  C       -0.9153110    -0.5160320    -0.8112700
  C        1.5011996     0.1059943    -0.4798439
  C       -1.2794180     0.8705190    -0.2725550
  C        0.9914930     1.3693070     0.2124490
  H        0.7732420    -1.8350180    -1.0199460
  H       -0.9367810    -0.4539690    -1.9062570
  H        1.7061480     0.3550680    -1.5342930
  H       -2.1075740     1.2945610    -0.8542440
  H        0.8333730     1.1741050     1.2776920
  H        1.6908660     2.1982840     0.0933200
  H       -0.2684360    -2.0097880     1.0741120
  H       -2.2907410    -1.1048270     0.4011470
  H        2.5001980    -0.8049050     0.8819700
  H       -2.0397460     1.5332780     1.3914430
units angstrom
no_reorient  #important for SAPT in psi4, default
symmetry c1  #important for SAPT in psi4, default
}

set PROPERTIES_ORIGIN ["COM"]
properties('MP2/aug-cc-pvtz', properties = ['dipole'])
--------------------------------------------------------------------------

    Molecular point group: c1
  Charge       = 0
  Multiplicity = 1
  Basis Set: AUG-CC-PVTZ
    Blend: AUG-CC-PVTZ
  Basis Set: (AUG-CC-PVTZ AUX)
    Blend: AUG-CC-PVTZ-JKFIT

    Orbital Energies [Eh]
    ---------------------

    Doubly Occupied:

       1A    -20.592165     2A    -20.580911     3A    -20.575682
       4A    -20.570404     5A    -20.558264     6A    -11.355084
       7A    -11.300250     8A    -11.291152     9A    -11.286246
      10A    -11.279208    11A     -1.438220    12A     -1.391310
      13A     -1.375159    14A     -1.353895    15A     -1.346172
      16A     -1.060735    17A     -1.022003    18A     -0.899509
      19A     -0.870654    20A     -0.797350    21A     -0.752224
      22A     -0.727596    23A     -0.712479    24A     -0.696142
      25A     -0.667994    26A     -0.646289    27A     -0.620103
      28A     -0.614964    29A     -0.601725    30A     -0.583204
      31A     -0.572017    32A     -0.556439    33A     -0.542919
      34A     -0.516841    35A     -0.503061    36A     -0.490877
      37A     -0.487103    38A     -0.472614    39A     -0.442871
      40A     -0.415329

  @DF-RHF Final Energy:  -569.67369594107515

   => Energetics <=

    Nuclear Repulsion Energy =            633.3683341731800738
    One-Electron Energy =               -2040.9497301983940361
    Two-Electron Energy =                 837.9077000841388099
    Total Energy =                       -569.6736959410751524
  Basis Set: (AUG-CC-PVTZ AUX)
    Blend: AUG-CC-PVTZ-RI
    Molecular point group: c1

    Geometry (in Angstrom), charge = 0, multiplicity = 1:

       Center              X                  Y                   Z               Mass
    ------------   -----------------  -----------------  -----------------  -----------------
         O           -0.234234519270     1.801273910177    -0.415867779325    15.994914619570
         O            0.479289480730    -1.386622089823     0.983779220675    15.994914619570
         O           -1.890104519270    -1.476438089823    -0.409307779325    15.994914619570
         O            2.749075480730    -0.295632089823     0.083018220675    15.994914619570
         O           -1.676475519270     0.688336910177     1.078357220675    15.994914619570
         C            0.476043480730    -0.983708089823    -0.385292779325    12.000000000000
         C           -0.915160519270    -0.512598089823    -0.812616779325    12.000000000000
         C            1.501350080730     0.109428210177    -0.481190679325    12.000000000000
         C           -1.279267519270     0.873952910177    -0.273901779325    12.000000000000
         C            0.991643480730     1.372740910177     0.211102220675    12.000000000000
         H            0.773392480730    -1.831584089823    -1.021292779325     1.007825032230
         H           -0.936630519270    -0.450535089823    -1.907603779325     1.007825032230
         H            1.706298480730     0.358501910177    -1.535639779325     1.007825032230
         H           -2.107423519270     1.297994910177    -0.855590779325     1.007825032230
         H            0.833523480730     1.177538910177     1.276345220675     1.007825032230
         H            1.691016480730     2.201717910177     0.091973220675     1.007825032230
         H           -0.268285519270    -2.006354089823     1.072765220675     1.007825032230
         H           -2.290590519270    -1.101393089823     0.399800220675     1.007825032230
         H            2.500348480730    -0.801471089823     0.880623220675     1.007825032230
         H           -2.039595519270     1.536711910177     1.390096220675     1.007825032230

  Basis Set: AUG-CC-PVTZ
    Blend: AUG-CC-PVTZ
  Basis Set: (AUG-CC-PVTZ AUX)
    Blend: AUG-CC-PVTZ-JKFIT
	 Reference Energy          =    -569.6736959410751524 [Eh]
	 Singles Energy            =      -0.0000000000000000 [Eh]
	 Same-Spin Energy          =      -0.5546533629244964 [Eh]
	 Opposite-Spin Energy      =      -1.7042632007718899 [Eh]
	 Correlation Energy        =      -2.2589165636963862 [Eh]
	 Total Energy              =    -571.9326125047715550 [Eh]

	 ================> DF-SCS-MP2 Energies <==================
	-----------------------------------------------------------
	 SCS Same-Spin Scale       =       0.3333333333333333 [-]
	 SCS Opposite-Spin Scale   =       1.2000000000000000 [-]
	 SCS Same-Spin Energy      =      -0.1848844543081655 [Eh]
	 SCS Opposite-Spin Energy  =      -2.0451158409262677 [Eh]
	 SCS Correlation Energy    =      -2.2300002952344333 [Eh]
	 SCS Total Energy          =    -571.9036962363095427 [Eh]
	-----------------------------------------------------------

  Dipole Moment: [D]
     X:    -2.3260      Y:     0.9565      Z:     0.3950     Total:     2.5459

*** Psi4 exiting successfully. Buy a developer a beer!
