                               Psi4 1.3.2 release

  ==> Input File <==

--------------------------------------------------------------------------
#psi4
#
memory 32 gb

molecule  {
0 1
  O       -0.1147700    -1.8002930     0.4548730
  O        0.3584290     1.3939840    -1.0246780
  O       -1.9551560     1.3713260     0.4690830
  O        2.7148150     0.4505790    -0.2056670
  O       -1.6716310    -0.8002260    -0.9984850
  C        0.4315910     1.0135520     0.3497470
  C       -0.9093320     0.4742750     0.8400700
  C        1.5368232    -0.0416823     0.4435256
  C       -1.2151430    -0.9364420     0.3397180
  C        1.0549700    -1.3167000    -0.2286510
  H        0.7042560     1.8874530     0.9605880
  H       -0.8818830     0.4322700     1.9353370
  H        1.7837760    -0.2316310     1.4680400
  H       -1.9939520    -1.3968640     0.9617720
  H        0.8385616    -1.1658927    -1.2917179
  H        1.8059140    -2.1013880    -0.1265130
  H       -0.3930520     2.0121160    -1.0836700
  H       -2.3417080     0.9766970    -0.3400740
  H        2.3997000     0.9352960    -0.9928030
  H       -1.9956420    -1.6762600    -1.2784950
units angstrom
no_reorient  #important for SAPT in psi4, default
symmetry c1  #important for SAPT in psi4, default
}

set PROPERTIES_ORIGIN ["COM"]
properties('MP2/aug-cc-pvtz', properties = ['dipole'])
--------------------------------------------------------------------------

    Molecular point group: c1
  Charge       = 0
  Multiplicity = 1
  Basis Set: AUG-CC-PVTZ
    Blend: AUG-CC-PVTZ
  Basis Set: (AUG-CC-PVTZ AUX)
    Blend: AUG-CC-PVTZ-JKFIT

    Orbital Energies [Eh]
    ---------------------

    Doubly Occupied:

       1A    -20.591577     2A    -20.580324     3A    -20.574231
       4A    -20.571308     5A    -20.556231     6A    -11.353739
       7A    -11.297969     8A    -11.291575     9A    -11.285738
      10A    -11.278627    11A     -1.438625    12A     -1.390242
      13A     -1.374087    14A     -1.353498    15A     -1.344306
      16A     -1.058369    17A     -1.023332    18A     -0.897721
      19A     -0.870671    20A     -0.799687    21A     -0.752278
      22A     -0.726760    23A     -0.711219    24A     -0.695213
      25A     -0.669065    26A     -0.646390    27A     -0.620617
      28A     -0.613378    29A     -0.602695    30A     -0.587205
      31A     -0.570992    32A     -0.553463    33A     -0.542756
      34A     -0.517442    35A     -0.502300    36A     -0.490602
      37A     -0.487329    38A     -0.472640    39A     -0.438937
      40A     -0.416300

  @DF-RHF Final Energy:  -569.67392540139531

   => Energetics <=

    Nuclear Repulsion Energy =            633.4705652057037923
    One-Electron Energy =               -2041.1901053672613671
    Two-Electron Energy =                 838.0456147601623798
    Total Energy =                       -569.6739254013953087
  Basis Set: (AUG-CC-PVTZ AUX)
    Blend: AUG-CC-PVTZ-RI
    Molecular point group: c1

    Geometry (in Angstrom), charge = 0, multiplicity = 1:

       Center              X                  Y                   Z               Mass
    ------------   -----------------  -----------------  -----------------  -----------------
         O           -0.114921229033    -1.799147077576     0.453035689559    15.994914619570
         O            0.358277770967     1.395129922424    -1.026515310441    15.994914619570
         O           -1.955307229033     1.372471922424     0.467245689559    15.994914619570
         O            2.714663770967     0.451724922424    -0.207504310441    15.994914619570
         O           -1.671782229033    -0.799080077576    -1.000322310441    15.994914619570
         C            0.431439770967     1.014697922424     0.347909689559    12.000000000000
         C           -0.909483229033     0.475420922424     0.838232689559    12.000000000000
         C            1.536671970967    -0.040536377576     0.441688289559    12.000000000000
         C           -1.215294229033    -0.935296077576     0.337880689559    12.000000000000
         C            1.054818770967    -1.315554077576    -0.230488310441    12.000000000000
         H            0.704104770967     1.888598922424     0.958750689559     1.007825032230
         H           -0.882034229033     0.433415922424     1.933499689559     1.007825032230
         H            1.783624770967    -0.230485077576     1.466202689559     1.007825032230
         H           -1.994103229033    -1.395718077576     0.959934689559     1.007825032230
         H            0.838410370967    -1.164746777576    -1.293555210441     1.007825032230
         H            1.805762770967    -2.100242077576    -0.128350310441     1.007825032230
         H           -0.393203229033     2.013261922424    -1.085507310441     1.007825032230
         H           -2.341859229033     0.977842922424    -0.341911310441     1.007825032230
         H            2.399548770967     0.936441922424    -0.994640310441     1.007825032230
         H           -1.995793229033    -1.675114077576    -1.280332310441     1.007825032230

  Basis Set: AUG-CC-PVTZ
    Blend: AUG-CC-PVTZ
  Basis Set: (AUG-CC-PVTZ AUX)
    Blend: AUG-CC-PVTZ-JKFIT
	 Reference Energy          =    -569.6739254013953087 [Eh]
	 Singles Energy            =      -0.0000000000000000 [Eh]
	 Same-Spin Energy          =      -0.5544759227038709 [Eh]
	 Opposite-Spin Energy      =      -1.7038563157471691 [Eh]
	 Correlation Energy        =      -2.2583322384510400 [Eh]
	 Total Energy              =    -571.9322576398463980 [Eh]

	 ================> DF-SCS-MP2 Energies <==================
	-----------------------------------------------------------
	 SCS Same-Spin Scale       =       0.3333333333333333 [-]
	 SCS Opposite-Spin Scale   =       1.2000000000000000 [-]
	 SCS Same-Spin Energy      =      -0.1848253075679570 [Eh]
	 SCS Opposite-Spin Energy  =      -2.0446275788966028 [Eh]
	 SCS Correlation Energy    =      -2.2294528864645597 [Eh]
	 SCS Total Energy          =    -571.9033782878598231 [Eh]
	-----------------------------------------------------------

  Dipole Moment: [D]
     X:    -2.1937      Y:    -1.0288      Z:    -0.2660     Total:     2.4376

*** Psi4 exiting successfully. Buy a developer a beer!
