                               Psi4 1.4a3.dev225

  ==> Input File <==

--------------------------------------------------------------------------
#psi4
#
memory 32 gb

molecule  {
0 1
  O       -0.2343850     1.7978400    -0.4145210
  O        0.4791390    -1.3900560     0.9851260
  O       -1.8902550    -1.4798720    -0.4079610
  O        2.7489250    -0.2990660     0.0843650
  O       -1.6766260     0.6849030     1.0797040
  C        0.4758930    -0.9871420    -0.3839460
  C       -0.9289557    -0.5295213    -0.8056255
  C        1.5148540     0.1205520    -0.4811210
  C       -1.2794180     0.8705190    -0.2725550
  C        0.9914930     1.3693070     0.2124490
  H        0.7732420    -1.8350180    -1.0199460
  H       -0.9367810    -0.4539690    -1.9062570
  H        1.7061480     0.3550680    -1.5342930
  H       -2.1075740     1.2945610    -0.8542440
  H        0.8333730     1.1741050     1.2776920
  H        1.6908660     2.1982840     0.0933200
  H       -0.2684360    -2.0097880     1.0741120
  H       -2.2907410    -1.1048270     0.4011470
  H        2.5001980    -0.8049050     0.8819700
  H       -2.0397460     1.5332780     1.3914430
units angstrom
no_reorient  #important for SAPT in psi4, default
symmetry c1  #important for SAPT in psi4, default
}

set PROPERTIES_ORIGIN ["COM"]
properties('MP2/aug-cc-pvtz', properties = ['dipole'])
--------------------------------------------------------------------------

    Molecular point group: c1
  Charge       = 0
  Multiplicity = 1
  Basis Set: AUG-CC-PVTZ
    Blend: AUG-CC-PVTZ
  Basis Set: (AUG-CC-PVTZ AUX)
    Blend: AUG-CC-PVTZ-JKFIT

    Orbital Energies [Eh]
    ---------------------

    Doubly Occupied:

       1A    -20.591758     2A    -20.581318     3A    -20.577332
       4A    -20.569615     5A    -20.558559     6A    -11.354470
       7A    -11.299755     8A    -11.290580     9A    -11.286068
      10A    -11.278585    11A     -1.438358    12A     -1.393205
      13A     -1.378484    14A     -1.354963    15A     -1.347926
      16A     -1.055684    17A     -1.021373    18A     -0.897582
      19A     -0.870402    20A     -0.798075    21A     -0.752514
      22A     -0.726181    23A     -0.712599    24A     -0.698523
      25A     -0.668119    26A     -0.647874    27A     -0.620575
      28A     -0.615040    29A     -0.602509    30A     -0.586166
      31A     -0.572581    32A     -0.556226    33A     -0.543853
      34A     -0.515813    35A     -0.502850    36A     -0.490168
      37A     -0.486479    38A     -0.470897    39A     -0.439265
      40A     -0.414909

  @DF-RHF Final Energy:  -569.67448715644878

   => Energetics <=

    Nuclear Repulsion Energy =            633.1116332214862723
    One-Electron Energy =               -2040.4377695995628983
    Two-Electron Energy =                 837.6516492216278493
    Total Energy =                       -569.6744871564487767
  Basis Set: (AUG-CC-PVTZ AUX)
    Blend: AUG-CC-PVTZ-RI
    Molecular point group: c1

    Geometry (in Angstrom), charge = 0, multiplicity = 1:

       Center              X                  Y                   Z               Mass
    ------------   -----------------  -----------------  -----------------  -----------------
         O           -0.234235294997     1.801188468266    -0.416217048327    15.994914619570
         O            0.479288705003    -1.386707531734     0.983429951673    15.994914619570
         O           -1.890105294997    -1.476523531734    -0.409657048327    15.994914619570
         O            2.749074705003    -0.295717531734     0.082668951673    15.994914619570
         O           -1.676476294997     0.688251468266     1.078007951673    15.994914619570
         C            0.476042705003    -0.983793531734    -0.385642048327    12.000000000000
         C           -0.928805994997    -0.526172831734    -0.807321548327    12.000000000000
         C            1.515003705003     0.123900468266    -0.482817048327    12.000000000000
         C           -1.279268294997     0.873867468266    -0.274251048327    12.000000000000
         C            0.991642705003     1.372655468266     0.210752951673    12.000000000000
         H            0.773391705003    -1.831669531734    -1.021642048327     1.007825032230
         H           -0.936631294997    -0.450620531734    -1.907953048327     1.007825032230
         H            1.706297705003     0.358416468266    -1.535989048327     1.007825032230
         H           -2.107424294997     1.297909468266    -0.855940048327     1.007825032230
         H            0.833522705003     1.177453468266     1.275995951673     1.007825032230
         H            1.691015705003     2.201632468266     0.091623951673     1.007825032230
         H           -0.268286294997    -2.006439531734     1.072415951673     1.007825032230
         H           -2.290591294997    -1.101478531734     0.399450951673     1.007825032230
         H            2.500347705003    -0.801556531734     0.880273951673     1.007825032230
         H           -2.039596294997     1.536626468266     1.389746951673     1.007825032230

  Basis Set: AUG-CC-PVTZ
    Blend: AUG-CC-PVTZ
  Basis Set: (AUG-CC-PVTZ AUX)
    Blend: AUG-CC-PVTZ-JKFIT
	 Reference Energy          =    -569.6744871564487767 [Eh]
	 Singles Energy            =      -0.0000000000000000 [Eh]
	 Same-Spin Energy          =      -0.5544762909804312 [Eh]
	 Opposite-Spin Energy      =      -1.7036949218654993 [Eh]
	 Correlation Energy        =      -2.2581712128459306 [Eh]
	 Total Energy              =    -571.9326583692946997 [Eh]

	 ================> DF-SCS-MP2 Energies <==================
	-----------------------------------------------------------
	 SCS Same-Spin Scale       =       0.3333333333333333 [-]
	 SCS Opposite-Spin Scale   =       1.2000000000000000 [-]
	 SCS Same-Spin Energy      =      -0.1848254303268104 [Eh]
	 SCS Opposite-Spin Energy  =      -2.0444339062385990 [Eh]
	 SCS Correlation Energy    =      -2.2292593365654092 [Eh]
	 SCS Total Energy          =    -571.9037464930141823 [Eh]
	-----------------------------------------------------------

  Dipole Moment: [D]
     X:    -2.3418      Y:     0.9295      Z:     0.4163     Total:     2.5537

*** Psi4 exiting successfully. Buy a developer a beer!
