                               Psi4 1.3.2 release

  ==> Input File <==

--------------------------------------------------------------------------
#psi4
#
memory 32 gb

molecule  {
0 1
  O       -0.1147700    -1.8002930     0.4548730
  O        0.3584290     1.3939840    -1.0246780
  O       -1.9551560     1.3713260     0.4690830
  O        2.7148150     0.4505790    -0.2056670
  O       -1.6716310    -0.8002260    -0.9984850
  C        0.4315910     1.0135520     0.3497470
  C       -0.8360392     0.4114084     0.8660693
  C        1.5345100    -0.0288940     0.4204030
  C       -1.2151430    -0.9364420     0.3397180
  C        1.0549700    -1.3167000    -0.2286510
  H        0.7042560     1.8874530     0.9605880
  H       -0.8818830     0.4322700     1.9353370
  H        1.7837760    -0.2316310     1.4680400
  H       -1.9939520    -1.3968640     0.9617720
  H        0.8436020    -1.1475360    -1.2899680
  H        1.8059140    -2.1013880    -0.1265130
  H       -0.3930520     2.0121160    -1.0836700
  H       -2.3417080     0.9766970    -0.3400740
  H        2.3997000     0.9352960    -0.9928030
  H       -1.9956420    -1.6762600    -1.2784950
units angstrom
no_reorient  #important for SAPT in psi4, default
symmetry c1  #important for SAPT in psi4, default
}

set PROPERTIES_ORIGIN ["COM"]
properties('MP2/aug-cc-pvtz', properties = ['dipole'])
--------------------------------------------------------------------------

    Molecular point group: c1
  Charge       = 0
  Multiplicity = 1
  Basis Set: AUG-CC-PVTZ
    Blend: AUG-CC-PVTZ
  Basis Set: (AUG-CC-PVTZ AUX)
    Blend: AUG-CC-PVTZ-JKFIT

    Orbital Energies [Eh]
    ---------------------

    Doubly Occupied:

       1A    -20.593171     2A    -20.580501     3A    -20.573444
       4A    -20.563796     5A    -20.558789     6A    -11.356251
       7A    -11.299979     8A    -11.294151     9A    -11.286752
      10A    -11.279708    11A     -1.439655    12A     -1.389885
      13A     -1.366330    14A     -1.351527    15A     -1.330924
      16A     -1.070929    17A     -1.028968    18A     -0.903637
      19A     -0.869909    20A     -0.799650    21A     -0.752585
      22A     -0.731932    23A     -0.711598    24A     -0.685140
      25A     -0.669680    26A     -0.644289    27A     -0.622216
      28A     -0.618043    29A     -0.599593    30A     -0.577206
      31A     -0.570643    32A     -0.551864    33A     -0.542299
      34A     -0.514285    35A     -0.503357    36A     -0.491060
      37A     -0.488730    38A     -0.473124    39A     -0.447726
      40A     -0.418964

  @DF-RHF Final Energy:  -569.66382177709988

   => Energetics <=

    Nuclear Repulsion Energy =            634.0585272077373702
    One-Electron Energy =               -2042.3401150685645007
    Two-Electron Energy =                 838.6177660837272470
    Total Energy =                       -569.6638217770998835
  Basis Set: (AUG-CC-PVTZ AUX)
    Blend: AUG-CC-PVTZ-RI
    Molecular point group: c1

    Geometry (in Angstrom), charge = 0, multiplicity = 1:

       Center              X                  Y                   Z               Mass
    ------------   -----------------  -----------------  -----------------  -----------------
         O           -0.120631451752    -1.795265516104     0.452793881427    15.994914619570
         O            0.352567548248     1.399011483896    -1.026757118573    15.994914619570
         O           -1.961017451752     1.376353483896     0.467003881427    15.994914619570
         O            2.708953548248     0.455606483896    -0.207746118573    15.994914619570
         O           -1.677492451752    -0.795198516104    -1.000564118573    15.994914619570
         C            0.425729548248     1.018579483896     0.347667881427    12.000000000000
         C           -0.841900651752     0.416435883896     0.863990181427    12.000000000000
         C            1.528648548248    -0.023866516104     0.418323881427    12.000000000000
         C           -1.221004451752    -0.931414516104     0.337638881427    12.000000000000
         C            1.049108548248    -1.311672516104    -0.230730118573    12.000000000000
         H            0.698394548248     1.892480483896     0.958508881427     1.007825032230
         H           -0.887744451752     0.437297483896     1.933257881427     1.007825032230
         H            1.777914548248    -0.226603516104     1.465960881427     1.007825032230
         H           -1.999813451752    -1.391836516104     0.959692881427     1.007825032230
         H            0.837740548248    -1.142508516104    -1.292047118573     1.007825032230
         H            1.800052548248    -2.096360516104    -0.128592118573     1.007825032230
         H           -0.398913451752     2.017143483896    -1.085749118573     1.007825032230
         H           -2.347569451752     0.981724483896    -0.342153118573     1.007825032230
         H            2.393838548248     0.940323483896    -0.994882118573     1.007825032230
         H           -2.001503451752    -1.671232516104    -1.280574118573     1.007825032230

  Basis Set: AUG-CC-PVTZ
    Blend: AUG-CC-PVTZ
  Basis Set: (AUG-CC-PVTZ AUX)
    Blend: AUG-CC-PVTZ-JKFIT
	 Reference Energy          =    -569.6638217770998835 [Eh]
	 Singles Energy            =      -0.0000000000000000 [Eh]
	 Same-Spin Energy          =      -0.5553524872377994 [Eh]
	 Opposite-Spin Energy      =      -1.7061447843697179 [Eh]
	 Correlation Energy        =      -2.2614972716075172 [Eh]
	 Total Energy              =    -571.9253190487073653 [Eh]

	 ================> DF-SCS-MP2 Energies <==================
	-----------------------------------------------------------
	 SCS Same-Spin Scale       =       0.3333333333333333 [-]
	 SCS Opposite-Spin Scale   =       1.2000000000000000 [-]
	 SCS Same-Spin Energy      =      -0.1851174957459331 [Eh]
	 SCS Opposite-Spin Energy  =      -2.0473737412436614 [Eh]
	 SCS Correlation Energy    =      -2.2324912369895946 [Eh]
	 SCS Total Energy          =    -571.8963130140895146 [Eh]
	-----------------------------------------------------------

  Dipole Moment: [D]
     X:    -1.9464      Y:    -1.1543      Z:    -0.2326     Total:     2.2748

*** Psi4 exiting successfully. Buy a developer a beer!
