                               Psi4 1.3.2 release

  ==> Input File <==

--------------------------------------------------------------------------
#psi4
#
memory 32 gb

molecule  {
0 1
  O       -0.1147700    -1.8002930     0.4548730
  O        0.3584290     1.3939840    -1.0246780
  O       -1.9551560     1.3713260     0.4690830
  O        2.7148150     0.4505790    -0.2056670
  O       -1.6716310    -0.8002260    -0.9984850
  C        0.4315910     1.0135520     0.3497470
  C       -0.9093320     0.4742750     0.8400700
  C        1.5345100    -0.0288940     0.4204030
  C       -1.2151430    -0.9364420     0.3397180
  C        1.0549700    -1.3167000    -0.2286510
  H        0.7042560     1.8874530     0.9605880
  H       -0.8818830     0.4322700     1.9353370
  H        1.7837760    -0.2316310     1.4680400
  H       -1.9939520    -1.3968640     0.9617720
  H        0.8436020    -1.1475360    -1.2899680
  H        1.8059140    -2.1013880    -0.1265130
  H       -0.3930520     2.0121160    -1.0836700
  H       -2.3417080     0.9766970    -0.3400740
  H        2.4319651     0.8856651    -0.9122069
  H       -1.9956420    -1.6762600    -1.2784950
units angstrom
no_reorient  #important for SAPT in psi4, default
symmetry c1  #important for SAPT in psi4, default
}

set PROPERTIES_ORIGIN ["COM"]
properties('MP2/aug-cc-pvtz', properties = ['dipole'])
--------------------------------------------------------------------------

    Molecular point group: c1
  Charge       = 0
  Multiplicity = 1
  Basis Set: AUG-CC-PVTZ
    Blend: AUG-CC-PVTZ
  Basis Set: (AUG-CC-PVTZ AUX)
    Blend: AUG-CC-PVTZ-JKFIT

    Orbital Energies [Eh]
    ---------------------

    Doubly Occupied:

       1A    -20.591749     2A    -20.581352     3A    -20.574772
       4A    -20.570067     5A    -20.550787     6A    -11.354165
       7A    -11.298648     8A    -11.291437     9A    -11.287069
      10A    -11.279034    11A     -1.439260    12A     -1.399786
      13A     -1.382666    14A     -1.359993    15A     -1.352326
      16A     -1.062040    17A     -1.025238    18A     -0.899245
      19A     -0.874835    20A     -0.803434    21A     -0.753063
      22A     -0.729935    23A     -0.712591    24A     -0.698548
      25A     -0.676266    26A     -0.651533    27A     -0.622649
      28A     -0.615452    29A     -0.603385    30A     -0.586463
      31A     -0.573094    32A     -0.558481    33A     -0.543653
      34A     -0.518208    35A     -0.503329    36A     -0.491400
      37A     -0.489942    38A     -0.473070    39A     -0.441658
      40A     -0.417110

  @DF-RHF Final Energy:  -569.66997485244872

   => Energetics <=

    Nuclear Repulsion Energy =            634.3880498665320147
    One-Electron Energy =               -2042.8405870690098709
    Two-Electron Energy =                 838.7825623500290249
    Total Energy =                       -569.6699748524487177
  Basis Set: (AUG-CC-PVTZ AUX)
    Blend: AUG-CC-PVTZ-RI
    Molecular point group: c1

    Geometry (in Angstrom), charge = 0, multiplicity = 1:

       Center              X                  Y                   Z               Mass
    ------------   -----------------  -----------------  -----------------  -----------------
         O           -0.114986799387    -1.799959729252     0.454331772068    15.994914619570
         O            0.358212200613     1.394317270748    -1.025219227932    15.994914619570
         O           -1.955372799387     1.371659270748     0.468541772068    15.994914619570
         O            2.714598200613     0.450912270748    -0.206208227932    15.994914619570
         O           -1.671847799387    -0.799892729252    -0.999026227932    15.994914619570
         C            0.431374200613     1.013885270748     0.349205772068    12.000000000000
         C           -0.909548799387     0.474608270748     0.839528772068    12.000000000000
         C            1.534293200613    -0.028560729252     0.419861772068    12.000000000000
         C           -1.215359799387    -0.936108729252     0.339176772068    12.000000000000
         C            1.054753200613    -1.316366729252    -0.229192227932    12.000000000000
         H            0.704039200613     1.887786270748     0.960046772068     1.007825032230
         H           -0.882099799387     0.432603270748     1.934795772068     1.007825032230
         H            1.783559200613    -0.231297729252     1.467498772068     1.007825032230
         H           -1.994168799387    -1.396530729252     0.961230772068     1.007825032230
         H            0.843385200613    -1.147202729252    -1.290509227932     1.007825032230
         H            1.805697200613    -2.101054729252    -0.127054227932     1.007825032230
         H           -0.393268799387     2.012449270748    -1.084211227932     1.007825032230
         H           -2.341924799387     0.977030270748    -0.340615227932     1.007825032230
         H            2.431748300613     0.885998370748    -0.912748127932     1.007825032230
         H           -1.995858799387    -1.675926729252    -1.279036227932     1.007825032230

  Basis Set: AUG-CC-PVTZ
    Blend: AUG-CC-PVTZ
  Basis Set: (AUG-CC-PVTZ AUX)
    Blend: AUG-CC-PVTZ-JKFIT
	 Reference Energy          =    -569.6699748524487177 [Eh]
	 Singles Energy            =      -0.0000000000000000 [Eh]
	 Same-Spin Energy          =      -0.5532665129146610 [Eh]
	 Opposite-Spin Energy      =      -1.7009286409471343 [Eh]
	 Correlation Energy        =      -2.2541951538617955 [Eh]
	 Total Energy              =    -571.9241700063105327 [Eh]

	 ================> DF-SCS-MP2 Energies <==================
	-----------------------------------------------------------
	 SCS Same-Spin Scale       =       0.3333333333333333 [-]
	 SCS Opposite-Spin Scale   =       1.2000000000000000 [-]
	 SCS Same-Spin Energy      =      -0.1844221709715537 [Eh]
	 SCS Opposite-Spin Energy  =      -2.0411143691365612 [Eh]
	 SCS Correlation Energy    =      -2.2255365401081146 [Eh]
	 SCS Total Energy          =    -571.8955113925568412 [Eh]
	-----------------------------------------------------------

  Dipole Moment: [D]
     X:    -2.1587      Y:    -1.0625      Z:    -0.2160     Total:     2.4157

*** Psi4 exiting successfully. Buy a developer a beer!
