                               Psi4 1.3.2 release

  ==> Input File <==

--------------------------------------------------------------------------
#psi4
#
memory 32 gb

molecule  {
0 1
  O       -0.1147700    -1.8002930     0.4548730
  O        0.3823839     1.4008100    -1.0238378
  O       -1.9551560     1.3713260     0.4690830
  O        2.7148150     0.4505790    -0.2056670
  O       -1.6716310    -0.8002260    -0.9984850
  C        0.4315910     1.0135520     0.3497470
  C       -0.8986835     0.4703687     0.8641715
  C        1.5345100    -0.0288940     0.4204030
  C       -1.2151430    -0.9364420     0.3397180
  C        1.0549700    -1.3167000    -0.2286510
  H        0.7042560     1.8874530     0.9605880
  H       -0.8818830     0.4322700     1.9353370
  H        1.7837760    -0.2316310     1.4680400
  H       -1.9939520    -1.3968640     0.9617720
  H        0.8436020    -1.1475360    -1.2899680
  H        1.8059140    -2.1013880    -0.1265130
  H       -0.3930520     2.0121160    -1.0836700
  H       -2.3417080     0.9766970    -0.3400740
  H        2.3997000     0.9352960    -0.9928030
  H       -1.9956420    -1.6762600    -1.2784950
units angstrom
no_reorient  #important for SAPT in psi4, default
symmetry c1  #important for SAPT in psi4, default
}

set PROPERTIES_ORIGIN ["COM"]
properties('MP2/aug-cc-pvtz', properties = ['dipole'])
--------------------------------------------------------------------------

    Molecular point group: c1
  Charge       = 0
  Multiplicity = 1
  Basis Set: AUG-CC-PVTZ
    Blend: AUG-CC-PVTZ
  Basis Set: (AUG-CC-PVTZ AUX)
    Blend: AUG-CC-PVTZ-JKFIT

    Orbital Energies [Eh]
    ---------------------

    Doubly Occupied:

       1A    -20.592516     2A    -20.580468     3A    -20.573717
       4A    -20.573105     5A    -20.557423     6A    -11.354621
       7A    -11.298953     8A    -11.291280     9A    -11.285119
      10A    -11.278053    11A     -1.438226    12A     -1.389300
      13A     -1.372833    14A     -1.353014    15A     -1.345360
      16A     -1.059672    17A     -1.023201    18A     -0.897611
      19A     -0.870912    20A     -0.798262    21A     -0.751541
      22A     -0.728038    23A     -0.711493    24A     -0.694316
      25A     -0.667804    26A     -0.646663    27A     -0.621004
      28A     -0.613581    29A     -0.601783    30A     -0.584074
      31A     -0.572135    32A     -0.555114    33A     -0.544164
      34A     -0.516897    35A     -0.502756    36A     -0.490322
      37A     -0.488434    38A     -0.471051    39A     -0.442044
      40A     -0.414859

  @DF-RHF Final Energy:  -569.67242232688739

   => Energetics <=

    Nuclear Repulsion Energy =            633.2661763993851309
    One-Electron Energy =               -2040.7737599828139992
    Two-Electron Energy =                 837.8351612565414825
    Total Energy =                       -569.6724223268873857
  Basis Set: (AUG-CC-PVTZ AUX)
    Blend: AUG-CC-PVTZ-RI
    Molecular point group: c1

    Geometry (in Angstrom), charge = 0, multiplicity = 1:

       Center              X                  Y                   Z               Mass
    ------------   -----------------  -----------------  -----------------  -----------------
         O           -0.118175149955    -1.800708298643     0.452856090671    15.994914619570
         O            0.378978750045     1.400394701357    -1.025854709329    15.994914619570
         O           -1.958561149955     1.370910701357     0.467066090671    15.994914619570
         O            2.711409850045     0.450163701357    -0.207683909329    15.994914619570
         O           -1.675036149955    -0.800641298643    -1.000501909329    15.994914619570
         C            0.428185850045     1.013136701357     0.347730090671    12.000000000000
         C           -0.902088649955     0.469953401357     0.862154590671    12.000000000000
         C            1.531104850045    -0.029309298643     0.418386090671    12.000000000000
         C           -1.218548149955    -0.936857298643     0.337701090671    12.000000000000
         C            1.051564850045    -1.317115298643    -0.230667909329    12.000000000000
         H            0.700850850045     1.887037701357     0.958571090671     1.007825032230
         H           -0.885288149955     0.431854701357     1.933320090671     1.007825032230
         H            1.780370850045    -0.232046298643     1.466023090671     1.007825032230
         H           -1.997357149955    -1.397279298643     0.959755090671     1.007825032230
         H            0.840196850045    -1.147951298643    -1.291984909329     1.007825032230
         H            1.802508850045    -2.101803298643    -0.128529909329     1.007825032230
         H           -0.396457149955     2.011700701357    -1.085686909329     1.007825032230
         H           -2.345113149955     0.976281701357    -0.342090909329     1.007825032230
         H            2.396294850045     0.934880701357    -0.994819909329     1.007825032230
         H           -1.999047149955    -1.676675298643    -1.280511909329     1.007825032230

  Basis Set: AUG-CC-PVTZ
    Blend: AUG-CC-PVTZ
  Basis Set: (AUG-CC-PVTZ AUX)
    Blend: AUG-CC-PVTZ-JKFIT
	 Reference Energy          =    -569.6724223268873857 [Eh]
	 Singles Energy            =      -0.0000000000000000 [Eh]
	 Same-Spin Energy          =      -0.5547813864600096 [Eh]
	 Opposite-Spin Energy      =      -1.7045244512106130 [Eh]
	 Correlation Energy        =      -2.2593058376706225 [Eh]
	 Total Energy              =    -571.9317281645579669 [Eh]

	 ================> DF-SCS-MP2 Energies <==================
	-----------------------------------------------------------
	 SCS Same-Spin Scale       =       0.3333333333333333 [-]
	 SCS Opposite-Spin Scale   =       1.2000000000000000 [-]
	 SCS Same-Spin Energy      =      -0.1849271288200032 [Eh]
	 SCS Opposite-Spin Energy  =      -2.0454293414527354 [Eh]
	 SCS Correlation Energy    =      -2.2303564702727385 [Eh]
	 SCS Total Energy          =    -571.9027787971601811 [Eh]
	-----------------------------------------------------------

  Dipole Moment: [D]
     X:    -2.2079      Y:    -1.0362      Z:    -0.2712     Total:     2.4540

*** Psi4 exiting successfully. Buy a developer a beer!
