                               Psi4 1.3.2 release

  ==> Input File <==

--------------------------------------------------------------------------
#psi4
#
memory 32 gb

molecule  {
0 1
  O       -0.1147700    -1.8002930     0.4548730
  O        0.3952903     1.3619368    -1.0346068
  O       -1.9551560     1.3713260     0.4690830
  O        2.7148150     0.4505790    -0.2056670
  O       -1.6716310    -0.8002260    -0.9984850
  C        0.4315910     1.0135520     0.3497470
  C       -0.9093320     0.4742750     0.8400700
  C        1.5415891    -0.0235994     0.3681159
  C       -1.2151430    -0.9364420     0.3397180
  C        1.0549700    -1.3167000    -0.2286510
  H        0.7042560     1.8874530     0.9605880
  H       -0.8818830     0.4322700     1.9353370
  H        1.7837760    -0.2316310     1.4680400
  H       -1.9939520    -1.3968640     0.9617720
  H        0.8436020    -1.1475360    -1.2899680
  H        1.8059140    -2.1013880    -0.1265130
  H       -0.3930520     2.0121160    -1.0836700
  H       -2.3417080     0.9766970    -0.3400740
  H        2.3997000     0.9352960    -0.9928030
  H       -1.9956420    -1.6762600    -1.2784950
units angstrom
no_reorient  #important for SAPT in psi4, default
symmetry c1  #important for SAPT in psi4, default
}

set PROPERTIES_ORIGIN ["COM"]
properties('MP2/aug-cc-pvtz', properties = ['dipole'])
--------------------------------------------------------------------------

    Molecular point group: c1
  Charge       = 0
  Multiplicity = 1
  Basis Set: AUG-CC-PVTZ
    Blend: AUG-CC-PVTZ
  Basis Set: (AUG-CC-PVTZ AUX)
    Blend: AUG-CC-PVTZ-JKFIT

    Orbital Energies [Eh]
    ---------------------

    Doubly Occupied:

       1A    -20.591740     2A    -20.581381     3A    -20.576305
       4A    -20.576145     5A    -20.561234     6A    -11.354119
       7A    -11.299343     8A    -11.290033     9A    -11.285496
      10A    -11.276370    11A     -1.438874    12A     -1.393225
      13A     -1.379925    14A     -1.355720    15A     -1.348328
      16A     -1.055719    17A     -1.023855    18A     -0.898703
      19A     -0.868778    20A     -0.792998    21A     -0.751667
      22A     -0.729844    23A     -0.712681    24A     -0.696845
      25A     -0.666421    26A     -0.647207    27A     -0.623067
      28A     -0.612303    29A     -0.602672    30A     -0.581515
      31A     -0.574209    32A     -0.560720    33A     -0.545100
      34A     -0.510698    35A     -0.503118    36A     -0.491842
      37A     -0.487175    38A     -0.462500    39A     -0.441631
      40A     -0.416937

  @DF-RHF Final Energy:  -569.66425570949662

   => Energetics <=

    Nuclear Repulsion Energy =            634.4560671780351413
    One-Electron Energy =               -2043.1077633723400595
    Two-Electron Energy =                 838.9874404848081895
    Total Energy =                       -569.6642557094966151
  Basis Set: (AUG-CC-PVTZ AUX)
    Blend: AUG-CC-PVTZ-RI
    Molecular point group: c1

    Geometry (in Angstrom), charge = 0, multiplicity = 1:

       Center              X                  Y                   Z               Mass
    ------------   -----------------  -----------------  -----------------  -----------------
         O           -0.119265459103    -1.797300413983     0.460112951360    15.994914619570
         O            0.390794840897     1.364929386017    -1.029366848640    15.994914619570
         O           -1.959651459103     1.374318586017     0.474322951360    15.994914619570
         O            2.710319540897     0.453571586017    -0.200427048640    15.994914619570
         O           -1.676126459103    -0.797233413983    -0.993245048640    15.994914619570
         C            0.427095540897     1.016544586017     0.354986951360    12.000000000000
         C           -0.913827459103     0.477267586017     0.845309951360    12.000000000000
         C            1.537093640897    -0.020606813983     0.373355851360    12.000000000000
         C           -1.219638459103    -0.933449413983     0.344957951360    12.000000000000
         C            1.050474540897    -1.313707413983    -0.223411048640    12.000000000000
         H            0.699760540897     1.890445586017     0.965827951360     1.007825032230
         H           -0.886378459103     0.435262586017     1.940576951360     1.007825032230
         H            1.779280540897    -0.228638413983     1.473279951360     1.007825032230
         H           -1.998447459103    -1.393871413983     0.967011951360     1.007825032230
         H            0.839106540897    -1.144543413983    -1.284728048640     1.007825032230
         H            1.801418540897    -2.098395413983    -0.121273048640     1.007825032230
         H           -0.397547459103     2.015108586017    -1.078430048640     1.007825032230
         H           -2.346203459103     0.979689586017    -0.334834048640     1.007825032230
         H            2.395204540897     0.938288586017    -0.987563048640     1.007825032230
         H           -2.000137459103    -1.673267413983    -1.273255048640     1.007825032230

  Basis Set: AUG-CC-PVTZ
    Blend: AUG-CC-PVTZ
  Basis Set: (AUG-CC-PVTZ AUX)
    Blend: AUG-CC-PVTZ-JKFIT
	 Reference Energy          =    -569.6642557094966151 [Eh]
	 Singles Energy            =      -0.0000000000000000 [Eh]
	 Same-Spin Energy          =      -0.5559168933486218 [Eh]
	 Opposite-Spin Energy      =      -1.7062482131644519 [Eh]
	 Correlation Energy        =      -2.2621651065130735 [Eh]
	 Total Energy              =    -571.9264208160096814 [Eh]

	 ================> DF-SCS-MP2 Energies <==================
	-----------------------------------------------------------
	 SCS Same-Spin Scale       =       0.3333333333333333 [-]
	 SCS Opposite-Spin Scale   =       1.2000000000000000 [-]
	 SCS Same-Spin Energy      =      -0.1853056311162073 [Eh]
	 SCS Opposite-Spin Energy  =      -2.0474978557973422 [Eh]
	 SCS Correlation Energy    =      -2.2328034869135496 [Eh]
	 SCS Total Energy          =    -571.8970591964101686 [Eh]
	-----------------------------------------------------------

  Dipole Moment: [D]
     X:    -2.2156      Y:    -0.8835      Z:    -0.3941     Total:     2.4176

*** Psi4 exiting successfully. Buy a developer a beer!
