                               Psi4 1.3.2 release

  ==> Input File <==

--------------------------------------------------------------------------
#psi4
#
memory 32 gb

molecule  {
0 1
  O       -0.1147700    -1.8002930     0.4548730
  O        0.3584290     1.3939840    -1.0246780
  O       -1.9551560     1.3713260     0.4690830
  O        2.7148150     0.4505790    -0.2056670
  O       -1.6716310    -0.8002260    -0.9984850
  C        0.3727737     1.0577336     0.3630738
  C       -0.9093320     0.4742750     0.8400700
  C        1.5345100    -0.0288940     0.4204030
  C       -1.2151430    -0.9364420     0.3397180
  C        1.0549700    -1.3167000    -0.2286510
  H        0.7042560     1.8874530     0.9605880
  H       -0.8818830     0.4322700     1.9353370
  H        1.7837760    -0.2316310     1.4680400
  H       -1.9939520    -1.3968640     0.9617720
  H        0.8436020    -1.1475360    -1.2899680
  H        1.8059140    -2.1013880    -0.1265130
  H       -0.4001921     2.0061173    -1.0334932
  H       -2.3417080     0.9766970    -0.3400740
  H        2.3997000     0.9352960    -0.9928030
  H       -1.9956420    -1.6762600    -1.2784950
units angstrom
no_reorient  #important for SAPT in psi4, default
symmetry c1  #important for SAPT in psi4, default
}

set PROPERTIES_ORIGIN ["COM"]
properties('MP2/aug-cc-pvtz', properties = ['dipole'])
--------------------------------------------------------------------------

    Molecular point group: c1
  Charge       = 0
  Multiplicity = 1
  Basis Set: AUG-CC-PVTZ
    Blend: AUG-CC-PVTZ
  Basis Set: (AUG-CC-PVTZ AUX)
    Blend: AUG-CC-PVTZ-JKFIT

    Orbital Energies [Eh]
    ---------------------

    Doubly Occupied:

       1A    -20.592203     2A    -20.580638     3A    -20.574070
       4A    -20.573833     5A    -20.558157     6A    -11.355624
       7A    -11.297605     8A    -11.289667     9A    -11.286821
      10A    -11.277511    11A     -1.439290    12A     -1.394086
      13A     -1.375367    14A     -1.354351    15A     -1.348750
      16A     -1.056524    17A     -1.021653    18A     -0.899865
      19A     -0.867870    20A     -0.795702    21A     -0.752423
      22A     -0.730482    23A     -0.713414    24A     -0.695695
      25A     -0.668918    26A     -0.646712    27A     -0.622339
      28A     -0.613673    29A     -0.603871    30A     -0.584063
      31A     -0.570870    32A     -0.556670    33A     -0.549073
      34A     -0.513245    35A     -0.503589    36A     -0.492133
      37A     -0.487147    38A     -0.466182    39A     -0.441529
      40A     -0.415258

  @DF-RHF Final Energy:  -569.66718693830933

   => Energetics <=

    Nuclear Repulsion Energy =            633.4998268873798679
    One-Electron Energy =               -2041.2002783250702578
    Two-Electron Energy =                 838.0332644993810618
    Total Energy =                       -569.6671869383093281
  Basis Set: (AUG-CC-PVTZ AUX)
    Blend: AUG-CC-PVTZ-RI
    Molecular point group: c1

    Geometry (in Angstrom), charge = 0, multiplicity = 1:

       Center              X                  Y                   Z               Mass
    ------------   -----------------  -----------------  -----------------  -----------------
         O           -0.110018408057    -1.803786067273     0.453470313650    15.994914619570
         O            0.363180591943     1.390490932727    -1.026080686350    15.994914619570
         O           -1.950404408057     1.367832932727     0.467680313650    15.994914619570
         O            2.719566591943     0.447085932727    -0.207069686350    15.994914619570
         O           -1.666879408057    -0.803719067273    -0.999887686350    15.994914619570
         C            0.377525291943     1.054240532727     0.361671113650    12.000000000000
         C           -0.904580408057     0.470781932727     0.838667313650    12.000000000000
         C            1.539261591943    -0.032387067273     0.419000313650    12.000000000000
         C           -1.210391408057    -0.939935067273     0.338315313650    12.000000000000
         C            1.059721591943    -1.320193067273    -0.230053686350    12.000000000000
         H            0.709007591943     1.883959932727     0.959185313650     1.007825032230
         H           -0.877131408057     0.428776932727     1.933934313650     1.007825032230
         H            1.788527591943    -0.235124067273     1.466637313650     1.007825032230
         H           -1.989200408057    -1.400357067273     0.960369313650     1.007825032230
         H            0.848353591943    -1.151029067273    -1.291370686350     1.007825032230
         H            1.810665591943    -2.104881067273    -0.127915686350     1.007825032230
         H           -0.395440508057     2.002624232727    -1.034895886350     1.007825032230
         H           -2.336956408057     0.973203932727    -0.341476686350     1.007825032230
         H            2.404451591943     0.931802932727    -0.994205686350     1.007825032230
         H           -1.990890408057    -1.679753067273    -1.279897686350     1.007825032230

  Basis Set: AUG-CC-PVTZ
    Blend: AUG-CC-PVTZ
  Basis Set: (AUG-CC-PVTZ AUX)
    Blend: AUG-CC-PVTZ-JKFIT
	 Reference Energy          =    -569.6671869383093281 [Eh]
	 Singles Energy            =      -0.0000000000000000 [Eh]
	 Same-Spin Energy          =      -0.5550489038613626 [Eh]
	 Opposite-Spin Energy      =      -1.7049183602233504 [Eh]
	 Correlation Energy        =      -2.2599672640847128 [Eh]
	 Total Energy              =    -571.9271542023940356 [Eh]

	 ================> DF-SCS-MP2 Energies <==================
	-----------------------------------------------------------
	 SCS Same-Spin Scale       =       0.3333333333333333 [-]
	 SCS Opposite-Spin Scale   =       1.2000000000000000 [-]
	 SCS Same-Spin Energy      =      -0.1850163012871209 [Eh]
	 SCS Opposite-Spin Energy  =      -2.0459020322680206 [Eh]
	 SCS Correlation Energy    =      -2.2309183335551417 [Eh]
	 SCS Total Energy          =    -571.8981052718644378 [Eh]
	-----------------------------------------------------------

  Dipole Moment: [D]
     X:    -2.2067      Y:    -0.9864      Z:    -0.2393     Total:     2.4289

*** Psi4 exiting successfully. Buy a developer a beer!
