                               Psi4 1.3.2 release

  ==> Input File <==

--------------------------------------------------------------------------
#psi4
#
memory 32 gb

molecule  {
0 1
  O       -0.1147700    -1.8002930     0.4548730
  O        0.3553819     1.3822843    -1.0276977
  O       -1.9551560     1.3713260     0.4690830
  O        2.7148150     0.4505790    -0.2056670
  O       -1.6716310    -0.8002260    -0.9984850
  C        0.4315910     1.0135520     0.3497470
  C       -0.9093320     0.4742750     0.8400700
  C        1.5345100    -0.0288940     0.4204030
  C       -1.2151430    -0.9364420     0.3397180
  C        1.0549700    -1.3167000    -0.2286510
  H        0.7039209     1.8819891     0.9684791
  H       -0.8818830     0.4322700     1.9353370
  H        1.7837760    -0.2316310     1.4680400
  H       -1.9939520    -1.3968640     0.9617720
  H        0.8436020    -1.1475360    -1.2899680
  H        1.8059140    -2.1013880    -0.1265130
  H       -0.3930520     2.0121160    -1.0836700
  H       -2.3417080     0.9766970    -0.3400740
  H        2.3997000     0.9352960    -0.9928030
  H       -1.9956420    -1.6762600    -1.2784950
units angstrom
no_reorient  #important for SAPT in psi4, default
symmetry c1  #important for SAPT in psi4, default
}

set PROPERTIES_ORIGIN ["COM"]
properties('MP2/aug-cc-pvtz', properties = ['dipole'])
--------------------------------------------------------------------------

    Molecular point group: c1
  Charge       = 0
  Multiplicity = 1
  Basis Set: AUG-CC-PVTZ
    Blend: AUG-CC-PVTZ
  Basis Set: (AUG-CC-PVTZ AUX)
    Blend: AUG-CC-PVTZ-JKFIT

    Orbital Energies [Eh]
    ---------------------

    Doubly Occupied:

       1A    -20.591315     2A    -20.580539     3A    -20.574544
       4A    -20.572152     5A    -20.558232     6A    -11.353635
       7A    -11.298106     8A    -11.291083     9A    -11.285441
      10A    -11.277913    11A     -1.438515    12A     -1.391228
      13A     -1.375587    14A     -1.353748    15A     -1.347409
      16A     -1.058850    17A     -1.022791    18A     -0.898484
      19A     -0.869906    20A     -0.797848    21A     -0.751960
      22A     -0.727731    23A     -0.711578    24A     -0.695819
      25A     -0.669863    26A     -0.646031    27A     -0.620914
      28A     -0.613233    29A     -0.602875    30A     -0.584380
      31A     -0.571581    32A     -0.555960    33A     -0.543011
      34A     -0.516055    35A     -0.502479    36A     -0.491189
      37A     -0.487513    38A     -0.471576    39A     -0.440306
      40A     -0.415787

  @DF-RHF Final Energy:  -569.67401491890462

   => Energetics <=

    Nuclear Repulsion Energy =            633.9726145101631118
    One-Electron Energy =               -2042.1789277536868212
    Two-Electron Energy =                 838.5322983246190915
    Total Energy =                       -569.6740149189046178
  Basis Set: (AUG-CC-PVTZ AUX)
    Blend: AUG-CC-PVTZ-RI
    Molecular point group: c1

    Geometry (in Angstrom), charge = 0, multiplicity = 1:

       Center              X                  Y                   Z               Mass
    ------------   -----------------  -----------------  -----------------  -----------------
         O           -0.114443034864    -1.799009243342     0.455141978500    15.994914619570
         O            0.355708865136     1.383568056658    -1.027428721500    15.994914619570
         O           -1.954829034864     1.372609756658     0.469351978500    15.994914619570
         O            2.715141965136     0.451862756658    -0.205398021500    15.994914619570
         O           -1.671304034864    -0.798942243342    -0.998216021500    15.994914619570
         C            0.431917965136     1.014835756658     0.350015978500    12.000000000000
         C           -0.909005034864     0.475558756658     0.840338978500    12.000000000000
         C            1.534836965136    -0.027610243342     0.420671978500    12.000000000000
         C           -1.214816034864    -0.935158243342     0.339986978500    12.000000000000
         C            1.055296965136    -1.315416243342    -0.228382021500    12.000000000000
         H            0.704247865136     1.883272856658     0.968748078500     1.007825032230
         H           -0.881556034864     0.433553756658     1.935605978500     1.007825032230
         H            1.784102965136    -0.230347243342     1.468308978500     1.007825032230
         H           -1.993625034864    -1.395580243342     0.962040978500     1.007825032230
         H            0.843928965136    -1.146252243342    -1.289699021500     1.007825032230
         H            1.806240965136    -2.100104243342    -0.126244021500     1.007825032230
         H           -0.392725034864     2.013399756658    -1.083401021500     1.007825032230
         H           -2.341381034864     0.977980756658    -0.339805021500     1.007825032230
         H            2.400026965136     0.936579756658    -0.992534021500     1.007825032230
         H           -1.995315034864    -1.674976243342    -1.278226021500     1.007825032230

  Basis Set: AUG-CC-PVTZ
    Blend: AUG-CC-PVTZ
  Basis Set: (AUG-CC-PVTZ AUX)
    Blend: AUG-CC-PVTZ-JKFIT
	 Reference Energy          =    -569.6740149189046178 [Eh]
	 Singles Energy            =      -0.0000000000000000 [Eh]
	 Same-Spin Energy          =      -0.5547529112463679 [Eh]
	 Opposite-Spin Energy      =      -1.7041922739133588 [Eh]
	 Correlation Energy        =      -2.2589451851597269 [Eh]
	 Total Energy              =    -571.9329601040643638 [Eh]

	 ================> DF-SCS-MP2 Energies <==================
	-----------------------------------------------------------
	 SCS Same-Spin Scale       =       0.3333333333333333 [-]
	 SCS Opposite-Spin Scale   =       1.2000000000000000 [-]
	 SCS Same-Spin Energy      =      -0.1849176370821226 [Eh]
	 SCS Opposite-Spin Energy  =      -2.0450307286960303 [Eh]
	 SCS Correlation Energy    =      -2.2299483657781529 [Eh]
	 SCS Total Energy          =    -571.9039632846827317 [Eh]
	-----------------------------------------------------------

  Dipole Moment: [D]
     X:    -2.1723      Y:    -0.9654      Z:    -0.3004     Total:     2.3960

*** Psi4 exiting successfully. Buy a developer a beer!
