                               Psi4 1.3.2 release

  ==> Input File <==

--------------------------------------------------------------------------
#psi4
#
memory 32 gb

molecule  {
0 1
  O       -0.1147700    -1.8002930     0.4548730
  O        0.3584290     1.3939840    -1.0246780
  O       -1.9551560     1.3713260     0.4690830
  O        2.7148150     0.4505790    -0.2056670
  O       -1.6716310    -0.8002260    -0.9984850
  C        0.4315910     1.0135520     0.3497470
  C       -0.9093320     0.4742750     0.8400700
  C        1.5345100    -0.0288940     0.4204030
  C       -1.2151430    -0.9364420     0.3397180
  C        1.0549700    -1.3167000    -0.2286510
  H        0.6794803     1.8080460     0.9050840
  H       -0.8818830     0.4322700     1.9353370
  H        1.7837760    -0.2316310     1.4680400
  H       -1.9939520    -1.3968640     0.9617720
  H        0.8436020    -1.1475360    -1.2899680
  H        1.8059140    -2.1013880    -0.1265130
  H       -0.3930520     2.0121160    -1.0836700
  H       -2.3417080     0.9766970    -0.3400740
  H        2.3997000     0.9352960    -0.9928030
  H       -1.9956420    -1.6762600    -1.2784950
units angstrom
no_reorient  #important for SAPT in psi4, default
symmetry c1  #important for SAPT in psi4, default
}

set PROPERTIES_ORIGIN ["COM"]
properties('MP2/aug-cc-pvtz', properties = ['dipole'])
--------------------------------------------------------------------------

    Molecular point group: c1
  Charge       = 0
  Multiplicity = 1
  Basis Set: AUG-CC-PVTZ
    Blend: AUG-CC-PVTZ
  Basis Set: (AUG-CC-PVTZ AUX)
    Blend: AUG-CC-PVTZ-JKFIT

    Orbital Energies [Eh]
    ---------------------

    Doubly Occupied:

       1A    -20.591173     2A    -20.580248     3A    -20.574520
       4A    -20.569599     5A    -20.558221     6A    -11.353257
       7A    -11.297612     8A    -11.284970     9A    -11.278739
      10A    -11.277472    11A     -1.438247    12A     -1.391226
      13A     -1.375473    14A     -1.353570    15A     -1.347315
      16A     -1.061889    17A     -1.022435    18A     -0.905910
      19A     -0.869734    20A     -0.798829    21A     -0.752206
      22A     -0.736463    23A     -0.712060    24A     -0.696274
      25A     -0.670819    26A     -0.647191    27A     -0.622315
      28A     -0.614719    29A     -0.603683    30A     -0.584466
      31A     -0.571529    32A     -0.556709    33A     -0.543308
      34A     -0.517194    35A     -0.502950    36A     -0.492015
      37A     -0.487504    38A     -0.472088    39A     -0.440287
      40A     -0.417326

  @DF-RHF Final Energy:  -569.66949571996179

   => Energetics <=

    Nuclear Repulsion Energy =            634.4769629337578181
    One-Electron Energy =               -2043.1498284645051626
    Two-Electron Energy =                 839.0033698107856708
    Total Energy =                       -569.6694957199617875
  Basis Set: (AUG-CC-PVTZ AUX)
    Blend: AUG-CC-PVTZ-RI
    Molecular point group: c1

    Geometry (in Angstrom), charge = 0, multiplicity = 1:

       Center              X                  Y                   Z               Mass
    ------------   -----------------  -----------------  -----------------  -----------------
         O           -0.114603686662    -1.799759739020     0.455245884076    15.994914619570
         O            0.358595313338     1.394517260980    -1.024305115924    15.994914619570
         O           -1.954989686662     1.371859260980     0.469455884076    15.994914619570
         O            2.714981313338     0.451112260980    -0.205294115924    15.994914619570
         O           -1.671464686662    -0.799692739020    -0.998112115924    15.994914619570
         C            0.431757313338     1.014085260980     0.350119884076    12.000000000000
         C           -0.909165686662     0.474808260980     0.840442884076    12.000000000000
         C            1.534676313338    -0.028360739020     0.420775884076    12.000000000000
         C           -1.214976686662    -0.935908739020     0.340090884076    12.000000000000
         C            1.055136313338    -1.316166739020    -0.228278115924    12.000000000000
         H            0.679646613338     1.808579260980     0.905456884076     1.007825032230
         H           -0.881716686662     0.432803260980     1.935709884076     1.007825032230
         H            1.783942313338    -0.231097739020     1.468412884076     1.007825032230
         H           -1.993785686662    -1.396330739020     0.962144884076     1.007825032230
         H            0.843768313338    -1.147002739020    -1.289595115924     1.007825032230
         H            1.806080313338    -2.100854739020    -0.126140115924     1.007825032230
         H           -0.392885686662     2.012649260980    -1.083297115924     1.007825032230
         H           -2.341541686662     0.977230260980    -0.339701115924     1.007825032230
         H            2.399866313338     0.935829260980    -0.992430115924     1.007825032230
         H           -1.995475686662    -1.675726739020    -1.278122115924     1.007825032230

  Basis Set: AUG-CC-PVTZ
    Blend: AUG-CC-PVTZ
  Basis Set: (AUG-CC-PVTZ AUX)
    Blend: AUG-CC-PVTZ-JKFIT
	 Reference Energy          =    -569.6694957199617875 [Eh]
	 Singles Energy            =      -0.0000000000000000 [Eh]
	 Same-Spin Energy          =      -0.5544527516586482 [Eh]
	 Opposite-Spin Energy      =      -1.7032154361282659 [Eh]
	 Correlation Energy        =      -2.2576681877869138 [Eh]
	 Total Energy              =    -571.9271639077486498 [Eh]

	 ================> DF-SCS-MP2 Energies <==================
	-----------------------------------------------------------
	 SCS Same-Spin Scale       =       0.3333333333333333 [-]
	 SCS Opposite-Spin Scale   =       1.2000000000000000 [-]
	 SCS Same-Spin Energy      =      -0.1848175838862161 [Eh]
	 SCS Opposite-Spin Energy  =      -2.0438585233539190 [Eh]
	 SCS Correlation Energy    =      -2.2286761072401351 [Eh]
	 SCS Total Energy          =    -571.8981718272019634 [Eh]
	-----------------------------------------------------------

  Dipole Moment: [D]
     X:    -2.1668      Y:    -0.9507      Z:    -0.2521     Total:     2.3795

*** Psi4 exiting successfully. Buy a developer a beer!
