                               Psi4 1.3.2 release

  ==> Input File <==

--------------------------------------------------------------------------
#psi4
#
memory 32 gb

molecule  {
0 1
  O       -0.1420578    -1.8362120     0.4357489
  O        0.3584290     1.3939840    -1.0246780
  O       -1.9551560     1.3713260     0.4690830
  O        2.7148150     0.4505790    -0.2056670
  O       -1.6716310    -0.8002260    -0.9984850
  C        0.4315910     1.0135520     0.3497470
  C       -0.9592406     0.4884545     0.8277538
  C        1.5345100    -0.0288940     0.4204030
  C       -1.2151430    -0.9364420     0.3397180
  C        1.0549700    -1.3167000    -0.2286510
  H        0.7042560     1.8874530     0.9605880
  H       -0.8818830     0.4322700     1.9353370
  H        1.7837760    -0.2316310     1.4680400
  H       -1.9939520    -1.3968640     0.9617720
  H        0.8436020    -1.1475360    -1.2899680
  H        1.8059140    -2.1013880    -0.1265130
  H       -0.3930520     2.0121160    -1.0836700
  H       -2.3417080     0.9766970    -0.3400740
  H        2.3997000     0.9352960    -0.9928030
  H       -1.9956420    -1.6762600    -1.2784950
units angstrom
no_reorient  #important for SAPT in psi4, default
symmetry c1  #important for SAPT in psi4, default
}

set PROPERTIES_ORIGIN ["COM"]
properties('MP2/aug-cc-pvtz', properties = ['dipole'])
--------------------------------------------------------------------------

    Molecular point group: c1
  Charge       = 0
  Multiplicity = 1
  Basis Set: AUG-CC-PVTZ
    Blend: AUG-CC-PVTZ
  Basis Set: (AUG-CC-PVTZ AUX)
    Blend: AUG-CC-PVTZ-JKFIT

    Orbital Energies [Eh]
    ---------------------

    Doubly Occupied:

       1A    -20.588970     2A    -20.582471     3A    -20.580954
       4A    -20.570441     5A    -20.559803     6A    -11.351285
       7A    -11.299915     8A    -11.290501     9A    -11.287122
      10A    -11.279733    11A     -1.438147    12A     -1.398971
      13A     -1.382356    14A     -1.352134    15A     -1.348934
      16A     -1.053951    17A     -1.018948    18A     -0.899282
      19A     -0.868650    20A     -0.799016    21A     -0.752497
      22A     -0.724204    23A     -0.711755    24A     -0.701379
      25A     -0.669693    26A     -0.646806    27A     -0.618099
      28A     -0.617930    29A     -0.603514    30A     -0.586833
      31A     -0.572061    32A     -0.557464    33A     -0.545566
      34A     -0.516360    35A     -0.501181    36A     -0.491568
      37A     -0.485545    38A     -0.471141    39A     -0.434189
      40A     -0.415781

  @DF-RHF Final Energy:  -569.67036488209999

   => Energetics <=

    Nuclear Repulsion Energy =            632.7933165744822190
    One-Electron Energy =               -2039.7770612713927676
    Two-Electron Energy =                 837.3133798148104461
    Total Energy =                       -569.6703648820999888
  Basis Set: (AUG-CC-PVTZ AUX)
    Blend: AUG-CC-PVTZ-RI
    Molecular point group: c1

    Geometry (in Angstrom), charge = 0, multiplicity = 1:

       Center              X                  Y                   Z               Mass
    ------------   -----------------  -----------------  -----------------  -----------------
         O           -0.135157860213    -1.833517240366     0.438772480125    15.994914619570
         O            0.365328939787     1.396678759634    -1.021654419875    15.994914619570
         O           -1.948256060213     1.374020759634     0.472106580125    15.994914619570
         O            2.721714939787     0.453273759634    -0.202643419875    15.994914619570
         O           -1.664731060213    -0.797531240366    -0.995461419875    15.994914619570
         C            0.438490939787     1.016246759634     0.352770580125    12.000000000000
         C           -0.952340660213     0.491149259634     0.830777380125    12.000000000000
         C            1.541409939787    -0.026199240366     0.423426580125    12.000000000000
         C           -1.208243060213    -0.933747240366     0.342741580125    12.000000000000
         C            1.061869939787    -1.314005240366    -0.225627419875    12.000000000000
         H            0.711155939787     1.890147759634     0.963611580125     1.007825032230
         H           -0.874983060213     0.434964759634     1.938360580125     1.007825032230
         H            1.790675939787    -0.228936240366     1.471063580125     1.007825032230
         H           -1.987052060213    -1.394169240366     0.964795580125     1.007825032230
         H            0.850501939787    -1.144841240366    -1.286944419875     1.007825032230
         H            1.812813939787    -2.098693240366    -0.123489419875     1.007825032230
         H           -0.386152060213     2.014810759634    -1.080646419875     1.007825032230
         H           -2.334808060213     0.979391759634    -0.337050419875     1.007825032230
         H            2.406599939787     0.937990759634    -0.989779419875     1.007825032230
         H           -1.988742060213    -1.673565240366    -1.275471419875     1.007825032230

  Basis Set: AUG-CC-PVTZ
    Blend: AUG-CC-PVTZ
  Basis Set: (AUG-CC-PVTZ AUX)
    Blend: AUG-CC-PVTZ-JKFIT
	 Reference Energy          =    -569.6703648820999888 [Eh]
	 Singles Energy            =      -0.0000000000000000 [Eh]
	 Same-Spin Energy          =      -0.5547749581924498 [Eh]
	 Opposite-Spin Energy      =      -1.7042417097159137 [Eh]
	 Correlation Energy        =      -2.2590166679083636 [Eh]
	 Total Energy              =    -571.9293815500083156 [Eh]

	 ================> DF-SCS-MP2 Energies <==================
	-----------------------------------------------------------
	 SCS Same-Spin Scale       =       0.3333333333333333 [-]
	 SCS Opposite-Spin Scale   =       1.2000000000000000 [-]
	 SCS Same-Spin Energy      =      -0.1849249860641499 [Eh]
	 SCS Opposite-Spin Energy  =      -2.0450900516590962 [Eh]
	 SCS Correlation Energy    =      -2.2300150377232462 [Eh]
	 SCS Total Energy          =    -571.9003799198231945 [Eh]
	-----------------------------------------------------------

  Dipole Moment: [D]
     X:    -2.2195      Y:    -0.8117      Z:    -0.3133     Total:     2.3839

*** Psi4 exiting successfully. Buy a developer a beer!
