                               Psi4 1.3.2 release

  ==> Input File <==

--------------------------------------------------------------------------
#psi4
#
memory 32 gb

molecule  {
0 1
  O       -0.1147700    -1.8002930     0.4548730
  O        0.3584290     1.3939840    -1.0246780
  O       -1.9551560     1.3713260     0.4690830
  O        2.7132458     0.4117487    -0.2364028
  O       -1.6716310    -0.8002260    -0.9984850
  C        0.4315910     1.0135520     0.3497470
  C       -0.9093320     0.4742750     0.8400700
  C        1.5345100    -0.0288940     0.4204030
  C       -1.2151430    -0.9364420     0.3397180
  C        1.0960750    -1.3140660    -0.2620789
  H        0.7042560     1.8874530     0.9605880
  H       -0.8818830     0.4322700     1.9353370
  H        1.7837760    -0.2316310     1.4680400
  H       -1.9939520    -1.3968640     0.9617720
  H        0.8436020    -1.1475360    -1.2899680
  H        1.8059140    -2.1013880    -0.1265130
  H       -0.3930520     2.0121160    -1.0836700
  H       -2.3417080     0.9766970    -0.3400740
  H        2.3997000     0.9352960    -0.9928030
  H       -1.9956420    -1.6762600    -1.2784950
units angstrom
no_reorient  #important for SAPT in psi4, default
symmetry c1  #important for SAPT in psi4, default
}

set PROPERTIES_ORIGIN ["COM"]
properties('MP2/aug-cc-pvtz', properties = ['dipole'])
--------------------------------------------------------------------------

    Molecular point group: c1
  Charge       = 0
  Multiplicity = 1
  Basis Set: AUG-CC-PVTZ
    Blend: AUG-CC-PVTZ
  Basis Set: (AUG-CC-PVTZ AUX)
    Blend: AUG-CC-PVTZ-JKFIT

    Orbital Energies [Eh]
    ---------------------

    Doubly Occupied:

       1A    -20.589427     2A    -20.573971     3A    -20.573846
       4A    -20.572167     5A    -20.557443     6A    -11.350668
       7A    -11.297575     8A    -11.292832     9A    -11.287554
      10A    -11.277578    11A     -1.431452    12A     -1.391127
      13A     -1.372898    14A     -1.349161    15A     -1.345634
      16A     -1.058693    17A     -1.021246    18A     -0.901316
      19A     -0.867322    20A     -0.798922    21A     -0.750696
      22A     -0.727677    23A     -0.707309    24A     -0.694462
      25A     -0.671171    26A     -0.644949    27A     -0.616163
      28A     -0.613039    29A     -0.600317    30A     -0.585586
      31A     -0.573840    32A     -0.558608    33A     -0.541953
      34A     -0.516126    35A     -0.500592    36A     -0.490287
      37A     -0.482416    38A     -0.475503    39A     -0.442689
      40A     -0.415402

  @DF-RHF Final Energy:  -569.67146221538417

   => Energetics <=

    Nuclear Repulsion Energy =            633.1525269049241160
    One-Electron Energy =               -2040.6087458209497072
    Two-Electron Energy =                 837.7847567006414238
    Total Energy =                       -569.6714622153841674
  Basis Set: (AUG-CC-PVTZ AUX)
    Blend: AUG-CC-PVTZ-RI
    Molecular point group: c1

    Geometry (in Angstrom), charge = 0, multiplicity = 1:

       Center              X                  Y                   Z               Mass
    ------------   -----------------  -----------------  -----------------  -----------------
         O           -0.117890065015    -1.796364594836     0.460822673350    15.994914619570
         O            0.355308934985     1.397912405164    -1.018728326650    15.994914619570
         O           -1.958276065015     1.375254405164     0.475032673350    15.994914619570
         O            2.710125734985     0.415677105164    -0.230453126650    15.994914619570
         O           -1.674751065015    -0.796297594836    -0.992535326650    15.994914619570
         C            0.428470934985     1.017480405164     0.355696673350    12.000000000000
         C           -0.912452065015     0.478203405164     0.846019673350    12.000000000000
         C            1.531389934985    -0.024965594836     0.426352673350    12.000000000000
         C           -1.218263065015    -0.932513594836     0.345667673350    12.000000000000
         C            1.092954934985    -1.310137594836    -0.256129226650    12.000000000000
         H            0.701135934985     1.891381405164     0.966537673350     1.007825032230
         H           -0.885003065015     0.436198405164     1.941286673350     1.007825032230
         H            1.780655934985    -0.227702594836     1.473989673350     1.007825032230
         H           -1.997072065015    -1.392935594836     0.967721673350     1.007825032230
         H            0.840481934985    -1.143607594836    -1.284018326650     1.007825032230
         H            1.802793934985    -2.097459594836    -0.120563326650     1.007825032230
         H           -0.396172065015     2.016044405164    -1.077720326650     1.007825032230
         H           -2.344828065015     0.980625405164    -0.334124326650     1.007825032230
         H            2.396579934985     0.939224405164    -0.986853326650     1.007825032230
         H           -1.998762065015    -1.672331594836    -1.272545326650     1.007825032230

  Basis Set: AUG-CC-PVTZ
    Blend: AUG-CC-PVTZ
  Basis Set: (AUG-CC-PVTZ AUX)
    Blend: AUG-CC-PVTZ-JKFIT
	 Reference Energy          =    -569.6714622153841674 [Eh]
	 Singles Energy            =      -0.0000000000000000 [Eh]
	 Same-Spin Energy          =      -0.5545456736719079 [Eh]
	 Opposite-Spin Energy      =      -1.7043720168429566 [Eh]
	 Correlation Energy        =      -2.2589176905148642 [Eh]
	 Total Energy              =    -571.9303799058990307 [Eh]

	 ================> DF-SCS-MP2 Energies <==================
	-----------------------------------------------------------
	 SCS Same-Spin Scale       =       0.3333333333333333 [-]
	 SCS Opposite-Spin Scale   =       1.2000000000000000 [-]
	 SCS Same-Spin Energy      =      -0.1848485578906360 [Eh]
	 SCS Opposite-Spin Energy  =      -2.0452464202115479 [Eh]
	 SCS Correlation Energy    =      -2.2300949781021839 [Eh]
	 SCS Total Energy          =    -571.9015571934863829 [Eh]
	-----------------------------------------------------------

  Dipole Moment: [D]
     X:    -2.0306      Y:    -0.8680      Z:    -0.3031     Total:     2.2291

*** Psi4 exiting successfully. Buy a developer a beer!
