                               Psi4 1.3.2 release

  ==> Input File <==

--------------------------------------------------------------------------
#psi4
#
memory 32 gb

molecule  {
0 1
  O       -0.1147700    -1.8002930     0.4548730
  O        0.3584290     1.3939840    -1.0246780
  O       -1.9551560     1.3713260     0.4690830
  O        2.7148150     0.4505790    -0.2056670
  O       -1.6716310    -0.8002260    -0.9984850
  C        0.4315910     1.0135520     0.3497470
  C       -0.9093320     0.4742750     0.8400700
  C        1.5345100    -0.0288940     0.4204030
  C       -1.2151430    -0.9364420     0.3397180
  C        1.0549700    -1.3167000    -0.2286510
  H        0.7042560     1.8874530     0.9605880
  H       -0.8768760     0.4246078     2.1351274
  H        1.7837760    -0.2316310     1.4680400
  H       -1.9939520    -1.3968640     0.9617720
  H        0.8436020    -1.1475360    -1.2899680
  H        1.8059140    -2.1013880    -0.1265130
  H       -0.3930520     2.0121160    -1.0836700
  H       -2.3417080     0.9766970    -0.3400740
  H        2.3997000     0.9352960    -0.9928030
  H       -1.9956420    -1.6762600    -1.2784950
units angstrom
no_reorient  #important for SAPT in psi4, default
symmetry c1  #important for SAPT in psi4, default
}

set PROPERTIES_ORIGIN ["COM"]
properties('MP2/aug-cc-pvtz', properties = ['dipole'])
--------------------------------------------------------------------------

    Molecular point group: c1
  Charge       = 0
  Multiplicity = 1
  Basis Set: AUG-CC-PVTZ
    Blend: AUG-CC-PVTZ
  Basis Set: (AUG-CC-PVTZ AUX)
    Blend: AUG-CC-PVTZ-JKFIT

    Orbital Energies [Eh]
    ---------------------

    Doubly Occupied:

       1A    -20.593190     2A    -20.580954     3A    -20.578465
       4A    -20.573232     5A    -20.558579     6A    -11.355823
       7A    -11.320975     8A    -11.293146     9A    -11.285749
      10A    -11.278406    11A     -1.439839    12A     -1.393269
      13A     -1.377338    14A     -1.355159    15A     -1.348916
      16A     -1.056464    17A     -1.020471    18A     -0.899496
      19A     -0.864761    20A     -0.792660    21A     -0.751685
      22A     -0.727309    23A     -0.712347    24A     -0.697553
      25A     -0.668392    26A     -0.641587    27A     -0.621728
      28A     -0.615266    29A     -0.599523    30A     -0.582949
      31A     -0.569246    32A     -0.555722    33A     -0.541902
      34A     -0.509676    35A     -0.503488    36A     -0.492321
      37A     -0.481126    38A     -0.471523    39A     -0.438448
      40A     -0.416741

  @DF-RHF Final Energy:  -569.65411407232295

   => Energetics <=

    Nuclear Repulsion Energy =            632.7037103909071902
    One-Electron Energy =               -2039.5848028586121927
    Two-Electron Energy =                 837.2269783953820479
    Total Energy =                       -569.6541140723229546
  Basis Set: (AUG-CC-PVTZ AUX)
    Blend: AUG-CC-PVTZ-RI
    Molecular point group: c1

    Geometry (in Angstrom), charge = 0, multiplicity = 1:

       Center              X                  Y                   Z               Mass
    ------------   -----------------  -----------------  -----------------  -----------------
         O           -0.114803721222    -1.800241610695     0.453531207331    15.994914619570
         O            0.358395278778     1.394035389305    -1.026019792669    15.994914619570
         O           -1.955189721222     1.371377389305     0.467741207331    15.994914619570
         O            2.714781278778     0.450630389305    -0.207008792669    15.994914619570
         O           -1.671664721222    -0.800174610695    -0.999826792669    15.994914619570
         C            0.431557278778     1.013603389305     0.348405207331    12.000000000000
         C           -0.909365721222     0.474326389305     0.838728207331    12.000000000000
         C            1.534476278778    -0.028842610695     0.419061207331    12.000000000000
         C           -1.215176721222    -0.936390610695     0.338376207331    12.000000000000
         C            1.054936278778    -1.316648610695    -0.229992792669    12.000000000000
         H            0.704222278778     1.887504389305     0.959246207331     1.007825032230
         H           -0.876909721222     0.424659189305     2.133785607331     1.007825032230
         H            1.783742278778    -0.231579610695     1.466698207331     1.007825032230
         H           -1.993985721222    -1.396812610695     0.960430207331     1.007825032230
         H            0.843568278778    -1.147484610695    -1.291309792669     1.007825032230
         H            1.805880278778    -2.101336610695    -0.127854792669     1.007825032230
         H           -0.393085721222     2.012167389305    -1.085011792669     1.007825032230
         H           -2.341741721222     0.976748389305    -0.341415792669     1.007825032230
         H            2.399666278778     0.935347389305    -0.994144792669     1.007825032230
         H           -1.995675721222    -1.676208610695    -1.279836792669     1.007825032230

  Basis Set: AUG-CC-PVTZ
    Blend: AUG-CC-PVTZ
  Basis Set: (AUG-CC-PVTZ AUX)
    Blend: AUG-CC-PVTZ-JKFIT
	 Reference Energy          =    -569.6541140723229546 [Eh]
	 Singles Energy            =      -0.0000000000000000 [Eh]
	 Same-Spin Energy          =      -0.5549580800088425 [Eh]
	 Opposite-Spin Energy      =      -1.7059102407014999 [Eh]
	 Correlation Energy        =      -2.2608683207103422 [Eh]
	 Total Energy              =    -571.9149823930332559 [Eh]

	 ================> DF-SCS-MP2 Energies <==================
	-----------------------------------------------------------
	 SCS Same-Spin Scale       =       0.3333333333333333 [-]
	 SCS Opposite-Spin Scale   =       1.2000000000000000 [-]
	 SCS Same-Spin Energy      =      -0.1849860266696142 [Eh]
	 SCS Opposite-Spin Energy  =      -2.0470922888417999 [Eh]
	 SCS Correlation Energy    =      -2.2320783155114139 [Eh]
	 SCS Total Energy          =    -571.8861923878343987 [Eh]
	-----------------------------------------------------------

  Dipole Moment: [D]
     X:    -2.2145      Y:    -0.9650      Z:    -0.4232     Total:     2.4524

*** Psi4 exiting successfully. Buy a developer a beer!
