                               Psi4 1.3.2 release

  ==> Input File <==

--------------------------------------------------------------------------
#psi4
#
memory 32 gb

molecule  {
0 1
  O       -0.1163454    -1.8073697     0.4064171
  O        0.3584290     1.3939840    -1.0246780
  O       -1.9551560     1.3713260     0.4690830
  O        2.7148150     0.4505790    -0.2056670
  O       -1.6358950    -0.8314114    -1.0129311
  C        0.4315910     1.0135520     0.3497470
  C       -0.9093320     0.4742750     0.8400700
  C        1.5345100    -0.0288940     0.4204030
  C       -1.2151430    -0.9364420     0.3397180
  C        1.0549700    -1.3167000    -0.2286510
  H        0.7042560     1.8874530     0.9605880
  H       -0.8818830     0.4322700     1.9353370
  H        1.7837760    -0.2316310     1.4680400
  H       -1.9939520    -1.3968640     0.9617720
  H        0.8436020    -1.1475360    -1.2899680
  H        1.8059140    -2.1013880    -0.1265130
  H       -0.3930520     2.0121160    -1.0836700
  H       -2.3417080     0.9766970    -0.3400740
  H        2.3997000     0.9352960    -0.9928030
  H       -1.9956420    -1.6762600    -1.2784950
units angstrom
no_reorient  #important for SAPT in psi4, default
symmetry c1  #important for SAPT in psi4, default
}

set PROPERTIES_ORIGIN ["COM"]
properties('MP2/aug-cc-pvtz', properties = ['dipole'])
--------------------------------------------------------------------------

    Molecular point group: c1
  Charge       = 0
  Multiplicity = 1
  Basis Set: AUG-CC-PVTZ
    Blend: AUG-CC-PVTZ
  Basis Set: (AUG-CC-PVTZ AUX)
    Blend: AUG-CC-PVTZ-JKFIT

    Orbital Energies [Eh]
    ---------------------

    Doubly Occupied:

       1A    -20.586440     2A    -20.577281     3A    -20.576924
       4A    -20.571355     5A    -20.557977     6A    -11.355127
       7A    -11.300762     8A    -11.291532     9A    -11.285198
      10A    -11.274876    11A     -1.442002    12A     -1.392709
      13A     -1.376248    14A     -1.354558    15A     -1.347826
      16A     -1.059883    17A     -1.024147    18A     -0.898645
      19A     -0.872880    20A     -0.799381    21A     -0.752072
      22A     -0.727696    23A     -0.714305    24A     -0.698044
      25A     -0.670584    26A     -0.646779    27A     -0.620890
      28A     -0.614319    29A     -0.604799    30A     -0.585114
      31A     -0.572208    32A     -0.555088    33A     -0.544000
      34A     -0.516599    35A     -0.503205    36A     -0.492013
      37A     -0.486519    38A     -0.465851    39A     -0.441535
      40A     -0.415636

  @DF-RHF Final Energy:  -569.67553812595861

   => Energetics <=

    Nuclear Repulsion Energy =            634.3536039949135557
    One-Electron Energy =               -2042.9122759141400820
    Two-Electron Energy =                 838.8831337932679162
    Total Energy =                       -569.6755381259586102
  Basis Set: (AUG-CC-PVTZ AUX)
    Blend: AUG-CC-PVTZ-RI
    Molecular point group: c1

    Geometry (in Angstrom), charge = 0, multiplicity = 1:

       Center              X                  Y                   Z               Mass
    ------------   -----------------  -----------------  -----------------  -----------------
         O           -0.119986848742    -1.803291216423     0.413122246123    15.994914619570
         O            0.354787551258     1.398062483577    -1.017972853877    15.994914619570
         O           -1.958797448742     1.375404483577     0.475788146123    15.994914619570
         O            2.711173551258     0.454657483577    -0.198961853877    15.994914619570
         O           -1.639536448742    -0.827332916423    -1.006225953877    15.994914619570
         C            0.427949551258     1.017630483577     0.356452146123    12.000000000000
         C           -0.912973448742     0.478353483577     0.846775146123    12.000000000000
         C            1.530868551258    -0.024815516423     0.427108146123    12.000000000000
         C           -1.218784448742    -0.932363516423     0.346423146123    12.000000000000
         C            1.051328551258    -1.312621516423    -0.221945853877    12.000000000000
         H            0.700614551258     1.891531483577     0.967293146123     1.007825032230
         H           -0.885524448742     0.436348483577     1.942042146123     1.007825032230
         H            1.780134551258    -0.227552516423     1.474745146123     1.007825032230
         H           -1.997593448742    -1.392785516423     0.968477146123     1.007825032230
         H            0.839960551258    -1.143457516423    -1.283262853877     1.007825032230
         H            1.802272551258    -2.097309516423    -0.119807853877     1.007825032230
         H           -0.396693448742     2.016194483577    -1.076964853877     1.007825032230
         H           -2.345349448742     0.980775483577    -0.333368853877     1.007825032230
         H            2.396058551258     0.939374483577    -0.986097853877     1.007825032230
         H           -1.999283448742    -1.672181516423    -1.271789853877     1.007825032230

  Basis Set: AUG-CC-PVTZ
    Blend: AUG-CC-PVTZ
  Basis Set: (AUG-CC-PVTZ AUX)
    Blend: AUG-CC-PVTZ-JKFIT
	 Reference Energy          =    -569.6755381259586102 [Eh]
	 Singles Energy            =      -0.0000000000000000 [Eh]
	 Same-Spin Energy          =      -0.5541043128935237 [Eh]
	 Opposite-Spin Energy      =      -1.7025555379025681 [Eh]
	 Correlation Energy        =      -2.2566598507960918 [Eh]
	 Total Energy              =    -571.9321979767546509 [Eh]

	 ================> DF-SCS-MP2 Energies <==================
	-----------------------------------------------------------
	 SCS Same-Spin Scale       =       0.3333333333333333 [-]
	 SCS Opposite-Spin Scale   =       1.2000000000000000 [-]
	 SCS Same-Spin Energy      =      -0.1847014376311746 [Eh]
	 SCS Opposite-Spin Energy  =      -2.0430666454830817 [Eh]
	 SCS Correlation Energy    =      -2.2277680831142561 [Eh]
	 SCS Total Energy          =    -571.9033062090728663 [Eh]
	-----------------------------------------------------------

  Dipole Moment: [D]
     X:    -2.3014      Y:    -0.8902      Z:    -0.1432     Total:     2.4717

*** Psi4 exiting successfully. Buy a developer a beer!
