                               Psi4 1.3.2 release

  ==> Input File <==

--------------------------------------------------------------------------
#psi4
#
memory 32 gb

molecule  {
0 1
  O       -0.1147700    -1.8002930     0.4548730
  O        0.3584290     1.3939840    -1.0246780
  O       -1.9551560     1.3713260     0.4690830
  O        2.7090303     0.4612095    -0.2083088
  O       -1.6716310    -0.8002260    -0.9984850
  C        0.4397955     1.0217093     0.3432728
  C       -0.9093320     0.4742750     0.8400700
  C        1.5345100    -0.0288940     0.4204030
  C       -1.2151430    -0.9364420     0.3397180
  C        1.0549700    -1.3167000    -0.2286510
  H        0.7042560     1.8874530     0.9605880
  H       -0.8818830     0.4322700     1.9353370
  H        1.7837760    -0.2316310     1.4680400
  H       -1.9939520    -1.3968640     0.9617720
  H        0.8436020    -1.1475360    -1.2899680
  H        1.8059140    -2.1013880    -0.1265130
  H       -0.3930520     2.0121160    -1.0836700
  H       -2.3417080     0.9766970    -0.3400740
  H        2.3997000     0.9352960    -0.9928030
  H       -1.9956420    -1.6762600    -1.2784950
units angstrom
no_reorient  #important for SAPT in psi4, default
symmetry c1  #important for SAPT in psi4, default
}

set PROPERTIES_ORIGIN ["COM"]
properties('MP2/aug-cc-pvtz', properties = ['dipole'])
--------------------------------------------------------------------------

    Molecular point group: c1
  Charge       = 0
  Multiplicity = 1
  Basis Set: AUG-CC-PVTZ
    Blend: AUG-CC-PVTZ
  Basis Set: (AUG-CC-PVTZ AUX)
    Blend: AUG-CC-PVTZ-JKFIT

    Orbital Energies [Eh]
    ---------------------

    Doubly Occupied:

       1A    -20.591444     2A    -20.580746     3A    -20.574165
       4A    -20.571729     5A    -20.556814     6A    -11.353641
       7A    -11.297994     8A    -11.290442     9A    -11.285561
      10A    -11.278432    11A     -1.438579    12A     -1.393267
      13A     -1.375960    14A     -1.353955    15A     -1.349349
      16A     -1.057212    17A     -1.022687    18A     -0.898931
      19A     -0.869317    20A     -0.799159    21A     -0.752206
      22A     -0.728386    23A     -0.711867    24A     -0.696196
      25A     -0.670564    26A     -0.647057    27A     -0.620998
      28A     -0.615050    29A     -0.602603    30A     -0.584979
      31A     -0.571463    32A     -0.555987    33A     -0.543645
      34A     -0.516523    35A     -0.502585    36A     -0.491257
      37A     -0.487649    38A     -0.471730    39A     -0.437664
      40A     -0.416052

  @DF-RHF Final Energy:  -569.67530104787602

   => Energetics <=

    Nuclear Repulsion Energy =            633.8589754127825699
    One-Electron Energy =               -2041.9408620524354774
    Two-Electron Energy =                 838.4065855917770023
    Total Energy =                       -569.6753010478760189
  Basis Set: (AUG-CC-PVTZ AUX)
    Blend: AUG-CC-PVTZ-RI
    Molecular point group: c1

    Geometry (in Angstrom), charge = 0, multiplicity = 1:

       Center              X                  Y                   Z               Mass
    ------------   -----------------  -----------------  -----------------  -----------------
         O           -0.114809599402    -1.802078588438     0.455672450157    15.994914619570
         O            0.358389400598     1.392198411562    -1.023878549843    15.994914619570
         O           -1.955195599402     1.369540411562     0.469882450157    15.994914619570
         O            2.708990700598     0.459423911562    -0.207509349843    15.994914619570
         O           -1.671670599402    -0.802011588438    -0.997685549843    15.994914619570
         C            0.439755900598     1.019923711562     0.344072250157    12.000000000000
         C           -0.909371599402     0.472489411562     0.840869450157    12.000000000000
         C            1.534470400598    -0.030679588438     0.421202450157    12.000000000000
         C           -1.215182599402    -0.938227588438     0.340517450157    12.000000000000
         C            1.054930400598    -1.318485588438    -0.227851549843    12.000000000000
         H            0.704216400598     1.885667411562     0.961387450157     1.007825032230
         H           -0.881922599402     0.430484411562     1.936136450157     1.007825032230
         H            1.783736400598    -0.233416588438     1.468839450157     1.007825032230
         H           -1.993991599402    -1.398649588438     0.962571450157     1.007825032230
         H            0.843562400598    -1.149321588438    -1.289168549843     1.007825032230
         H            1.805874400598    -2.103173588438    -0.125713549843     1.007825032230
         H           -0.393091599402     2.010330411562    -1.082870549843     1.007825032230
         H           -2.341747599402     0.974911411562    -0.339274549843     1.007825032230
         H            2.399660400598     0.933510411562    -0.992003549843     1.007825032230
         H           -1.995681599402    -1.678045588438    -1.277695549843     1.007825032230

  Basis Set: AUG-CC-PVTZ
    Blend: AUG-CC-PVTZ
  Basis Set: (AUG-CC-PVTZ AUX)
    Blend: AUG-CC-PVTZ-JKFIT
	 Reference Energy          =    -569.6753010478760189 [Eh]
	 Singles Energy            =      -0.0000000000000000 [Eh]
	 Same-Spin Energy          =      -0.5544041495823485 [Eh]
	 Opposite-Spin Energy      =      -1.7034048882582138 [Eh]
	 Correlation Energy        =      -2.2578090378405622 [Eh]
	 Total Energy              =    -571.9331100857166348 [Eh]

	 ================> DF-SCS-MP2 Energies <==================
	-----------------------------------------------------------
	 SCS Same-Spin Scale       =       0.3333333333333333 [-]
	 SCS Opposite-Spin Scale   =       1.2000000000000000 [-]
	 SCS Same-Spin Energy      =      -0.1848013831941162 [Eh]
	 SCS Opposite-Spin Energy  =      -2.0440858659098566 [Eh]
	 SCS Correlation Energy    =      -2.2288872491039728 [Eh]
	 SCS Total Energy          =    -571.9041882969800099 [Eh]
	-----------------------------------------------------------

  Dipole Moment: [D]
     X:    -2.1662      Y:    -1.0012      Z:    -0.3138     Total:     2.4069

*** Psi4 exiting successfully. Buy a developer a beer!
