                               Psi4 1.3.2 release

  ==> Input File <==

--------------------------------------------------------------------------
#psi4
#
memory 32 gb

molecule  {
0 1
  O       -0.1147700    -1.8002930     0.4548730
  O        0.3584290     1.3939840    -1.0246780
  O       -1.9551560     1.3713260     0.4690830
  O        2.7148150     0.4505790    -0.2056670
  O       -1.6716310    -0.8002260    -0.9984850
  C        0.4475717     1.0172662     0.4004296
  C       -0.9093320     0.4742750     0.8400700
  C        1.5345100    -0.0288940     0.4204030
  C       -1.2151430    -0.9364420     0.3397180
  C        1.0549700    -1.3167000    -0.2286510
  H        0.7042560     1.8874530     0.9605880
  H       -0.8461935     0.4460466     1.9343023
  H        1.7837760    -0.2316310     1.4680400
  H       -1.9939520    -1.3968640     0.9617720
  H        0.8436020    -1.1475360    -1.2899680
  H        1.8059140    -2.1013880    -0.1265130
  H       -0.3930520     2.0121160    -1.0836700
  H       -2.3417080     0.9766970    -0.3400740
  H        2.3997000     0.9352960    -0.9928030
  H       -1.9956420    -1.6762600    -1.2784950
units angstrom
no_reorient  #important for SAPT in psi4, default
symmetry c1  #important for SAPT in psi4, default
}

set PROPERTIES_ORIGIN ["COM"]
properties('MP2/aug-cc-pvtz', properties = ['dipole'])
--------------------------------------------------------------------------

    Molecular point group: c1
  Charge       = 0
  Multiplicity = 1
  Basis Set: AUG-CC-PVTZ
    Blend: AUG-CC-PVTZ
  Basis Set: (AUG-CC-PVTZ AUX)
    Blend: AUG-CC-PVTZ-JKFIT

    Orbital Energies [Eh]
    ---------------------

    Doubly Occupied:

       1A    -20.591676     2A    -20.581195     3A    -20.575553
       4A    -20.564867     5A    -20.558603     6A    -11.355332
       7A    -11.300103     8A    -11.290815     9A    -11.286707
      10A    -11.279277    11A     -1.438548    12A     -1.383789
      13A     -1.374761    14A     -1.354100    15A     -1.338358
      16A     -1.062962    17A     -1.023569    18A     -0.902118
      19A     -0.872216    20A     -0.795356    21A     -0.751105
      22A     -0.729265    23A     -0.711194    24A     -0.693773
      25A     -0.664351    26A     -0.646484    27A     -0.621844
      28A     -0.610722    29A     -0.604424    30A     -0.585368
      31A     -0.572297    32A     -0.557440    33A     -0.536292
      34A     -0.513042    35A     -0.503640    36A     -0.489363
      37A     -0.487892    38A     -0.472553    39A     -0.441750
      40A     -0.420567

  @DF-RHF Final Energy:  -569.67062015910801

   => Energetics <=

    Nuclear Repulsion Energy =            633.1706816254522892
    One-Electron Energy =               -2040.5960608768634756
    Two-Electron Energy =                 837.7547590923031748
    Total Energy =                       -569.6706201591080116
  Basis Set: (AUG-CC-PVTZ AUX)
    Blend: AUG-CC-PVTZ-RI
    Molecular point group: c1

    Geometry (in Angstrom), charge = 0, multiplicity = 1:

       Center              X                  Y                   Z               Mass
    ------------   -----------------  -----------------  -----------------  -----------------
         O           -0.116287805204    -1.800682635114     0.450826862102    15.994914619570
         O            0.356911194796     1.393594364886    -1.028724137898    15.994914619570
         O           -1.956673805204     1.370936364886     0.465036862102    15.994914619570
         O            2.713297194796     0.450189364886    -0.209713137898    15.994914619570
         O           -1.673148805204    -0.800615635114    -1.002531137898    15.994914619570
         C            0.446053894796     1.016876564886     0.396383462102    12.000000000000
         C           -0.910849805204     0.473885364886     0.836023862102    12.000000000000
         C            1.532992194796    -0.029283635114     0.416356862102    12.000000000000
         C           -1.216660805204    -0.936831635114     0.335671862102    12.000000000000
         C            1.053452194796    -1.317089635114    -0.232697137898    12.000000000000
         H            0.702738194796     1.887063364886     0.956541862102     1.007825032230
         H           -0.847711305204     0.445656964886     1.930256162102     1.007825032230
         H            1.782258194796    -0.232020635114     1.463993862102     1.007825032230
         H           -1.995469805204    -1.397253635114     0.957725862102     1.007825032230
         H            0.842084194796    -1.147925635114    -1.294014137898     1.007825032230
         H            1.804396194796    -2.101777635114    -0.130559137898     1.007825032230
         H           -0.394569805204     2.011726364886    -1.087716137898     1.007825032230
         H           -2.343225805204     0.976307364886    -0.344120137898     1.007825032230
         H            2.398182194796     0.934906364886    -0.996849137898     1.007825032230
         H           -1.997159805204    -1.676649635114    -1.282541137898     1.007825032230

  Basis Set: AUG-CC-PVTZ
    Blend: AUG-CC-PVTZ
  Basis Set: (AUG-CC-PVTZ AUX)
    Blend: AUG-CC-PVTZ-JKFIT
	 Reference Energy          =    -569.6706201591080116 [Eh]
	 Singles Energy            =      -0.0000000000000000 [Eh]
	 Same-Spin Energy          =      -0.5547097795823033 [Eh]
	 Opposite-Spin Energy      =      -1.7047399467222952 [Eh]
	 Correlation Energy        =      -2.2594497263045987 [Eh]
	 Total Energy              =    -571.9300698854126495 [Eh]

	 ================> DF-SCS-MP2 Energies <==================
	-----------------------------------------------------------
	 SCS Same-Spin Scale       =       0.3333333333333333 [-]
	 SCS Opposite-Spin Scale   =       1.2000000000000000 [-]
	 SCS Same-Spin Energy      =      -0.1849032598607677 [Eh]
	 SCS Opposite-Spin Energy  =      -2.0456879360667544 [Eh]
	 SCS Correlation Energy    =      -2.2305911959275222 [Eh]
	 SCS Total Energy          =    -571.9012113550355707 [Eh]
	-----------------------------------------------------------

  Dipole Moment: [D]
     X:    -2.1547      Y:    -1.0241      Z:    -0.1676     Total:     2.3915

*** Psi4 exiting successfully. Buy a developer a beer!
