                               Psi4 1.3.2 release

  ==> Input File <==

--------------------------------------------------------------------------
#psi4
#
memory 32 gb

molecule  {
0 1
  O       -0.1147700    -1.8002930     0.4548730
  O        0.3584290     1.3939840    -1.0246780
  O       -1.9551560     1.3713260     0.4690830
  O        2.7148150     0.4505790    -0.2056670
  O       -1.6716310    -0.8002260    -0.9984850
  C        0.4315910     1.0135520     0.3497470
  C       -0.9120835     0.4671011     0.8302710
  C        1.5345100    -0.0288940     0.4204030
  C       -1.2151430    -0.9364420     0.3397180
  C        1.0549700    -1.3167000    -0.2286510
  H        0.7042560     1.8874530     0.9605880
  H       -0.8818830     0.4322700     1.9353370
  H        1.7837760    -0.2316310     1.4680400
  H       -1.9939520    -1.3968640     0.9617720
  H        0.8436020    -1.1475360    -1.2899680
  H        1.8059140    -2.1013880    -0.1265130
  H       -0.3930520     2.0121160    -1.0836700
  H       -2.3360938     0.9702681    -0.3395755
  H        2.3997000     0.9352960    -0.9928030
  H       -1.9956420    -1.6762600    -1.2784950
units angstrom
no_reorient  #important for SAPT in psi4, default
symmetry c1  #important for SAPT in psi4, default
}

set PROPERTIES_ORIGIN ["COM"]
properties('MP2/aug-cc-pvtz', properties = ['dipole'])
--------------------------------------------------------------------------

    Molecular point group: c1
  Charge       = 0
  Multiplicity = 1
  Basis Set: AUG-CC-PVTZ
    Blend: AUG-CC-PVTZ
  Basis Set: (AUG-CC-PVTZ AUX)
    Blend: AUG-CC-PVTZ-JKFIT

    Orbital Energies [Eh]
    ---------------------

    Doubly Occupied:

       1A    -20.591905     2A    -20.581160     3A    -20.575108
       4A    -20.571024     5A    -20.558301     6A    -11.353941
       7A    -11.298463     8A    -11.291239     9A    -11.285642
      10A    -11.278343    11A     -1.439507    12A     -1.391691
      13A     -1.376254    14A     -1.354350    15A     -1.347843
      16A     -1.059029    17A     -1.024017    18A     -0.899895
      19A     -0.869268    20A     -0.798033    21A     -0.753077
      22A     -0.727771    23A     -0.712709    24A     -0.695442
      25A     -0.669662    26A     -0.645841    27A     -0.621405
      28A     -0.614647    29A     -0.602425    30A     -0.584669
      31A     -0.571604    32A     -0.556935    33A     -0.542416
      34A     -0.515797    35A     -0.503064    36A     -0.491767
      37A     -0.487804    38A     -0.471984    39A     -0.439989
      40A     -0.416859

  @DF-RHF Final Energy:  -569.67403083640863

   => Energetics <=

    Nuclear Repulsion Energy =            634.0319212150444628
    One-Electron Energy =               -2042.2701480640707814
    Two-Electron Energy =                 838.5641960126177992
    Total Energy =                       -569.6740308364086331
  Basis Set: (AUG-CC-PVTZ AUX)
    Blend: AUG-CC-PVTZ-RI
    Molecular point group: c1

    Geometry (in Angstrom), charge = 0, multiplicity = 1:

       Center              X                  Y                   Z               Mass
    ------------   -----------------  -----------------  -----------------  -----------------
         O           -0.114587756951    -1.799676184151     0.455653389095    15.994914619570
         O            0.358611243049     1.394600815849    -1.023897610905    15.994914619570
         O           -1.954973756951     1.371942815849     0.469863389095    15.994914619570
         O            2.714997243049     0.451195815849    -0.204886610905    15.994914619570
         O           -1.671448756951    -0.799609184151    -0.997704610905    15.994914619570
         C            0.431773243049     1.014168815849     0.350527389095    12.000000000000
         C           -0.911901256951     0.467717915849     0.831051389095    12.000000000000
         C            1.534692243049    -0.028277184151     0.421183389095    12.000000000000
         C           -1.214960756951    -0.935825184151     0.340498389095    12.000000000000
         C            1.055152243049    -1.316083184151    -0.227870610905    12.000000000000
         H            0.704438243049     1.888069815849     0.961368389095     1.007825032230
         H           -0.881700756951     0.432886815849     1.936117389095     1.007825032230
         H            1.783958243049    -0.231014184151     1.468820389095     1.007825032230
         H           -1.993769756951    -1.396247184151     0.962552389095     1.007825032230
         H            0.843784243049    -1.146919184151    -1.289187610905     1.007825032230
         H            1.806096243049    -2.100771184151    -0.125732610905     1.007825032230
         H           -0.392869756951     2.012732815849    -1.082889610905     1.007825032230
         H           -2.335911556951     0.970884915849    -0.338795110905     1.007825032230
         H            2.399882243049     0.935912815849    -0.992022610905     1.007825032230
         H           -1.995459756951    -1.675643184151    -1.277714610905     1.007825032230

  Basis Set: AUG-CC-PVTZ
    Blend: AUG-CC-PVTZ
  Basis Set: (AUG-CC-PVTZ AUX)
    Blend: AUG-CC-PVTZ-JKFIT
	 Reference Energy          =    -569.6740308364086331 [Eh]
	 Singles Energy            =      -0.0000000000000000 [Eh]
	 Same-Spin Energy          =      -0.5547566492454450 [Eh]
	 Opposite-Spin Energy      =      -1.7041367294876568 [Eh]
	 Correlation Energy        =      -2.2588933787331018 [Eh]
	 Total Energy              =    -571.9329242151417247 [Eh]

	 ================> DF-SCS-MP2 Energies <==================
	-----------------------------------------------------------
	 SCS Same-Spin Scale       =       0.3333333333333333 [-]
	 SCS Opposite-Spin Scale   =       1.2000000000000000 [-]
	 SCS Same-Spin Energy      =      -0.1849188830818150 [Eh]
	 SCS Opposite-Spin Energy  =      -2.0449640753851881 [Eh]
	 SCS Correlation Energy    =      -2.2298829584670030 [Eh]
	 SCS Total Energy          =    -571.9039137948756206 [Eh]
	-----------------------------------------------------------

  Dipole Moment: [D]
     X:    -2.1747      Y:    -1.0071      Z:    -0.3080     Total:     2.4163

*** Psi4 exiting successfully. Buy a developer a beer!
