                               Psi4 1.3.2 release

  ==> Input File <==

--------------------------------------------------------------------------
#psi4
#
memory 32 gb

molecule  {
0 1
  O       -0.1147700    -1.8002930     0.4548730
  O        0.3584290     1.3939840    -1.0246780
  O       -1.9551560     1.3713260     0.4690830
  O        2.7148150     0.4505790    -0.2056670
  O       -1.6716310    -0.8002260    -0.9984850
  C        0.4315910     1.0135520     0.3497470
  C       -0.9093320     0.4742750     0.8400700
  C        1.5345100    -0.0288940     0.4204030
  C       -1.1972185    -0.8642724     0.3388834
  C        1.0549700    -1.3167000    -0.2286510
  H        0.7042560     1.8874530     0.9605880
  H       -0.8818830     0.4322700     1.9353370
  H        1.7837760    -0.2316310     1.4680400
  H       -1.9939520    -1.3968640     0.9617720
  H        0.8436020    -1.1475360    -1.2899680
  H        1.8059140    -2.1013880    -0.1265130
  H       -0.3930520     2.0121160    -1.0836700
  H       -2.3417080     0.9766970    -0.3400740
  H        2.3997000     0.9352960    -0.9928030
  H       -2.0071799    -1.6559902    -1.3239060
units angstrom
no_reorient  #important for SAPT in psi4, default
symmetry c1  #important for SAPT in psi4, default
}

set PROPERTIES_ORIGIN ["COM"]
properties('MP2/aug-cc-pvtz', properties = ['dipole'])
--------------------------------------------------------------------------

    Molecular point group: c1
  Charge       = 0
  Multiplicity = 1
  Basis Set: AUG-CC-PVTZ
    Blend: AUG-CC-PVTZ
  Basis Set: (AUG-CC-PVTZ AUX)
    Blend: AUG-CC-PVTZ-JKFIT

    Orbital Energies [Eh]
    ---------------------

    Doubly Occupied:

       1A    -20.589166     2A    -20.579210     3A    -20.577638
       4A    -20.572856     5A    -20.558347     6A    -11.356799
       7A    -11.299602     8A    -11.292630     9A    -11.285786
      10A    -11.275472    11A     -1.434351    12A     -1.391853
      13A     -1.376351    14A     -1.349911    15A     -1.348415
      16A     -1.067191    17A     -1.026027    18A     -0.904837
      19A     -0.867207    20A     -0.801590    21A     -0.749602
      22A     -0.730633    23A     -0.709013    24A     -0.698075
      25A     -0.671075    26A     -0.646944    27A     -0.615680
      28A     -0.612981    29A     -0.605670    30A     -0.582463
      31A     -0.565578    32A     -0.560450    33A     -0.543787
      34A     -0.518836    35A     -0.498466    36A     -0.493703
      37A     -0.488188    38A     -0.469096    39A     -0.439357
      40A     -0.419336

  @DF-RHF Final Energy:  -569.66562784767621

   => Energetics <=

    Nuclear Repulsion Energy =            634.7219378750965006
    One-Electron Energy =               -2043.6267901436688135
    Two-Electron Energy =                 839.2392244208961074
    Total Energy =                       -569.6656278476762054
  Basis Set: (AUG-CC-PVTZ AUX)
    Blend: AUG-CC-PVTZ-RI
    Molecular point group: c1

    Geometry (in Angstrom), charge = 0, multiplicity = 1:

       Center              X                  Y                   Z               Mass
    ------------   -----------------  -----------------  -----------------  -----------------
         O           -0.116126053126    -1.806200750606     0.455244839257    15.994914619570
         O            0.357072946874     1.388076249394    -1.024306160743    15.994914619570
         O           -1.956512053126     1.365418249394     0.469454839257    15.994914619570
         O            2.713458946874     0.444671249394    -0.205295160743    15.994914619570
         O           -1.672987053126    -0.806133750606    -0.998113160743    15.994914619570
         C            0.430234946874     1.007644249394     0.350118839257    12.000000000000
         C           -0.910688053126     0.468367249394     0.840441839257    12.000000000000
         C            1.533153946874    -0.034801750606     0.420774839257    12.000000000000
         C           -1.198574553126    -0.870180150606     0.339255239257    12.000000000000
         C            1.053613946874    -1.322607750606    -0.228279160743    12.000000000000
         H            0.702899946874     1.881545249394     0.960959839257     1.007825032230
         H           -0.883239053126     0.426362249394     1.935708839257     1.007825032230
         H            1.782419946874    -0.237538750606     1.468411839257     1.007825032230
         H           -1.995308053126    -1.402771750606     0.962143839257     1.007825032230
         H            0.842245946874    -1.153443750606    -1.289596160743     1.007825032230
         H            1.804557946874    -2.107295750606    -0.126141160743     1.007825032230
         H           -0.394408053126     2.006208249394    -1.083298160743     1.007825032230
         H           -2.343064053126     0.970789249394    -0.339702160743     1.007825032230
         H            2.398343946874     0.929388249394    -0.992431160743     1.007825032230
         H           -2.008535953126    -1.661897950606    -1.323534160743     1.007825032230

  Basis Set: AUG-CC-PVTZ
    Blend: AUG-CC-PVTZ
  Basis Set: (AUG-CC-PVTZ AUX)
    Blend: AUG-CC-PVTZ-JKFIT
	 Reference Energy          =    -569.6656278476762054 [Eh]
	 Singles Energy            =      -0.0000000000000000 [Eh]
	 Same-Spin Energy          =      -0.5553669901832473 [Eh]
	 Opposite-Spin Energy      =      -1.7052351378006478 [Eh]
	 Correlation Energy        =      -2.2606021279838950 [Eh]
	 Total Energy              =    -571.9262299756601351 [Eh]

	 ================> DF-SCS-MP2 Energies <==================
	-----------------------------------------------------------
	 SCS Same-Spin Scale       =       0.3333333333333333 [-]
	 SCS Opposite-Spin Scale   =       1.2000000000000000 [-]
	 SCS Same-Spin Energy      =      -0.1851223300610824 [Eh]
	 SCS Opposite-Spin Energy  =      -2.0462821653607772 [Eh]
	 SCS Correlation Energy    =      -2.2314044954218595 [Eh]
	 SCS Total Energy          =    -571.8970323430980898 [Eh]
	-----------------------------------------------------------

  Dipole Moment: [D]
     X:    -2.2081      Y:    -0.7904      Z:    -0.3496     Total:     2.3712

*** Psi4 exiting successfully. Buy a developer a beer!
