                               Psi4 1.3.2 release

  ==> Input File <==

--------------------------------------------------------------------------
#psi4
#
memory 32 gb

molecule  {
0 1
  O       -0.1147700    -1.8002930     0.4548730
  O        0.3584290     1.3939840    -1.0246780
  O       -1.9551560     1.3713260     0.4690830
  O        2.7148150     0.4505790    -0.2056670
  O       -1.6716310    -0.8002260    -0.9984850
  C        0.4119995     1.0281693     0.3546099
  C       -0.9093320     0.4742750     0.8400700
  C        1.5345100    -0.0288940     0.4204030
  C       -1.2151430    -0.9364420     0.3397180
  C        1.0549700    -1.3167000    -0.2286510
  H        0.7042560     1.8874530     0.9605880
  H       -0.8818830     0.4322700     1.9353370
  H        1.7837760    -0.2316310     1.4680400
  H       -1.9939520    -1.3968640     0.9617720
  H        0.8436020    -1.1475360    -1.2899680
  H        1.8059140    -2.1013880    -0.1265130
  H       -0.3956620     2.0103040    -1.0669556
  H       -2.3417080     0.9766970    -0.3400740
  H        2.3997000     0.9352960    -0.9928030
  H       -1.9956420    -1.6762600    -1.2784950
units angstrom
no_reorient  #important for SAPT in psi4, default
symmetry c1  #important for SAPT in psi4, default
}

set PROPERTIES_ORIGIN ["COM"]
properties('MP2/aug-cc-pvtz', properties = ['dipole'])
--------------------------------------------------------------------------

    Molecular point group: c1
  Charge       = 0
  Multiplicity = 1
  Basis Set: AUG-CC-PVTZ
    Blend: AUG-CC-PVTZ
  Basis Set: (AUG-CC-PVTZ AUX)
    Blend: AUG-CC-PVTZ-JKFIT

    Orbital Energies [Eh]
    ---------------------

    Doubly Occupied:

       1A    -20.591796     2A    -20.580710     3A    -20.574447
       4A    -20.572106     5A    -20.558221     6A    -11.354447
       7A    -11.298080     8A    -11.290424     9A    -11.286132
      10A    -11.277925    11A     -1.438898    12A     -1.392262
      13A     -1.375570    14A     -1.354063    15A     -1.348112
      16A     -1.057805    17A     -1.022723    18A     -0.898764
      19A     -0.869610    20A     -0.797435    21A     -0.752270
      22A     -0.728672    23A     -0.712395    24A     -0.695975
      25A     -0.669119    26A     -0.646463    27A     -0.621496
      28A     -0.613286    29A     -0.603793    30A     -0.584448
      31A     -0.571470    32A     -0.556114    33A     -0.545095
      34A     -0.515058    35A     -0.502993    36A     -0.491487
      37A     -0.487461    38A     -0.469609    39A     -0.441214
      40A     -0.416363

  @DF-RHF Final Energy:  -569.67360683978052

   => Energetics <=

    Nuclear Repulsion Energy =            633.7110388388346109
    One-Electron Energy =               -2041.6406728098131680
    Two-Electron Energy =                 838.2560271311980387
    Total Energy =                       -569.6736068397805184
  Basis Set: (AUG-CC-PVTZ AUX)
    Blend: AUG-CC-PVTZ-RI
    Molecular point group: c1

    Geometry (in Angstrom), charge = 0, multiplicity = 1:

       Center              X                  Y                   Z               Mass
    ------------   -----------------  -----------------  -----------------  -----------------
         O           -0.113185793630    -1.801449875717     0.454371936433    15.994914619570
         O            0.360013206370     1.392827124283    -1.025179063567    15.994914619570
         O           -1.953571793630     1.370169124283     0.468581936433    15.994914619570
         O            2.716399206370     0.449422124283    -0.206168063567    15.994914619570
         O           -1.670046793630    -0.801382875717    -0.998986063567    15.994914619570
         C            0.413583706370     1.027012424283     0.354108836433    12.000000000000
         C           -0.907747793630     0.473118124283     0.839568936433    12.000000000000
         C            1.536094206370    -0.030050875717     0.419901936433    12.000000000000
         C           -1.213558793630    -0.937598875717     0.339216936433    12.000000000000
         C            1.056554206370    -1.317856875717    -0.229152063567    12.000000000000
         H            0.705840206370     1.886296124283     0.960086936433     1.007825032230
         H           -0.880298793630     0.431113124283     1.934835936433     1.007825032230
         H            1.785360206370    -0.232787875717     1.467538936433     1.007825032230
         H           -1.992367793630    -1.398020875717     0.961270936433     1.007825032230
         H            0.845186206370    -1.148692875717    -1.290469063567     1.007825032230
         H            1.807498206370    -2.102544875717    -0.127014063567     1.007825032230
         H           -0.394077793630     2.009147124283    -1.067456663567     1.007825032230
         H           -2.340123793630     0.975540124283    -0.340575063567     1.007825032230
         H            2.401284206370     0.934139124283    -0.993304063567     1.007825032230
         H           -1.994057793630    -1.677416875717    -1.278996063567     1.007825032230

  Basis Set: AUG-CC-PVTZ
    Blend: AUG-CC-PVTZ
  Basis Set: (AUG-CC-PVTZ AUX)
    Blend: AUG-CC-PVTZ-JKFIT
	 Reference Energy          =    -569.6736068397805184 [Eh]
	 Singles Energy            =      -0.0000000000000000 [Eh]
	 Same-Spin Energy          =      -0.5546871419579593 [Eh]
	 Opposite-Spin Energy      =      -1.7041255453918325 [Eh]
	 Correlation Energy        =      -2.2588126873497920 [Eh]
	 Total Energy              =    -571.9324195271302642 [Eh]

	 ================> DF-SCS-MP2 Energies <==================
	-----------------------------------------------------------
	 SCS Same-Spin Scale       =       0.3333333333333333 [-]
	 SCS Opposite-Spin Scale   =       1.2000000000000000 [-]
	 SCS Same-Spin Energy      =      -0.1848957139859864 [Eh]
	 SCS Opposite-Spin Energy  =      -2.0449506544701990 [Eh]
	 SCS Correlation Energy    =      -2.2298463684561853 [Eh]
	 SCS Total Energy          =    -571.9034532082366695 [Eh]
	-----------------------------------------------------------

  Dipole Moment: [D]
     X:    -2.1905      Y:    -0.9899      Z:    -0.2785     Total:     2.4199

*** Psi4 exiting successfully. Buy a developer a beer!
