                               Psi4 1.3.2 release

  ==> Input File <==

--------------------------------------------------------------------------
#psi4
#
memory 32 gb

molecule  {
0 1
  O       -0.1147700    -1.8002930     0.4548730
  O        0.3584290     1.3939840    -1.0246780
  O       -1.9551560     1.3713260     0.4690830
  O        2.7148150     0.4505790    -0.2056670
  O       -1.6716310    -0.8002260    -0.9984850
  C        0.4315910     1.0135520     0.3497470
  C       -0.9093320     0.4742750     0.8400700
  C        1.5345100    -0.0288940     0.4204030
  C       -1.2014989    -0.9212076     0.3262299
  C        1.0420907    -1.2963906    -0.2358618
  H        0.7042560     1.8874530     0.9605880
  H       -0.8818830     0.4322700     1.9353370
  H        1.7837760    -0.2316310     1.4680400
  H       -1.9939520    -1.3968640     0.9617720
  H        0.8436020    -1.1475360    -1.2899680
  H        1.8059140    -2.1013880    -0.1265130
  H       -0.3930520     2.0121160    -1.0836700
  H       -2.3417080     0.9766970    -0.3400740
  H        2.3997000     0.9352960    -0.9928030
  H       -1.9956420    -1.6762600    -1.2784950
units angstrom
no_reorient  #important for SAPT in psi4, default
symmetry c1  #important for SAPT in psi4, default
}

set PROPERTIES_ORIGIN ["COM"]
properties('MP2/aug-cc-pvtz', properties = ['dipole'])
--------------------------------------------------------------------------

    Molecular point group: c1
  Charge       = 0
  Multiplicity = 1
  Basis Set: AUG-CC-PVTZ
    Blend: AUG-CC-PVTZ
  Basis Set: (AUG-CC-PVTZ AUX)
    Blend: AUG-CC-PVTZ-JKFIT

    Orbital Energies [Eh]
    ---------------------

    Doubly Occupied:

       1A    -20.592649     2A    -20.582435     3A    -20.575346
       4A    -20.571835     5A    -20.558828     6A    -11.354150
       7A    -11.298551     8A    -11.290720     9A    -11.285761
      10A    -11.278144    11A     -1.441805    12A     -1.392387
      13A     -1.377090    14A     -1.356213    15A     -1.348388
      16A     -1.061592    17A     -1.023295    18A     -0.899662
      19A     -0.868855    20A     -0.800731    21A     -0.752186
      22A     -0.728325    23A     -0.712199    24A     -0.697013
      25A     -0.670663    26A     -0.648607    27A     -0.622003
      28A     -0.615011    29A     -0.603266    30A     -0.583553
      31A     -0.571235    32A     -0.554595    33A     -0.543680
      34A     -0.517153    35A     -0.498224    36A     -0.492593
      37A     -0.490118    38A     -0.472784    39A     -0.439482
      40A     -0.417804

  @DF-RHF Final Energy:  -569.67225472289704

   => Energetics <=

    Nuclear Repulsion Energy =            634.7240104145610076
    One-Electron Energy =               -2043.6146753654204531
    Two-Electron Energy =                 839.2184102279624085
    Total Energy =                       -569.6722547228970370
  Basis Set: (AUG-CC-PVTZ AUX)
    Blend: AUG-CC-PVTZ-RI
    Molecular point group: c1

    Geometry (in Angstrom), charge = 0, multiplicity = 1:

       Center              X                  Y                   Z               Mass
    ------------   -----------------  -----------------  -----------------  -----------------
         O           -0.114831254327    -1.803135576614     0.456528422285    15.994914619570
         O            0.358367745673     1.391141423386    -1.023022577715    15.994914619570
         O           -1.955217254327     1.368483423386     0.470738422285    15.994914619570
         O            2.714753745673     0.447736423386    -0.204011577715    15.994914619570
         O           -1.671692254327    -0.803068576614    -0.996829577715    15.994914619570
         C            0.431529745673     1.010709423386     0.351402422285    12.000000000000
         C           -0.909393254327     0.471432423386     0.841725422285    12.000000000000
         C            1.534448745673    -0.031736576614     0.422058422285    12.000000000000
         C           -1.201560154327    -0.924050176614     0.327885322285    12.000000000000
         C            1.042029445673    -1.299233176614    -0.234206377715    12.000000000000
         H            0.704194745673     1.884610423386     0.962243422285     1.007825032230
         H           -0.881944254327     0.429427423386     1.936992422285     1.007825032230
         H            1.783714745673    -0.234473576614     1.469695422285     1.007825032230
         H           -1.994013254327    -1.399706576614     0.963427422285     1.007825032230
         H            0.843540745673    -1.150378576614    -1.288312577715     1.007825032230
         H            1.805852745673    -2.104230576614    -0.124857577715     1.007825032230
         H           -0.393113254327     2.009273423386    -1.082014577715     1.007825032230
         H           -2.341769254327     0.973854423386    -0.338418577715     1.007825032230
         H            2.399638745673     0.932453423386    -0.991147577715     1.007825032230
         H           -1.995703254327    -1.679102576614    -1.276839577715     1.007825032230

  Basis Set: AUG-CC-PVTZ
    Blend: AUG-CC-PVTZ
  Basis Set: (AUG-CC-PVTZ AUX)
    Blend: AUG-CC-PVTZ-JKFIT
	 Reference Energy          =    -569.6722547228970370 [Eh]
	 Singles Energy            =      -0.0000000000000000 [Eh]
	 Same-Spin Energy          =      -0.5549930794557394 [Eh]
	 Opposite-Spin Energy      =      -1.7043590007488025 [Eh]
	 Correlation Energy        =      -2.2593520802045419 [Eh]
	 Total Energy              =    -571.9316068031015448 [Eh]

	 ================> DF-SCS-MP2 Energies <==================
	-----------------------------------------------------------
	 SCS Same-Spin Scale       =       0.3333333333333333 [-]
	 SCS Opposite-Spin Scale   =       1.2000000000000000 [-]
	 SCS Same-Spin Energy      =      -0.1849976931519131 [Eh]
	 SCS Opposite-Spin Energy  =      -2.0452308008985631 [Eh]
	 SCS Correlation Energy    =      -2.2302284940504764 [Eh]
	 SCS Total Energy          =    -571.9024832169475303 [Eh]
	-----------------------------------------------------------

  Dipole Moment: [D]
     X:    -2.1774      Y:    -0.9427      Z:    -0.3507     Total:     2.3985

*** Psi4 exiting successfully. Buy a developer a beer!
