                               Psi4 1.4a3.dev225

  ==> Input File <==

--------------------------------------------------------------------------
#psi4
#
memory 32 gb

molecule  {
0 1
  O       -0.2343850     1.7978400    -0.4145210
  O        0.4791390    -1.3900560     0.9851260
  O       -1.8902550    -1.4798720    -0.4079610
  O        2.7489250    -0.2990660     0.0843650
  O       -1.6766260     0.6849030     1.0797040
  C        0.4758930    -0.9871420    -0.3839460
  C       -0.9153110    -0.5160320    -0.8112700
  C        1.5148540     0.1205520    -0.4811210
  C       -1.2794180     0.8705190    -0.2725550
  C        0.9914930     1.3693070     0.2124490
  H        0.7732420    -1.8350180    -1.0199460
  H       -0.9367810    -0.4539690    -1.9062570
  H        1.7061480     0.3550680    -1.5342930
  H       -2.1075740     1.2945610    -0.8542440
  H        0.8333730     1.1741050     1.2776920
  H        1.6908660     2.1982840     0.0933200
  H       -0.2684360    -2.0097880     1.0741120
  H       -2.2907410    -1.1048270     0.4011470
  H        2.4951047    -0.8152633     0.8983029
  H       -2.0397460     1.5332780     1.3914430
units angstrom
no_reorient  #important for SAPT in psi4, default
symmetry c1  #important for SAPT in psi4, default
}

set PROPERTIES_ORIGIN ["COM"]
properties('MP2/aug-cc-pvtz', properties = ['dipole'])
--------------------------------------------------------------------------

    Molecular point group: c1
  Charge       = 0
  Multiplicity = 1
  Basis Set: AUG-CC-PVTZ
    Blend: AUG-CC-PVTZ
  Basis Set: (AUG-CC-PVTZ AUX)
    Blend: AUG-CC-PVTZ-JKFIT

    Orbital Energies [Eh]
    ---------------------

    Doubly Occupied:

       1A    -20.592019     2A    -20.581095     3A    -20.575225
       4A    -20.570290     5A    -20.559880     6A    -11.354841
       7A    -11.299633     8A    -11.291147     9A    -11.285986
      10A    -11.278688    11A     -1.438040    12A     -1.390529
      13A     -1.374443    14A     -1.353614    15A     -1.344947
      16A     -1.057436    17A     -1.022285    18A     -0.898458
      19A     -0.869452    20A     -0.797135    21A     -0.752167
      22A     -0.726547    23A     -0.712173    24A     -0.695590
      25A     -0.666852    26A     -0.645905    27A     -0.620496
      28A     -0.614357    29A     -0.601391    30A     -0.584213
      31A     -0.572249    32A     -0.556137    33A     -0.542677
      34A     -0.515326    35A     -0.502885    36A     -0.490536
      37A     -0.487128    38A     -0.470810    39A     -0.440892
      40A     -0.415764

  @DF-RHF Final Energy:  -569.67288403383668

   => Energetics <=

    Nuclear Repulsion Energy =            633.0460127864105289
    One-Electron Energy =               -2040.3393166014313920
    Two-Electron Energy =                 837.6204197811841823
    Total Energy =                       -569.6728840338366808
  Basis Set: (AUG-CC-PVTZ AUX)
    Blend: AUG-CC-PVTZ-RI
    Molecular point group: c1

    Geometry (in Angstrom), charge = 0, multiplicity = 1:

       Center              X                  Y                   Z               Mass
    ------------   -----------------  -----------------  -----------------  -----------------
         O           -0.235292277739     1.800179275353    -0.415875346696    15.994914619570
         O            0.478231722261    -1.387716724647     0.983771653304    15.994914619570
         O           -1.891162277739    -1.477532724647    -0.409315346696    15.994914619570
         O            2.748017722261    -0.296726724647     0.083010653304    15.994914619570
         O           -1.677533277739     0.687242275353     1.078349653304    15.994914619570
         C            0.474985722261    -0.984802724647    -0.385300346696    12.000000000000
         C           -0.916218277739    -0.513692724647    -0.812624346696    12.000000000000
         C            1.513946722261     0.122891275353    -0.482475346696    12.000000000000
         C           -1.280325277739     0.872858275353    -0.273909346696    12.000000000000
         C            0.990585722261     1.371646275353     0.211094653304    12.000000000000
         H            0.772334722261    -1.832678724647    -1.021300346696     1.007825032230
         H           -0.937688277739    -0.451629724647    -1.907611346696     1.007825032230
         H            1.705240722261     0.357407275353    -1.535647346696     1.007825032230
         H           -2.108481277739     1.296900275353    -0.855598346696     1.007825032230
         H            0.832465722261     1.176444275353     1.276337653304     1.007825032230
         H            1.689958722261     2.200623275353     0.091965653304     1.007825032230
         H           -0.269343277739    -2.007448724647     1.072757653304     1.007825032230
         H           -2.291648277739    -1.102487724647     0.399792653304     1.007825032230
         H            2.494197422261    -0.812924024647     0.896948553304     1.007825032230
         H           -2.040653277739     1.535617275353     1.390088653304     1.007825032230

  Basis Set: AUG-CC-PVTZ
    Blend: AUG-CC-PVTZ
  Basis Set: (AUG-CC-PVTZ AUX)
    Blend: AUG-CC-PVTZ-JKFIT
	 Reference Energy          =    -569.6728840338366808 [Eh]
	 Singles Energy            =      -0.0000000000000000 [Eh]
	 Same-Spin Energy          =      -0.5547922239246723 [Eh]
	 Opposite-Spin Energy      =      -1.7046054736508973 [Eh]
	 Correlation Energy        =      -2.2593976975755696 [Eh]
	 Total Energy              =    -571.9322817314122176 [Eh]

	 ================> DF-SCS-MP2 Energies <==================
	-----------------------------------------------------------
	 SCS Same-Spin Scale       =       0.3333333333333333 [-]
	 SCS Opposite-Spin Scale   =       1.2000000000000000 [-]
	 SCS Same-Spin Energy      =      -0.1849307413082241 [Eh]
	 SCS Opposite-Spin Energy  =      -2.0455265683810766 [Eh]
	 SCS Correlation Energy    =      -2.2304573096893008 [Eh]
	 SCS Total Energy          =    -571.9033413435259945 [Eh]
	-----------------------------------------------------------

  Dipole Moment: [D]
     X:    -2.2987      Y:     0.9513      Z:     0.4146     Total:     2.5221

*** Psi4 exiting successfully. Buy a developer a beer!
