                               Psi4 1.4a3.dev225

  ==> Input File <==

--------------------------------------------------------------------------
#psi4
#
memory 32 gb

molecule  {
0 1
  O       -0.2343850     1.7978400    -0.4145210
  O        0.4791390    -1.3900560     0.9851260
  O       -1.8902550    -1.4798720    -0.4079610
  O        2.7489250    -0.2990660     0.0843650
  O       -1.6766260     0.6849030     1.0797040
  C        0.4758930    -0.9871420    -0.3839460
  C       -0.9153110    -0.5160320    -0.8112700
  C        1.5148540     0.1205520    -0.4811210
  C       -1.2794180     0.8705190    -0.2725550
  C        0.9846125     1.3857240     0.2215672
  H        0.7732420    -1.8350180    -1.0199460
  H       -0.9367810    -0.4539690    -1.9062570
  H        1.7061480     0.3550680    -1.5342930
  H       -2.1075740     1.2945610    -0.8542440
  H        0.8333730     1.1741050     1.2776920
  H        1.6908660     2.1982840     0.0933200
  H       -0.2684360    -2.0097880     1.0741120
  H       -2.2907410    -1.1048270     0.4011470
  H        2.5001980    -0.8049050     0.8819700
  H       -2.0397460     1.5332780     1.3914430
units angstrom
no_reorient  #important for SAPT in psi4, default
symmetry c1  #important for SAPT in psi4, default
}

set PROPERTIES_ORIGIN ["COM"]
properties('MP2/aug-cc-pvtz', properties = ['dipole'])
--------------------------------------------------------------------------

    Molecular point group: c1
  Charge       = 0
  Multiplicity = 1
  Basis Set: AUG-CC-PVTZ
    Blend: AUG-CC-PVTZ
  Basis Set: (AUG-CC-PVTZ AUX)
    Blend: AUG-CC-PVTZ-JKFIT

    Orbital Energies [Eh]
    ---------------------

    Doubly Occupied:

       1A    -20.592391     2A    -20.581407     3A    -20.575241
       4A    -20.569867     5A    -20.558117     6A    -11.355359
       7A    -11.299617     8A    -11.290949     9A    -11.286451
      10A    -11.278350    11A     -1.438900    12A     -1.390841
      13A     -1.375537    14A     -1.354626    15A     -1.346958
      16A     -1.056473    17A     -1.021668    18A     -0.898062
      19A     -0.870398    20A     -0.797758    21A     -0.752817
      22A     -0.726744    23A     -0.713132    24A     -0.695986
      25A     -0.667653    26A     -0.646521    27A     -0.621128
      28A     -0.614535    29A     -0.601834    30A     -0.584923
      31A     -0.572500    32A     -0.556648    33A     -0.542774
      34A     -0.515966    35A     -0.503854    36A     -0.491232
      37A     -0.487605    38A     -0.471944    39A     -0.440653
      40A     -0.412803

  @DF-RHF Final Energy:  -569.67450659223528

   => Energetics <=

    Nuclear Repulsion Energy =            632.9061276007500965
    One-Electron Energy =               -2040.0408249956310556
    Two-Electron Energy =                 837.4601908026456840
    Total Energy =                       -569.6745065922352751
  Basis Set: (AUG-CC-PVTZ AUX)
    Blend: AUG-CC-PVTZ-RI
    Molecular point group: c1

    Geometry (in Angstrom), charge = 0, multiplicity = 1:

       Center              X                  Y                   Z               Mass
    ------------   -----------------  -----------------  -----------------  -----------------
         O           -0.234776240500     1.798796806505    -0.416494846499    15.994914619570
         O            0.478747759500    -1.389099193495     0.983152153501    15.994914619570
         O           -1.890646240500    -1.478915193495    -0.409934846499    15.994914619570
         O            2.748533759500    -0.298109193495     0.082391153501    15.994914619570
         O           -1.677017240500     0.685859806505     1.077730153501    15.994914619570
         C            0.475501759500    -0.986185193495    -0.385919846499    12.000000000000
         C           -0.915702240500    -0.515075193495    -0.813243846499    12.000000000000
         C            1.514462759500     0.121508806505    -0.483094846499    12.000000000000
         C           -1.279809240500     0.871475806505    -0.274528846499    12.000000000000
         C            0.984221259500     1.386680806505     0.219593353501    12.000000000000
         H            0.772850759500    -1.834061193495    -1.021919846499     1.007825032230
         H           -0.937172240500    -0.453012193495    -1.908230846499     1.007825032230
         H            1.705756759500     0.356024806505    -1.536266846499     1.007825032230
         H           -2.107965240500     1.295517806505    -0.856217846499     1.007825032230
         H            0.832981759500     1.175061806505     1.275718153501     1.007825032230
         H            1.690474759500     2.199240806505     0.091346153501     1.007825032230
         H           -0.268827240500    -2.008831193495     1.072138153501     1.007825032230
         H           -2.291132240500    -1.103870193495     0.399173153501     1.007825032230
         H            2.499806759500    -0.803948193495     0.879996153501     1.007825032230
         H           -2.040137240500     1.534234806505     1.389469153501     1.007825032230

  Basis Set: AUG-CC-PVTZ
    Blend: AUG-CC-PVTZ
  Basis Set: (AUG-CC-PVTZ AUX)
    Blend: AUG-CC-PVTZ-JKFIT
	 Reference Energy          =    -569.6745065922352751 [Eh]
	 Singles Energy            =      -0.0000000000000000 [Eh]
	 Same-Spin Energy          =      -0.5543722511784503 [Eh]
	 Opposite-Spin Energy      =      -1.7037481339624543 [Eh]
	 Correlation Energy        =      -2.2581203851409049 [Eh]
	 Total Energy              =    -571.9326269773762306 [Eh]

	 ================> DF-SCS-MP2 Energies <==================
	-----------------------------------------------------------
	 SCS Same-Spin Scale       =       0.3333333333333333 [-]
	 SCS Opposite-Spin Scale   =       1.2000000000000000 [-]
	 SCS Same-Spin Energy      =      -0.1847907503928168 [Eh]
	 SCS Opposite-Spin Energy  =      -2.0444977607549450 [Eh]
	 SCS Correlation Energy    =      -2.2292885111477618 [Eh]
	 SCS Total Energy          =    -571.9037951033830041 [Eh]
	-----------------------------------------------------------

  Dipole Moment: [D]
     X:    -2.3133      Y:     0.9854      Z:     0.4034     Total:     2.5466

*** Psi4 exiting successfully. Buy a developer a beer!
