                               Psi4 1.3.2 release

  ==> Input File <==

--------------------------------------------------------------------------
#psi4
#
memory 32 gb

molecule  {
0 1
  O       -0.1147700    -1.8002930     0.4548730
  O        0.3584290     1.3939840    -1.0246780
  O       -1.9551560     1.3713260     0.4690830
  O        2.7148150     0.4505790    -0.2056670
  O       -1.6716310    -0.8002260    -0.9984850
  C        0.4315910     1.0135520     0.3497470
  C       -0.9093320     0.4742750     0.8400700
  C        1.5345100    -0.0288940     0.4204030
  C       -1.2151430    -0.9364420     0.3397180
  C        1.0661723    -1.3535129    -0.1590092
  H        0.7042560     1.8874530     0.9605880
  H       -0.8818830     0.4322700     1.9353370
  H        1.7687685    -0.2863330     1.4594541
  H       -1.9939520    -1.3968640     0.9617720
  H        0.8436020    -1.1475360    -1.2899680
  H        1.8059140    -2.1013880    -0.1265130
  H       -0.3930520     2.0121160    -1.0836700
  H       -2.3417080     0.9766970    -0.3400740
  H        2.3997000     0.9352960    -0.9928030
  H       -1.9956420    -1.6762600    -1.2784950
units angstrom
no_reorient  #important for SAPT in psi4, default
symmetry c1  #important for SAPT in psi4, default
}

set PROPERTIES_ORIGIN ["COM"]
properties('MP2/aug-cc-pvtz', properties = ['dipole'])
--------------------------------------------------------------------------

    Molecular point group: c1
  Charge       = 0
  Multiplicity = 1
  Basis Set: AUG-CC-PVTZ
    Blend: AUG-CC-PVTZ
  Basis Set: (AUG-CC-PVTZ AUX)
    Blend: AUG-CC-PVTZ-JKFIT

    Orbital Energies [Eh]
    ---------------------

    Doubly Occupied:

       1A    -20.592223     2A    -20.582736     3A    -20.575365
       4A    -20.570967     5A    -20.559162     6A    -11.356820
       7A    -11.299434     8A    -11.292284     9A    -11.285126
      10A    -11.278832    11A     -1.443257    12A     -1.392283
      13A     -1.378299    14A     -1.357496    15A     -1.347600
      16A     -1.059349    17A     -1.026361    18A     -0.898295
      19A     -0.873315    20A     -0.796653    21A     -0.751771
      22A     -0.729938    23A     -0.714753    24A     -0.697425
      25A     -0.670561    26A     -0.644655    27A     -0.625566
      28A     -0.615881    29A     -0.606262    30A     -0.588503
      31A     -0.566303    32A     -0.560468    33A     -0.543627
      34A     -0.517637    35A     -0.505844    36A     -0.491172
      37A     -0.486713    38A     -0.459074    39A     -0.441608
      40A     -0.411572

  @DF-RHF Final Energy:  -569.66780858911716

   => Energetics <=

    Nuclear Repulsion Energy =            633.7222949446812663
    One-Electron Energy =               -2041.5898255917181814
    Two-Electron Energy =                 838.1997220579196437
    Total Energy =                       -569.6678085891171577
  Basis Set: (AUG-CC-PVTZ AUX)
    Blend: AUG-CC-PVTZ-RI
    Molecular point group: c1

    Geometry (in Angstrom), charge = 0, multiplicity = 1:

       Center              X                  Y                   Z               Mass
    ------------   -----------------  -----------------  -----------------  -----------------
         O           -0.115565162982    -1.796981674116     0.449361377437    15.994914619570
         O            0.357633837018     1.397295325884    -1.030189622563    15.994914619570
         O           -1.955951162982     1.374637325884     0.463571377437    15.994914619570
         O            2.714019837018     0.453890325884    -0.211178622563    15.994914619570
         O           -1.672426162982    -0.796914674116    -1.003996622563    15.994914619570
         C            0.430795837018     1.016863325884     0.344235377437    12.000000000000
         C           -0.910127162982     0.477586325884     0.834558377437    12.000000000000
         C            1.533714837018    -0.025582674116     0.414891377437    12.000000000000
         C           -1.215938162982    -0.933130674116     0.334206377437    12.000000000000
         C            1.065377137018    -1.350201574116    -0.164520822563    12.000000000000
         H            0.703460837018     1.890764325884     0.955076377437     1.007825032230
         H           -0.882678162982     0.435581325884     1.929825377437     1.007825032230
         H            1.767973337018    -0.283021674116     1.453942477437     1.007825032230
         H           -1.994747162982    -1.393552674116     0.956260377437     1.007825032230
         H            0.842806837018    -1.144224674116    -1.295479622563     1.007825032230
         H            1.805118837018    -2.098076674116    -0.132024622563     1.007825032230
         H           -0.393847162982     2.015427325884    -1.089181622563     1.007825032230
         H           -2.342503162982     0.980008325884    -0.345585622563     1.007825032230
         H            2.398904837018     0.938607325884    -0.998314622563     1.007825032230
         H           -1.996437162982    -1.672948674116    -1.284006622563     1.007825032230

  Basis Set: AUG-CC-PVTZ
    Blend: AUG-CC-PVTZ
  Basis Set: (AUG-CC-PVTZ AUX)
    Blend: AUG-CC-PVTZ-JKFIT
	 Reference Energy          =    -569.6678085891171577 [Eh]
	 Singles Energy            =      -0.0000000000000000 [Eh]
	 Same-Spin Energy          =      -0.5546435827227962 [Eh]
	 Opposite-Spin Energy      =      -1.7035487503499114 [Eh]
	 Correlation Energy        =      -2.2581923330727074 [Eh]
	 Total Energy              =    -571.9260009221898144 [Eh]

	 ================> DF-SCS-MP2 Energies <==================
	-----------------------------------------------------------
	 SCS Same-Spin Scale       =       0.3333333333333333 [-]
	 SCS Opposite-Spin Scale   =       1.2000000000000000 [-]
	 SCS Same-Spin Energy      =      -0.1848811942409321 [Eh]
	 SCS Opposite-Spin Energy  =      -2.0442585004198937 [Eh]
	 SCS Correlation Energy    =      -2.2291396946608257 [Eh]
	 SCS Total Energy          =    -571.8969482837779879 [Eh]
	-----------------------------------------------------------

  Dipole Moment: [D]
     X:    -2.2507      Y:    -1.0408      Z:    -0.1881     Total:     2.4868

*** Psi4 exiting successfully. Buy a developer a beer!
