                               Psi4 1.3.2 release

  ==> Input File <==

--------------------------------------------------------------------------
#psi4
#
memory 32 gb

molecule  {
0 1
  O       -0.1147700    -1.8002930     0.4548730
  O        0.3584290     1.3939840    -1.0246780
  O       -1.9551560     1.3713260     0.4690830
  O        2.7148150     0.4505790    -0.2056670
  O       -1.6716310    -0.8002260    -0.9984850
  C        0.4045634     1.0067504     0.2748623
  C       -0.9093320     0.4742750     0.8400700
  C        1.5345100    -0.0288940     0.4204030
  C       -1.2151430    -0.9364420     0.3397180
  C        1.0549700    -1.3167000    -0.2286510
  H        0.7042560     1.8874530     0.9605880
  H       -0.9354664     0.4117063     1.9343871
  H        1.7837760    -0.2316310     1.4680400
  H       -1.9939520    -1.3968640     0.9617720
  H        0.8436020    -1.1475360    -1.2899680
  H        1.8059140    -2.1013880    -0.1265130
  H       -0.3930520     2.0121160    -1.0836700
  H       -2.3417080     0.9766970    -0.3400740
  H        2.3997000     0.9352960    -0.9928030
  H       -1.9956420    -1.6762600    -1.2784950
units angstrom
no_reorient  #important for SAPT in psi4, default
symmetry c1  #important for SAPT in psi4, default
}

set PROPERTIES_ORIGIN ["COM"]
properties('MP2/aug-cc-pvtz', properties = ['dipole'])
--------------------------------------------------------------------------

    Molecular point group: c1
  Charge       = 0
  Multiplicity = 1
  Basis Set: AUG-CC-PVTZ
    Blend: AUG-CC-PVTZ
  Basis Set: (AUG-CC-PVTZ AUX)
    Blend: AUG-CC-PVTZ-JKFIT

    Orbital Energies [Eh]
    ---------------------

    Doubly Occupied:

       1A    -20.591723     2A    -20.580430     3A    -20.580308
       4A    -20.573426     5A    -20.557950     6A    -11.351925
       7A    -11.296540     8A    -11.293433     9A    -11.284757
      10A    -11.276714    11A     -1.440531    12A     -1.413048
      13A     -1.376292    14A     -1.356084    15A     -1.353199
      16A     -1.053753    17A     -1.022432    18A     -0.894385
      19A     -0.867359    20A     -0.804745    21A     -0.756370
      22A     -0.727504    23A     -0.713800    24A     -0.698790
      25A     -0.678828    26A     -0.645718    27A     -0.622235
      28A     -0.619680    29A     -0.602651    30A     -0.584431
      31A     -0.570751    32A     -0.554457    33A     -0.553200
      34A     -0.517299    35A     -0.502017    36A     -0.491055
      37A     -0.487296    38A     -0.468077    39A     -0.436910
      40A     -0.406403

  @DF-RHF Final Energy:  -569.66802845965901

   => Energetics <=

    Nuclear Repulsion Energy =            634.8261138158809445
    One-Electron Energy =               -2043.7752720776825299
    Two-Electron Energy =                 839.2811298021425728
    Total Energy =                       -569.6680284596590127
  Basis Set: (AUG-CC-PVTZ AUX)
    Blend: AUG-CC-PVTZ-RI
    Molecular point group: c1

    Geometry (in Angstrom), charge = 0, multiplicity = 1:

       Center              X                  Y                   Z               Mass
    ------------   -----------------  -----------------  -----------------  -----------------
         O           -0.112248753825    -1.799611021730     0.460868140247    15.994914619570
         O            0.360950246175     1.394665978270    -1.018682859753    15.994914619570
         O           -1.952634753825     1.372007978270     0.475078140247    15.994914619570
         O            2.717336246175     0.451260978270    -0.199671859753    15.994914619570
         O           -1.669109753825    -0.799544021730    -0.992489859753    15.994914619570
         C            0.407084646175     1.007432378270     0.280857440247    12.000000000000
         C           -0.906810753825     0.474956978270     0.846065140247    12.000000000000
         C            1.537031246175    -0.028212021730     0.426398140247    12.000000000000
         C           -1.212621753825    -0.935760021730     0.345713140247    12.000000000000
         C            1.057491246175    -1.316018021730    -0.222655859753    12.000000000000
         H            0.706777246175     1.888134978270     0.966583140247     1.007825032230
         H           -0.932945153825     0.412388278270     1.940382240247     1.007825032230
         H            1.786297246175    -0.230949021730     1.474035140247     1.007825032230
         H           -1.991430753825    -1.396182021730     0.967767140247     1.007825032230
         H            0.846123246175    -1.146854021730    -1.283972859753     1.007825032230
         H            1.808435246175    -2.100706021730    -0.120517859753     1.007825032230
         H           -0.390530753825     2.012797978270    -1.077674859753     1.007825032230
         H           -2.339186753825     0.977378978270    -0.334078859753     1.007825032230
         H            2.402221246175     0.935977978270    -0.986807859753     1.007825032230
         H           -1.993120753825    -1.675578021730    -1.272499859753     1.007825032230

  Basis Set: AUG-CC-PVTZ
    Blend: AUG-CC-PVTZ
  Basis Set: (AUG-CC-PVTZ AUX)
    Blend: AUG-CC-PVTZ-JKFIT
	 Reference Energy          =    -569.6680284596590127 [Eh]
	 Singles Energy            =      -0.0000000000000000 [Eh]
	 Same-Spin Energy          =      -0.5549038415971563 [Eh]
	 Opposite-Spin Energy      =      -1.7035096718778182 [Eh]
	 Correlation Energy        =      -2.2584135134749745 [Eh]
	 Total Energy              =    -571.9264419731339331 [Eh]

	 ================> DF-SCS-MP2 Energies <==================
	-----------------------------------------------------------
	 SCS Same-Spin Scale       =       0.3333333333333333 [-]
	 SCS Opposite-Spin Scale   =       1.2000000000000000 [-]
	 SCS Same-Spin Energy      =      -0.1849679471990521 [Eh]
	 SCS Opposite-Spin Energy  =      -2.0442116062533819 [Eh]
	 SCS Correlation Energy    =      -2.2291795534524339 [Eh]
	 SCS Total Energy          =    -571.8972080131114808 [Eh]
	-----------------------------------------------------------

  Dipole Moment: [D]
     X:    -2.2310      Y:    -0.9680      Z:    -0.5207     Total:     2.4871

*** Psi4 exiting successfully. Buy a developer a beer!
