                               Psi4 1.4a3.dev225

  ==> Input File <==

--------------------------------------------------------------------------
#psi4
#
memory 32 gb

molecule  {
0 1
  O       -0.2343850     1.7978400    -0.4145210
  O        0.4791390    -1.3900560     0.9851260
  O       -1.8902550    -1.4798720    -0.4079610
  O        2.7489250    -0.2990660     0.0843650
  O       -1.6766260     0.6849030     1.0797040
  C        0.4758930    -0.9871420    -0.3839460
  C       -0.9153110    -0.5160320    -0.8112700
  C        1.5148540     0.1205520    -0.4811210
  C       -1.2794180     0.8705190    -0.2725550
  C        0.9914930     1.3693070     0.2124490
  H        0.7732420    -1.8350180    -1.0199460
  H       -0.9371724    -0.4528374    -1.9262211
  H        1.7061480     0.3550680    -1.5342930
  H       -2.1075740     1.2945610    -0.8542440
  H        0.8333730     1.1741050     1.2776920
  H        1.6908660     2.1982840     0.0933200
  H       -0.2684360    -2.0097880     1.0741120
  H       -2.2907410    -1.1048270     0.4011470
  H        2.5001980    -0.8049050     0.8819700
  H       -2.0397460     1.5332780     1.3914430
units angstrom
no_reorient  #important for SAPT in psi4, default
symmetry c1  #important for SAPT in psi4, default
}

set PROPERTIES_ORIGIN ["COM"]
properties('MP2/aug-cc-pvtz', properties = ['dipole'])
--------------------------------------------------------------------------

    Molecular point group: c1
  Charge       = 0
  Multiplicity = 1
  Basis Set: AUG-CC-PVTZ
    Blend: AUG-CC-PVTZ
  Basis Set: (AUG-CC-PVTZ AUX)
    Blend: AUG-CC-PVTZ-JKFIT

    Orbital Energies [Eh]
    ---------------------

    Doubly Occupied:

       1A    -20.592168     2A    -20.581215     3A    -20.575564
       4A    -20.570209     5A    -20.558674     6A    -11.355050
       7A    -11.302078     8A    -11.291381     9A    -11.286255
      10A    -11.278872    11A     -1.438196    12A     -1.391063
      13A     -1.375607    14A     -1.354029    15A     -1.347533
      16A     -1.057469    17A     -1.022325    18A     -0.898583
      19A     -0.869421    20A     -0.797263    21A     -0.752187
      22A     -0.726832    23A     -0.712258    24A     -0.696013
      25A     -0.667667    26A     -0.646732    27A     -0.620833
      28A     -0.614741    29A     -0.601013    30A     -0.584329
      31A     -0.572288    32A     -0.556585    33A     -0.542817
      34A     -0.515192    35A     -0.503071    36A     -0.490678
      37A     -0.487169    38A     -0.471164    39A     -0.440964
      40A     -0.416085

  @DF-RHF Final Energy:  -569.67388694367560

   => Energetics <=

    Nuclear Repulsion Energy =            633.0268714126682426
    One-Electron Energy =               -2040.2783777335364448
    Two-Electron Energy =                 837.5776193771926046
    Total Energy =                       -569.6738869436755976
  Basis Set: (AUG-CC-PVTZ AUX)
    Blend: AUG-CC-PVTZ-RI
    Molecular point group: c1

    Geometry (in Angstrom), charge = 0, multiplicity = 1:

       Center              X                  Y                   Z               Mass
    ------------   -----------------  -----------------  -----------------  -----------------
         O           -0.235323857902     1.800102103804    -0.415631559046    15.994914619570
         O            0.478200142098    -1.387793896196     0.984015440954    15.994914619570
         O           -1.891193857902    -1.477609896196    -0.409071559046    15.994914619570
         O            2.747986142098    -0.296803896196     0.083254440954    15.994914619570
         O           -1.677564857902     0.687165103804     1.078593440954    15.994914619570
         C            0.474954142098    -0.984879896196    -0.385056559046    12.000000000000
         C           -0.916249857902    -0.513769896196    -0.812380559046    12.000000000000
         C            1.513915142098     0.122814103804    -0.482231559046    12.000000000000
         C           -1.280356857902     0.872781103804    -0.273665559046    12.000000000000
         C            0.990554142098     1.371569103804     0.211338440954    12.000000000000
         H            0.772303142098    -1.832755896196    -1.021056559046     1.007825032230
         H           -0.938111257902    -0.450575296196    -1.927331659046     1.007825032230
         H            1.705209142098     0.357330103804    -1.535403559046     1.007825032230
         H           -2.108512857902     1.296823103804    -0.855354559046     1.007825032230
         H            0.832434142098     1.176367103804     1.276581440954     1.007825032230
         H            1.689927142098     2.200546103804     0.092209440954     1.007825032230
         H           -0.269374857902    -2.007525896196     1.073001440954     1.007825032230
         H           -2.291679857902    -1.102564896196     0.400036440954     1.007825032230
         H            2.499259142098    -0.802642896196     0.880859440954     1.007825032230
         H           -2.040684857902     1.535540103804     1.390332440954     1.007825032230

  Basis Set: AUG-CC-PVTZ
    Blend: AUG-CC-PVTZ
  Basis Set: (AUG-CC-PVTZ AUX)
    Blend: AUG-CC-PVTZ-JKFIT
	 Reference Energy          =    -569.6738869436755976 [Eh]
	 Singles Energy            =      -0.0000000000000000 [Eh]
	 Same-Spin Energy          =      -0.5545494982731254 [Eh]
	 Opposite-Spin Energy      =      -1.7041370816788661 [Eh]
	 Correlation Energy        =      -2.2586865799519913 [Eh]
	 Total Energy              =    -571.9325735236276387 [Eh]

	 ================> DF-SCS-MP2 Energies <==================
	-----------------------------------------------------------
	 SCS Same-Spin Scale       =       0.3333333333333333 [-]
	 SCS Opposite-Spin Scale   =       1.2000000000000000 [-]
	 SCS Same-Spin Energy      =      -0.1848498327577084 [Eh]
	 SCS Opposite-Spin Energy  =      -2.0449644980146391 [Eh]
	 SCS Correlation Energy    =      -2.2298143307723475 [Eh]
	 SCS Total Energy          =    -571.9037012744479398 [Eh]
	-----------------------------------------------------------

  Dipole Moment: [D]
     X:    -2.2971      Y:     0.9624      Z:     0.4071     Total:     2.5236

*** Psi4 exiting successfully. Buy a developer a beer!
