                               Psi4 1.3.2 release

  ==> Input File <==

--------------------------------------------------------------------------
#psi4
#
memory 32 gb

molecule  {
0 1
  O       -0.1147700    -1.8002930     0.4548730
  O        0.3462763     1.3470202    -1.0361266
  O       -1.9551560     1.3713260     0.4690830
  O        2.7148150     0.4505790    -0.2056670
  O       -1.6716310    -0.8002260    -0.9984850
  C        0.4315910     1.0135520     0.3497470
  C       -0.9093320     0.4742750     0.8400700
  C        1.5345100    -0.0288940     0.4204030
  C       -1.2151430    -0.9364420     0.3397180
  C        1.0549700    -1.3167000    -0.2286510
  H        0.7027912     1.8652022     0.9918672
  H       -0.8818830     0.4322700     1.9353370
  H        1.7837760    -0.2316310     1.4680400
  H       -1.9939520    -1.3968640     0.9617720
  H        0.8436020    -1.1475360    -1.2899680
  H        1.8059140    -2.1013880    -0.1265130
  H       -0.3930520     2.0121160    -1.0836700
  H       -2.3417080     0.9766970    -0.3400740
  H        2.3997000     0.9352960    -0.9928030
  H       -1.9956420    -1.6762600    -1.2784950
units angstrom
no_reorient  #important for SAPT in psi4, default
symmetry c1  #important for SAPT in psi4, default
}

set PROPERTIES_ORIGIN ["COM"]
properties('MP2/aug-cc-pvtz', properties = ['dipole'])
--------------------------------------------------------------------------

    Molecular point group: c1
  Charge       = 0
  Multiplicity = 1
  Basis Set: AUG-CC-PVTZ
    Blend: AUG-CC-PVTZ
  Basis Set: (AUG-CC-PVTZ AUX)
    Blend: AUG-CC-PVTZ-JKFIT

    Orbital Energies [Eh]
    ---------------------

    Doubly Occupied:

       1A    -20.590467     2A    -20.579892     3A    -20.574995
       4A    -20.574267     5A    -20.558138     6A    -11.352920
       7A    -11.297267     8A    -11.291157     9A    -11.284772
      10A    -11.277166    11A     -1.437882    12A     -1.390372
      13A     -1.375193    14A     -1.353126    15A     -1.346330
      16A     -1.058150    17A     -1.022186    18A     -0.897863
      19A     -0.869526    20A     -0.796203    21A     -0.751034
      22A     -0.727879    23A     -0.710486    24A     -0.694924
      25A     -0.670217    26A     -0.645480    27A     -0.620464
      28A     -0.610592    29A     -0.602808    30A     -0.583469
      31A     -0.571095    32A     -0.555731    33A     -0.543600
      34A     -0.515518    35A     -0.502023    36A     -0.491529
      37A     -0.487116    38A     -0.471249    39A     -0.439350
      40A     -0.415536

  @DF-RHF Final Energy:  -569.67138990091712

   => Energetics <=

    Nuclear Repulsion Energy =            634.4248254644306826
    One-Electron Energy =               -2043.1164924312977291
    Two-Electron Energy =                 839.0202770659500402
    Total Energy =                       -569.6713899009171200
  Basis Set: (AUG-CC-PVTZ AUX)
    Blend: AUG-CC-PVTZ-RI
    Molecular point group: c1

    Geometry (in Angstrom), charge = 0, multiplicity = 1:

       Center              X                  Y                   Z               Mass
    ------------   -----------------  -----------------  -----------------  -----------------
         O           -0.113464833780    -1.795137509952     0.455883373568    15.994914619570
         O            0.347581466220     1.352175690048    -1.035116226432    15.994914619570
         O           -1.953850833780     1.376481490048     0.470093373568    15.994914619570
         O            2.716120166220     0.455734490048    -0.204656626432    15.994914619570
         O           -1.670325833780    -0.795070509952    -0.997474626432    15.994914619570
         C            0.432896166220     1.018707490048     0.350757373568    12.000000000000
         C           -0.908026833780     0.479430490048     0.841080373568    12.000000000000
         C            1.535815166220    -0.023738509952     0.421413373568    12.000000000000
         C           -1.213837833780    -0.931286509952     0.340728373568    12.000000000000
         C            1.056275166220    -1.311544509952    -0.227640626432    12.000000000000
         H            0.704096366220     1.870357690048     0.992877573568     1.007825032230
         H           -0.880577833780     0.437425490048     1.936347373568     1.007825032230
         H            1.785081166220    -0.226475509952     1.469050373568     1.007825032230
         H           -1.992646833780    -1.391708509952     0.962782373568     1.007825032230
         H            0.844907166220    -1.142380509952    -1.288957626432     1.007825032230
         H            1.807219166220    -2.096232509952    -0.125502626432     1.007825032230
         H           -0.391746833780     2.017271490048    -1.082659626432     1.007825032230
         H           -2.340402833780     0.981852490048    -0.339063626432     1.007825032230
         H            2.401005166220     0.940451490048    -0.991792626432     1.007825032230
         H           -1.994336833780    -1.671104509952    -1.277484626432     1.007825032230

  Basis Set: AUG-CC-PVTZ
    Blend: AUG-CC-PVTZ
  Basis Set: (AUG-CC-PVTZ AUX)
    Blend: AUG-CC-PVTZ-JKFIT
	 Reference Energy          =    -569.6713899009171200 [Eh]
	 Singles Energy            =      -0.0000000000000000 [Eh]
	 Same-Spin Energy          =      -0.5551789756279888 [Eh]
	 Opposite-Spin Energy      =      -1.7050771990806135 [Eh]
	 Correlation Energy        =      -2.2602561747086023 [Eh]
	 Total Energy              =    -571.9316460756257356 [Eh]

	 ================> DF-SCS-MP2 Energies <==================
	-----------------------------------------------------------
	 SCS Same-Spin Scale       =       0.3333333333333333 [-]
	 SCS Opposite-Spin Scale   =       1.2000000000000000 [-]
	 SCS Same-Spin Energy      =      -0.1850596585426629 [Eh]
	 SCS Opposite-Spin Energy  =      -2.0460926388967362 [Eh]
	 SCS Correlation Energy    =      -2.2311522974393991 [Eh]
	 SCS Total Energy          =    -571.9025421983565138 [Eh]
	-----------------------------------------------------------

  Dipole Moment: [D]
     X:    -2.1442      Y:    -0.8813      Z:    -0.3052     Total:     2.3383

*** Psi4 exiting successfully. Buy a developer a beer!
