                               Psi4 1.3.2 release

  ==> Input File <==

--------------------------------------------------------------------------
#psi4
#
memory 32 gb

molecule  {
0 1
  O       -0.1147700    -1.8002930     0.4548730
  O        0.3584290     1.3939840    -1.0246780
  O       -1.9551560     1.3713260     0.4690830
  O        2.7148150     0.4505790    -0.2056670
  O       -1.6716310    -0.8002260    -0.9984850
  C        0.4315910     1.0135520     0.3497470
  C       -0.9275649     0.4711638     0.8592752
  C        1.5345100    -0.0288940     0.4204030
  C       -1.2151430    -0.9364420     0.3397180
  C        1.0549700    -1.3167000    -0.2286510
  H        0.7042560     1.8874530     0.9605880
  H       -0.8818830     0.4322700     1.9353370
  H        1.7837760    -0.2316310     1.4680400
  H       -1.9947230    -1.3808929     0.9723328
  H        0.8436020    -1.1475360    -1.2899680
  H        1.8059140    -2.1013880    -0.1265130
  H       -0.3930520     2.0121160    -1.0836700
  H       -2.3417080     0.9766970    -0.3400740
  H        2.3997000     0.9352960    -0.9928030
  H       -1.9956420    -1.6762600    -1.2784950
units angstrom
no_reorient  #important for SAPT in psi4, default
symmetry c1  #important for SAPT in psi4, default
}

set PROPERTIES_ORIGIN ["COM"]
properties('MP2/aug-cc-pvtz', properties = ['dipole'])
--------------------------------------------------------------------------

    Molecular point group: c1
  Charge       = 0
  Multiplicity = 1
  Basis Set: AUG-CC-PVTZ
    Blend: AUG-CC-PVTZ
  Basis Set: (AUG-CC-PVTZ AUX)
    Blend: AUG-CC-PVTZ-JKFIT

    Orbital Energies [Eh]
    ---------------------

    Doubly Occupied:

       1A    -20.592223     2A    -20.581023     3A    -20.575126
       4A    -20.571045     5A    -20.557672     6A    -11.353505
       7A    -11.297712     8A    -11.290834     9A    -11.284931
      10A    -11.277898    11A     -1.438607    12A     -1.391192
      13A     -1.376514    14A     -1.354415    15A     -1.347490
      16A     -1.055871    17A     -1.023259    18A     -0.898079
      19A     -0.869524    20A     -0.799204    21A     -0.751683
      22A     -0.726458    23A     -0.712584    24A     -0.696543
      25A     -0.668661    26A     -0.646929    27A     -0.620869
      28A     -0.613577    29A     -0.603515    30A     -0.585563
      31A     -0.572270    32A     -0.555965    33A     -0.543451
      34A     -0.517684    35A     -0.503282    36A     -0.490568
      37A     -0.488240    38A     -0.471226    39A     -0.436545
      40A     -0.414462

  @DF-RHF Final Energy:  -569.67428390350096

   => Energetics <=

    Nuclear Repulsion Energy =            633.4308916246396848
    One-Electron Energy =               -2041.0979632649230098
    Two-Electron Energy =                 837.9927877367822475
    Total Energy =                       -569.6742839035009638
  Basis Set: (AUG-CC-PVTZ AUX)
    Blend: AUG-CC-PVTZ-RI
    Molecular point group: c1

    Geometry (in Angstrom), charge = 0, multiplicity = 1:

       Center              X                  Y                   Z               Mass
    ------------   -----------------  -----------------  -----------------  -----------------
         O           -0.113306794954    -1.800151534625     0.453266286809    15.994914619570
         O            0.359892205046     1.394125465375    -1.026284713191    15.994914619570
         O           -1.953692794954     1.371467465375     0.467476286809    15.994914619570
         O            2.716278205046     0.450720465375    -0.207273713191    15.994914619570
         O           -1.670167794954    -0.800084534625    -1.000091713191    15.994914619570
         C            0.433054205046     1.013693465375     0.348140286809    12.000000000000
         C           -0.926101694954     0.471305265375     0.857668486809    12.000000000000
         C            1.535973205046    -0.028752534625     0.418796286809    12.000000000000
         C           -1.213679794954    -0.936300534625     0.338111286809    12.000000000000
         C            1.056433205046    -1.316558534625    -0.230257713191    12.000000000000
         H            0.705719205046     1.887594465375     0.958981286809     1.007825032230
         H           -0.880419794954     0.432411465375     1.933730286809     1.007825032230
         H            1.785239205046    -0.231489534625     1.466433286809     1.007825032230
         H           -1.993259794954    -1.380751434625     0.970726086809     1.007825032230
         H            0.845065205046    -1.147394534625    -1.291574713191     1.007825032230
         H            1.807377205046    -2.101246534625    -0.128119713191     1.007825032230
         H           -0.391588794954     2.012257465375    -1.085276713191     1.007825032230
         H           -2.340244794954     0.976838465375    -0.341680713191     1.007825032230
         H            2.401163205046     0.935437465375    -0.994409713191     1.007825032230
         H           -1.994178794954    -1.676118534625    -1.280101713191     1.007825032230

  Basis Set: AUG-CC-PVTZ
    Blend: AUG-CC-PVTZ
  Basis Set: (AUG-CC-PVTZ AUX)
    Blend: AUG-CC-PVTZ-JKFIT
	 Reference Energy          =    -569.6742839035009638 [Eh]
	 Singles Energy            =      -0.0000000000000000 [Eh]
	 Same-Spin Energy          =      -0.5544770358752277 [Eh]
	 Opposite-Spin Energy      =      -1.7036680896583514 [Eh]
	 Correlation Energy        =      -2.2581451255335789 [Eh]
	 Total Energy              =    -571.9324290290345516 [Eh]

	 ================> DF-SCS-MP2 Energies <==================
	-----------------------------------------------------------
	 SCS Same-Spin Scale       =       0.3333333333333333 [-]
	 SCS Opposite-Spin Scale   =       1.2000000000000000 [-]
	 SCS Same-Spin Energy      =      -0.1848256786250759 [Eh]
	 SCS Opposite-Spin Energy  =      -2.0444017075900214 [Eh]
	 SCS Correlation Energy    =      -2.2292273862150971 [Eh]
	 SCS Total Energy          =    -571.9035112897161071 [Eh]
	-----------------------------------------------------------

  Dipole Moment: [D]
     X:    -2.2250      Y:    -0.9808      Z:    -0.2841     Total:     2.4481

*** Psi4 exiting successfully. Buy a developer a beer!
