                               Psi4 1.3.2 release

  ==> Input File <==

--------------------------------------------------------------------------
#psi4
#
memory 32 gb

molecule  {
0 1
  O       -0.1147700    -1.8002930     0.4548730
  O        0.3584290     1.3939840    -1.0246780
  O       -1.9551560     1.3713260     0.4690830
  O        2.7148150     0.4505790    -0.2056670
  O       -1.6716310    -0.8002260    -0.9984850
  C        0.4315910     1.0135520     0.3497470
  C       -0.7336124     0.5449439     0.7758162
  C        1.5345100    -0.0288940     0.4204030
  C       -1.2151430    -0.9364420     0.3397180
  C        1.0549700    -1.3167000    -0.2286510
  H        0.7042560     1.8874530     0.9605880
  H       -0.8818830     0.4322700     1.9353370
  H        1.7837760    -0.2316310     1.4680400
  H       -1.9939520    -1.3968640     0.9617720
  H        0.8436020    -1.1475360    -1.2899680
  H        1.8059140    -2.1013880    -0.1265130
  H       -0.3930520     2.0121160    -1.0836700
  H       -2.3417080     0.9766970    -0.3400740
  H        2.3997000     0.9352960    -0.9928030
  H       -1.9956420    -1.6762600    -1.2784950
units angstrom
no_reorient  #important for SAPT in psi4, default
symmetry c1  #important for SAPT in psi4, default
}

set PROPERTIES_ORIGIN ["COM"]
properties('MP2/aug-cc-pvtz', properties = ['dipole'])
--------------------------------------------------------------------------

    Molecular point group: c1
  Charge       = 0
  Multiplicity = 1
  Basis Set: AUG-CC-PVTZ
    Blend: AUG-CC-PVTZ
  Basis Set: (AUG-CC-PVTZ AUX)
    Blend: AUG-CC-PVTZ-JKFIT

    Orbital Energies [Eh]
    ---------------------

    Doubly Occupied:

       1A    -20.589537     2A    -20.578301     3A    -20.574856
       4A    -20.565888     5A    -20.562871     6A    -11.359883
       7A    -11.303269     8A    -11.292669     9A    -11.285509
      10A    -11.280715    11A     -1.436369    12A     -1.397103
      13A     -1.366950    14A     -1.353732    15A     -1.334875
      16A     -1.098113    17A     -1.018438    18A     -0.901079
      19A     -0.875405    20A     -0.795355    21A     -0.749964
      22A     -0.735430    23A     -0.713351    24A     -0.692379
      25A     -0.680874    26A     -0.640915    27A     -0.625968
      28A     -0.618040    29A     -0.600875    30A     -0.576240
      31A     -0.571143    32A     -0.552174    33A     -0.536115
      34A     -0.506249    35A     -0.502012    36A     -0.489480
      37A     -0.482036    38A     -0.468295    39A     -0.465846
      40A     -0.407932

  @DF-RHF Final Energy:  -569.62206969083979

   => Energetics <=

    Nuclear Repulsion Energy =            635.6291646968679743
    One-Electron Energy =               -2045.3300003342590117
    Two-Electron Energy =                 840.0787659465512434
    Total Energy =                       -569.6220696908397940
  Basis Set: (AUG-CC-PVTZ AUX)
    Blend: AUG-CC-PVTZ-RI
    Molecular point group: c1

    Geometry (in Angstrom), charge = 0, multiplicity = 1:

       Center              X                  Y                   Z               Mass
    ------------   -----------------  -----------------  -----------------  -----------------
         O           -0.128822711150    -1.805944595401     0.460011587667    15.994914619570
         O            0.344376288850     1.388332404599    -1.019539412333    15.994914619570
         O           -1.969208711150     1.365674404599     0.474221587667    15.994914619570
         O            2.700762288850     0.444927404599    -0.200528412333    15.994914619570
         O           -1.685683711150    -0.805877595401    -0.993346412333    15.994914619570
         C            0.417538288850     1.007900404599     0.354885587667    12.000000000000
         C           -0.747665111150     0.539292304599     0.780954787667    12.000000000000
         C            1.520457288850    -0.034545595401     0.425541587667    12.000000000000
         C           -1.229195711150    -0.942093595401     0.344856587667    12.000000000000
         C            1.040917288850    -1.322351595401    -0.223512412333    12.000000000000
         H            0.690203288850     1.881801404599     0.965726587667     1.007825032230
         H           -0.895935711150     0.426618404599     1.940475587667     1.007825032230
         H            1.769723288850    -0.237282595401     1.473178587667     1.007825032230
         H           -2.008004711150    -1.402515595401     0.966910587667     1.007825032230
         H            0.829549288850    -1.153187595401    -1.284829412333     1.007825032230
         H            1.791861288850    -2.107039595401    -0.121374412333     1.007825032230
         H           -0.407104711150     2.006464404599    -1.078531412333     1.007825032230
         H           -2.355760711150     0.971045404599    -0.334935412333     1.007825032230
         H            2.385647288850     0.929644404599    -0.987664412333     1.007825032230
         H           -2.009694711150    -1.681911595401    -1.273356412333     1.007825032230

  Basis Set: AUG-CC-PVTZ
    Blend: AUG-CC-PVTZ
  Basis Set: (AUG-CC-PVTZ AUX)
    Blend: AUG-CC-PVTZ-JKFIT
	 Reference Energy          =    -569.6220696908397940 [Eh]
	 Singles Energy            =      -0.0000000000000000 [Eh]
	 Same-Spin Energy          =      -0.5577314622500785 [Eh]
	 Opposite-Spin Energy      =      -1.7095411641791243 [Eh]
	 Correlation Energy        =      -2.2672726264292029 [Eh]
	 Total Energy              =    -571.8893423172689836 [Eh]

	 ================> DF-SCS-MP2 Energies <==================
	-----------------------------------------------------------
	 SCS Same-Spin Scale       =       0.3333333333333333 [-]
	 SCS Opposite-Spin Scale   =       1.2000000000000000 [-]
	 SCS Same-Spin Energy      =      -0.1859104874166928 [Eh]
	 SCS Opposite-Spin Energy  =      -2.0514493970149492 [Eh]
	 SCS Correlation Energy    =      -2.2373598844316422 [Eh]
	 SCS Total Energy          =    -571.8594295752714061 [Eh]
	-----------------------------------------------------------

  Dipole Moment: [D]
     X:    -1.7811      Y:    -1.1029      Z:    -0.3468     Total:     2.1234

*** Psi4 exiting successfully. Buy a developer a beer!
