                               Psi4 1.3.2 release

  ==> Input File <==

--------------------------------------------------------------------------
#psi4
#
memory 32 gb

molecule  {
0 1
  O       -0.1147700    -1.8002930     0.4548730
  O        0.3584290     1.3939840    -1.0246780
  O       -1.9551560     1.3713260     0.4690830
  O        2.7148150     0.4505790    -0.2056670
  O       -1.6716310    -0.8002260    -0.9984850
  C        0.4315910     1.0135520     0.3497470
  C       -0.9093320     0.4742750     0.8400700
  C        1.4619137     0.0397219     0.4157523
  C       -1.2151430    -0.9364420     0.3397180
  C        1.0549700    -1.3167000    -0.2286510
  H        0.7042560     1.8874530     0.9605880
  H       -0.8818830     0.4322700     1.9353370
  H        1.7837760    -0.2316310     1.4680400
  H       -1.9939520    -1.3968640     0.9617720
  H        0.8436020    -1.1475360    -1.2899680
  H        1.8059140    -2.1013880    -0.1265130
  H       -0.3930520     2.0121160    -1.0836700
  H       -2.3417080     0.9766970    -0.3400740
  H        2.3997000     0.9352960    -0.9928030
  H       -1.9956420    -1.6762600    -1.2784950
units angstrom
no_reorient  #important for SAPT in psi4, default
symmetry c1  #important for SAPT in psi4, default
}

set PROPERTIES_ORIGIN ["COM"]
properties('MP2/aug-cc-pvtz', properties = ['dipole'])
--------------------------------------------------------------------------

    Molecular point group: c1
  Charge       = 0
  Multiplicity = 1
  Basis Set: AUG-CC-PVTZ
    Blend: AUG-CC-PVTZ
  Basis Set: (AUG-CC-PVTZ AUX)
    Blend: AUG-CC-PVTZ-JKFIT

    Orbital Energies [Eh]
    ---------------------

    Doubly Occupied:

       1A    -20.592206     2A    -20.579359     3A    -20.576750
       4A    -20.572951     5A    -20.556386     6A    -11.354832
       7A    -11.301299     8A    -11.289742     9A    -11.286262
      10A    -11.280438    11A     -1.439297    12A     -1.393845
      13A     -1.374880    14A     -1.354229    15A     -1.339583
      16A     -1.075361    17A     -1.019846    18A     -0.904470
      19A     -0.871662    20A     -0.794435    21A     -0.752105
      22A     -0.731408    23A     -0.713295    24A     -0.696925
      25A     -0.670936    26A     -0.641693    27A     -0.617605
      28A     -0.615842    29A     -0.603950    30A     -0.578900
      31A     -0.568785    32A     -0.555174    33A     -0.542156
      34A     -0.520905    35A     -0.502814    36A     -0.492985
      37A     -0.485228    38A     -0.478424    39A     -0.447070
      40A     -0.410004

  @DF-RHF Final Energy:  -569.66101863506060

   => Energetics <=

    Nuclear Repulsion Energy =            634.9516284678524016
    One-Electron Energy =               -2044.0572189743036233
    Two-Electron Energy =                 839.4445718713907354
    Total Energy =                       -569.6610186350606000
  Basis Set: (AUG-CC-PVTZ AUX)
    Blend: AUG-CC-PVTZ-RI
    Molecular point group: c1

    Geometry (in Angstrom), charge = 0, multiplicity = 1:

       Center              X                  Y                   Z               Mass
    ------------   -----------------  -----------------  -----------------  -----------------
         O           -0.108964432364    -1.805780413218     0.455245018244    15.994914619570
         O            0.364234567636     1.388496586782    -1.024305981756    15.994914619570
         O           -1.949350432364     1.365838586782     0.469455018244    15.994914619570
         O            2.720620567636     0.445091586782    -0.205294981756    15.994914619570
         O           -1.665825432364    -0.805713413218    -0.998112981756    15.994914619570
         C            0.437396567636     1.008064586782     0.350119018244    12.000000000000
         C           -0.903526432364     0.468787586782     0.840442018244    12.000000000000
         C            1.467719267636     0.034234486782     0.416124318244    12.000000000000
         C           -1.209337432364    -0.941929413218     0.340090018244    12.000000000000
         C            1.060775567636    -1.322187413218    -0.228278981756    12.000000000000
         H            0.710061567636     1.881965586782     0.960960018244     1.007825032230
         H           -0.876077432364     0.426782586782     1.935709018244     1.007825032230
         H            1.789581567636    -0.237118413218     1.468412018244     1.007825032230
         H           -1.988146432364    -1.402351413218     0.962144018244     1.007825032230
         H            0.849407567636    -1.153023413218    -1.289595981756     1.007825032230
         H            1.811719567636    -2.106875413218    -0.126140981756     1.007825032230
         H           -0.387246432364     2.006628586782    -1.083297981756     1.007825032230
         H           -2.335902432364     0.971209586782    -0.339701981756     1.007825032230
         H            2.405505567636     0.929808586782    -0.992430981756     1.007825032230
         H           -1.989836432364    -1.681747413218    -1.278122981756     1.007825032230

  Basis Set: AUG-CC-PVTZ
    Blend: AUG-CC-PVTZ
  Basis Set: (AUG-CC-PVTZ AUX)
    Blend: AUG-CC-PVTZ-JKFIT
	 Reference Energy          =    -569.6610186350606000 [Eh]
	 Singles Energy            =      -0.0000000000000000 [Eh]
	 Same-Spin Energy          =      -0.5557357981445195 [Eh]
	 Opposite-Spin Energy      =      -1.7061493856662322 [Eh]
	 Correlation Energy        =      -2.2618851838107519 [Eh]
	 Total Energy              =    -571.9229038188713048 [Eh]

	 ================> DF-SCS-MP2 Energies <==================
	-----------------------------------------------------------
	 SCS Same-Spin Scale       =       0.3333333333333333 [-]
	 SCS Opposite-Spin Scale   =       1.2000000000000000 [-]
	 SCS Same-Spin Energy      =      -0.1852452660481732 [Eh]
	 SCS Opposite-Spin Energy  =      -2.0473792627994785 [Eh]
	 SCS Correlation Energy    =      -2.2326245288476514 [Eh]
	 SCS Total Energy          =    -571.8936431639082230 [Eh]
	-----------------------------------------------------------

  Dipole Moment: [D]
     X:    -2.3373      Y:    -0.9652      Z:    -0.2806     Total:     2.5443

*** Psi4 exiting successfully. Buy a developer a beer!
