                               Psi4 1.3.2 release

  ==> Input File <==

--------------------------------------------------------------------------
#psi4
#
memory 32 gb

molecule  {
0 1
  O       -0.1147700    -1.8002930     0.4548730
  O        0.3584290     1.3939840    -1.0246780
  O       -1.9551560     1.3713260     0.4690830
  O        2.7148150     0.4505790    -0.2056670
  O       -1.6716310    -0.8002260    -0.9984850
  C        0.4315910     1.0135520     0.3497470
  C       -0.9093320     0.4742750     0.8400700
  C        1.5345100    -0.0288940     0.4204030
  C       -1.1830065    -0.9460315     0.4339267
  C        1.0549700    -1.3167000    -0.2286510
  H        0.7042560     1.8874530     0.9605880
  H       -0.8818830     0.4322700     1.9353370
  H        1.7837760    -0.2316310     1.4680400
  H       -1.9939520    -1.3968640     0.9617720
  H        0.8436020    -1.1475360    -1.2899680
  H        1.8059140    -2.1013880    -0.1265130
  H       -0.3930520     2.0121160    -1.0836700
  H       -2.3417080     0.9766970    -0.3400740
  H        2.3997000     0.9352960    -0.9928030
  H       -1.9956420    -1.6762600    -1.2784950
units angstrom
no_reorient  #important for SAPT in psi4, default
symmetry c1  #important for SAPT in psi4, default
}

set PROPERTIES_ORIGIN ["COM"]
properties('MP2/aug-cc-pvtz', properties = ['dipole'])
--------------------------------------------------------------------------

    Molecular point group: c1
  Charge       = 0
  Multiplicity = 1
  Basis Set: AUG-CC-PVTZ
    Blend: AUG-CC-PVTZ
  Basis Set: (AUG-CC-PVTZ AUX)
    Blend: AUG-CC-PVTZ-JKFIT

    Orbital Energies [Eh]
    ---------------------

    Doubly Occupied:

       1A    -20.588751     2A    -20.576063     3A    -20.572356
       4A    -20.571280     5A    -20.560446     6A    -11.356401
       7A    -11.300143     8A    -11.293403     9A    -11.288630
      10A    -11.282699    11A     -1.436785    12A     -1.393361
      13A     -1.374912    14A     -1.349076    15A     -1.331026
      16A     -1.064084    17A     -1.032860    18A     -0.902512
      19A     -0.875333    20A     -0.795126    21A     -0.749906
      22A     -0.725058    23A     -0.715848    24A     -0.691413
      25A     -0.667518    26A     -0.646013    27A     -0.620000
      28A     -0.617866    29A     -0.601299    30A     -0.584428
      31A     -0.564059    32A     -0.558605    33A     -0.542759
      34A     -0.517905    35A     -0.501471    36A     -0.493921
      37A     -0.482584    38A     -0.470500    39A     -0.443625
      40A     -0.420902

  @DF-RHF Final Energy:  -569.66597745065212

   => Energetics <=

    Nuclear Repulsion Energy =            633.3553198217771296
    One-Electron Energy =               -2040.9207423269094761
    Two-Electron Energy =                 837.8994450544802248
    Total Energy =                       -569.6659774506521217
  Basis Set: (AUG-CC-PVTZ AUX)
    Blend: AUG-CC-PVTZ-RI
    Molecular point group: c1

    Geometry (in Angstrom), charge = 0, multiplicity = 1:

       Center              X                  Y                   Z               Mass
    ------------   -----------------  -----------------  -----------------  -----------------
         O           -0.117340106819    -1.799526183684     0.447339050379    15.994914619570
         O            0.355858893181     1.394750816316    -1.032211949621    15.994914619570
         O           -1.957726106819     1.372092816316     0.461549050379    15.994914619570
         O            2.712244893181     0.451345816316    -0.213200949621    15.994914619570
         O           -1.674201106819    -0.799459183684    -1.006018949621    15.994914619570
         C            0.429020893181     1.014318816316     0.342213050379    12.000000000000
         C           -0.911902106819     0.475041816316     0.832536050379    12.000000000000
         C            1.531939893181    -0.028127183684     0.412869050379    12.000000000000
         C           -1.185576606819    -0.945264683684     0.426392750379    12.000000000000
         C            1.052399893181    -1.315933183684    -0.236184949621    12.000000000000
         H            0.701685893181     1.888219816316     0.953054050379     1.007825032230
         H           -0.884453106819     0.433036816316     1.927803050379     1.007825032230
         H            1.781205893181    -0.230864183684     1.460506050379     1.007825032230
         H           -1.996522106819    -1.396097183684     0.954238050379     1.007825032230
         H            0.841031893181    -1.146769183684    -1.297501949621     1.007825032230
         H            1.803343893181    -2.100621183684    -0.134046949621     1.007825032230
         H           -0.395622106819     2.012882816316    -1.091203949621     1.007825032230
         H           -2.344278106819     0.977463816316    -0.347607949621     1.007825032230
         H            2.397129893181     0.936062816316    -1.000336949621     1.007825032230
         H           -1.998212106819    -1.675493183684    -1.286028949621     1.007825032230

  Basis Set: AUG-CC-PVTZ
    Blend: AUG-CC-PVTZ
  Basis Set: (AUG-CC-PVTZ AUX)
    Blend: AUG-CC-PVTZ-JKFIT
	 Reference Energy          =    -569.6659774506521217 [Eh]
	 Singles Energy            =      -0.0000000000000000 [Eh]
	 Same-Spin Energy          =      -0.5550531648406214 [Eh]
	 Opposite-Spin Energy      =      -1.7051992157075542 [Eh]
	 Correlation Energy        =      -2.2602523805481756 [Eh]
	 Total Energy              =    -571.9262298312003168 [Eh]

	 ================> DF-SCS-MP2 Energies <==================
	-----------------------------------------------------------
	 SCS Same-Spin Scale       =       0.3333333333333333 [-]
	 SCS Opposite-Spin Scale   =       1.2000000000000000 [-]
	 SCS Same-Spin Energy      =      -0.1850177216135405 [Eh]
	 SCS Opposite-Spin Energy  =      -2.0462390588490651 [Eh]
	 SCS Correlation Energy    =      -2.2312567804626058 [Eh]
	 SCS Total Energy          =    -571.8972342311146804 [Eh]
	-----------------------------------------------------------

  Dipole Moment: [D]
     X:    -1.8492      Y:    -1.0183      Z:     0.0933     Total:     2.1130

*** Psi4 exiting successfully. Buy a developer a beer!
