                               Psi4 1.3.2 release

  ==> Input File <==

--------------------------------------------------------------------------
#psi4
#
memory 32 gb

molecule  {
0 1
  O       -0.1147700    -1.8002930     0.4548730
  O        0.3402381     1.3233823    -1.0412185
  O       -1.9551560     1.3713260     0.4690830
  O        2.7148150     0.4505790    -0.2056670
  O       -1.6716310    -0.8002260    -0.9984850
  C        0.4315910     1.0135520     0.3497470
  C       -0.9093320     0.4742750     0.8400700
  C        1.5345100    -0.0288940     0.4204030
  C       -1.2151430    -0.9364420     0.3397180
  C        1.0549700    -1.3167000    -0.2286510
  H        0.7019348     1.8536859     1.0072157
  H       -0.8818830     0.4322700     1.9353370
  H        1.7837760    -0.2316310     1.4680400
  H       -1.9939520    -1.3968640     0.9617720
  H        0.8436020    -1.1475360    -1.2899680
  H        1.8059140    -2.1013880    -0.1265130
  H       -0.3930520     2.0121160    -1.0836700
  H       -2.3417080     0.9766970    -0.3400740
  H        2.3997000     0.9352960    -0.9928030
  H       -1.9956420    -1.6762600    -1.2784950
units angstrom
no_reorient  #important for SAPT in psi4, default
symmetry c1  #important for SAPT in psi4, default
}

set PROPERTIES_ORIGIN ["COM"]
properties('MP2/aug-cc-pvtz', properties = ['dipole'])
--------------------------------------------------------------------------

    Molecular point group: c1
  Charge       = 0
  Multiplicity = 1
  Basis Set: AUG-CC-PVTZ
    Blend: AUG-CC-PVTZ
  Basis Set: (AUG-CC-PVTZ AUX)
    Blend: AUG-CC-PVTZ-JKFIT

    Orbital Energies [Eh]
    ---------------------

    Doubly Occupied:

       1A    -20.589903     2A    -20.579460     3A    -20.576922
       4A    -20.574089     5A    -20.558086     6A    -11.352441
       7A    -11.296709     8A    -11.291193     9A    -11.284318
      10A    -11.276665    11A     -1.437466    12A     -1.389818
      13A     -1.374940    14A     -1.352715    15A     -1.345592
      16A     -1.057660    17A     -1.021784    18A     -0.897485
      19A     -0.869272    20A     -0.795091    21A     -0.750433
      22A     -0.727923    23A     -0.709830    24A     -0.694247
      25A     -0.670382    26A     -0.645135    27A     -0.620166
      28A     -0.608880    29A     -0.602738    30A     -0.582822
      31A     -0.570759    32A     -0.555625    33A     -0.543971
      34A     -0.515115    35A     -0.501701    36A     -0.491692
      37A     -0.486843    38A     -0.470927    39A     -0.438704
      40A     -0.415288

  @DF-RHF Final Energy:  -569.66886159226226

   => Energetics <=

    Nuclear Repulsion Energy =            634.7338841721339122
    One-Electron Energy =               -2043.7559191756279233
    Two-Electron Energy =                 839.3531734112317508
    Total Energy =                       -569.6688615922622603
  Basis Set: (AUG-CC-PVTZ AUX)
    Blend: AUG-CC-PVTZ-RI
    Molecular point group: c1

    Geometry (in Angstrom), charge = 0, multiplicity = 1:

       Center              X                  Y                   Z               Mass
    ------------   -----------------  -----------------  -----------------  -----------------
         O           -0.112815438503    -1.792540473797     0.456323058085    15.994914619570
         O            0.342192661497     1.331134826203    -1.039768441915    15.994914619570
         O           -1.953201438503     1.379078526203     0.470533058085    15.994914619570
         O            2.716769561497     0.458331526203    -0.204216941915    15.994914619570
         O           -1.669676438503    -0.792473473797    -0.997034941915    15.994914619570
         C            0.433545561497     1.021304526203     0.351197058085    12.000000000000
         C           -0.907377438503     0.482027526203     0.841520058085    12.000000000000
         C            1.536464561497    -0.021141473797     0.421853058085    12.000000000000
         C           -1.213188438503    -0.928689473797     0.341168058085    12.000000000000
         C            1.056924561497    -1.308947473797    -0.227200941915    12.000000000000
         H            0.703889361497     1.861438426203     1.008665758085     1.007825032230
         H           -0.879928438503     0.440022526203     1.936787058085     1.007825032230
         H            1.785730561497    -0.223878473797     1.469490058085     1.007825032230
         H           -1.991997438503    -1.389111473797     0.963222058085     1.007825032230
         H            0.845556561497    -1.139783473797    -1.288517941915     1.007825032230
         H            1.807868561497    -2.093635473797    -0.125062941915     1.007825032230
         H           -0.391097438503     2.019868526203    -1.082219941915     1.007825032230
         H           -2.339753438503     0.984449526203    -0.338623941915     1.007825032230
         H            2.401654561497     0.943048526203    -0.991352941915     1.007825032230
         H           -1.993687438503    -1.668507473797    -1.277044941915     1.007825032230

  Basis Set: AUG-CC-PVTZ
    Blend: AUG-CC-PVTZ
  Basis Set: (AUG-CC-PVTZ AUX)
    Blend: AUG-CC-PVTZ-JKFIT
	 Reference Energy          =    -569.6688615922622603 [Eh]
	 Singles Energy            =      -0.0000000000000000 [Eh]
	 Same-Spin Energy          =      -0.5554977931903484 [Eh]
	 Opposite-Spin Energy      =      -1.7057410529722570 [Eh]
	 Correlation Energy        =      -2.2612388461626054 [Eh]
	 Total Energy              =    -571.9301004384249154 [Eh]

	 ================> DF-SCS-MP2 Energies <==================
	-----------------------------------------------------------
	 SCS Same-Spin Scale       =       0.3333333333333333 [-]
	 SCS Opposite-Spin Scale   =       1.2000000000000000 [-]
	 SCS Same-Spin Energy      =      -0.1851659310634495 [Eh]
	 SCS Opposite-Spin Energy  =      -2.0468892635667082 [Eh]
	 SCS Correlation Energy    =      -2.2320551946301577 [Eh]
	 SCS Total Energy          =    -571.9009167868923669 [Eh]
	-----------------------------------------------------------

  Dipole Moment: [D]
     X:    -2.1259      Y:    -0.8263      Z:    -0.3103     Total:     2.3018

*** Psi4 exiting successfully. Buy a developer a beer!
