                               Psi4 1.3.2 release

  ==> Input File <==

--------------------------------------------------------------------------
#psi4
#
memory 32 gb

molecule  {
0 1
  O       -0.1147700    -1.8002930     0.4548730
  O        0.3584290     1.3939840    -1.0246780
  O       -1.9551560     1.3713260     0.4690830
  O        2.7148150     0.4505790    -0.2056670
  O       -1.6716310    -0.8002260    -0.9984850
  C        0.4315910     1.0135520     0.3497470
  C       -0.9093320     0.4742750     0.8400700
  C        1.5345100    -0.0288940     0.4204030
  C       -1.2083626    -0.9287916     0.3329693
  C        1.0485746    -1.3065265    -0.2322826
  H        0.7042560     1.8874530     0.9605880
  H       -0.8818830     0.4322700     1.9353370
  H        1.7837760    -0.2316310     1.4680400
  H       -1.9939520    -1.3968640     0.9617720
  H        0.8436020    -1.1475360    -1.2899680
  H        1.8059140    -2.1013880    -0.1265130
  H       -0.3930520     2.0121160    -1.0836700
  H       -2.3417080     0.9766970    -0.3400740
  H        2.3997000     0.9352960    -0.9928030
  H       -1.9956420    -1.6762600    -1.2784950
units angstrom
no_reorient  #important for SAPT in psi4, default
symmetry c1  #important for SAPT in psi4, default
}

set PROPERTIES_ORIGIN ["COM"]
properties('MP2/aug-cc-pvtz', properties = ['dipole'])
--------------------------------------------------------------------------

    Molecular point group: c1
  Charge       = 0
  Multiplicity = 1
  Basis Set: AUG-CC-PVTZ
    Blend: AUG-CC-PVTZ
  Basis Set: (AUG-CC-PVTZ AUX)
    Blend: AUG-CC-PVTZ-JKFIT

    Orbital Energies [Eh]
    ---------------------

    Doubly Occupied:

       1A    -20.592118     2A    -20.581577     3A    -20.574987
       4A    -20.571522     5A    -20.558541     6A    -11.353972
       7A    -11.298454     8A    -11.290880     9A    -11.285693
      10A    -11.278115    11A     -1.440256    12A     -1.391946
      13A     -1.376390    14A     -1.355092    15A     -1.348068
      16A     -1.060312    17A     -1.023115    18A     -0.899150
      19A     -0.869430    20A     -0.799549    21A     -0.752121
      22A     -0.727918    23A     -0.712135    24A     -0.696606
      25A     -0.670181    26A     -0.647392    27A     -0.621472
      28A     -0.614576    29A     -0.603015    30A     -0.584041
      31A     -0.571497    32A     -0.555340    33A     -0.543241
      34A     -0.516624    35A     -0.500550    36A     -0.491861
      37A     -0.488902    38A     -0.472236    39A     -0.440093
      40A     -0.416877

  @DF-RHF Final Energy:  -569.67382226360826

   => Energetics <=

    Nuclear Repulsion Energy =            634.2743730958910646
    One-Electron Energy =               -2042.7446953970054437
    Two-Electron Energy =                 838.7965000375060072
    Total Energy =                       -569.6738222636082583
  Basis Set: (AUG-CC-PVTZ AUX)
    Blend: AUG-CC-PVTZ-RI
    Molecular point group: c1

    Geometry (in Angstrom), charge = 0, multiplicity = 1:

       Center              X                  Y                   Z               Mass
    ------------   -----------------  -----------------  -----------------  -----------------
         O           -0.114800881023    -1.801718483652     0.455703224883    15.994914619570
         O            0.358398118977     1.392558516348    -1.023847775117    15.994914619570
         O           -1.955186881023     1.369900516348     0.469913224883    15.994914619570
         O            2.714784118977     0.449153516348    -0.204836775117    15.994914619570
         O           -1.671661881023    -0.801651483652    -0.997654775117    15.994914619570
         C            0.431560118977     1.012126516348     0.350577224883    12.000000000000
         C           -0.909362881023     0.472849516348     0.840900224883    12.000000000000
         C            1.534479118977    -0.030319483652     0.421233224883    12.000000000000
         C           -1.208393481023    -0.930217083652     0.333799524883    12.000000000000
         C            1.048543718977    -1.307951983652    -0.231452375117    12.000000000000
         H            0.704225118977     1.886027516348     0.961418224883     1.007825032230
         H           -0.881913881023     0.430844516348     1.936167224883     1.007825032230
         H            1.783745118977    -0.233056483652     1.468870224883     1.007825032230
         H           -1.993982881023    -1.398289483652     0.962602224883     1.007825032230
         H            0.843571118977    -1.148961483652    -1.289137775117     1.007825032230
         H            1.805883118977    -2.102813483652    -0.125682775117     1.007825032230
         H           -0.393082881023     2.010690516348    -1.082839775117     1.007825032230
         H           -2.341738881023     0.975271516348    -0.339243775117     1.007825032230
         H            2.399669118977     0.933870516348    -0.991972775117     1.007825032230
         H           -1.995672881023    -1.677685483652    -1.277664775117     1.007825032230

  Basis Set: AUG-CC-PVTZ
    Blend: AUG-CC-PVTZ
  Basis Set: (AUG-CC-PVTZ AUX)
    Blend: AUG-CC-PVTZ-JKFIT
	 Reference Energy          =    -569.6738222636082583 [Eh]
	 Singles Energy            =      -0.0000000000000000 [Eh]
	 Same-Spin Energy          =      -0.5547981154786672 [Eh]
	 Opposite-Spin Energy      =      -1.7041173736555852 [Eh]
	 Correlation Energy        =      -2.2589154891342522 [Eh]
	 Total Energy              =    -571.9327377527424687 [Eh]

	 ================> DF-SCS-MP2 Energies <==================
	-----------------------------------------------------------
	 SCS Same-Spin Scale       =       0.3333333333333333 [-]
	 SCS Opposite-Spin Scale   =       1.2000000000000000 [-]
	 SCS Same-Spin Energy      =      -0.1849327051595557 [Eh]
	 SCS Opposite-Spin Energy  =      -2.0449408483867022 [Eh]
	 SCS Correlation Energy    =      -2.2298735535462582 [Eh]
	 SCS Total Energy          =    -571.9036958171544711 [Eh]
	-----------------------------------------------------------

  Dipole Moment: [D]
     X:    -2.1798      Y:    -0.9685      Z:    -0.3250     Total:     2.4074

*** Psi4 exiting successfully. Buy a developer a beer!
