                               Psi4 1.3.2 release

  ==> Input File <==

--------------------------------------------------------------------------
#psi4
#
memory 32 gb

molecule  {
0 1
  O       -0.1147700    -1.8002930     0.4548730
  O        0.3584290     1.3939840    -1.0246780
  O       -1.9551560     1.3713260     0.4690830
  O        2.7148150     0.4505790    -0.2056670
  O       -1.6625688    -0.7266965    -0.9920253
  C        0.4315910     1.0135520     0.3497470
  C       -0.9318058     0.5022346     0.7685822
  C        1.5345100    -0.0288940     0.4204030
  C       -1.2151430    -0.9364420     0.3397180
  C        1.0549700    -1.3167000    -0.2286510
  H        0.7042560     1.8874530     0.9605880
  H       -0.8818830     0.4322700     1.9353370
  H        1.7837760    -0.2316310     1.4680400
  H       -1.9939520    -1.3968640     0.9617720
  H        0.8436020    -1.1475360    -1.2899680
  H        1.8059140    -2.1013880    -0.1265130
  H       -0.3930520     2.0121160    -1.0836700
  H       -2.3417080     0.9766970    -0.3400740
  H        2.3997000     0.9352960    -0.9928030
  H       -1.9956420    -1.6762600    -1.2784950
units angstrom
no_reorient  #important for SAPT in psi4, default
symmetry c1  #important for SAPT in psi4, default
}

set PROPERTIES_ORIGIN ["COM"]
properties('MP2/aug-cc-pvtz', properties = ['dipole'])
--------------------------------------------------------------------------

    Molecular point group: c1
  Charge       = 0
  Multiplicity = 1
  Basis Set: AUG-CC-PVTZ
    Blend: AUG-CC-PVTZ
  Basis Set: (AUG-CC-PVTZ AUX)
    Blend: AUG-CC-PVTZ-JKFIT

    Orbital Energies [Eh]
    ---------------------

    Doubly Occupied:

       1A    -20.599638     2A    -20.583792     3A    -20.578607
       4A    -20.568288     5A    -20.558747     6A    -11.353193
       7A    -11.297557     8A    -11.288814     9A    -11.285933
      10A    -11.278888    11A     -1.440138    12A     -1.399526
      13A     -1.382358    14A     -1.351531    15A     -1.348658
      16A     -1.056129    17A     -1.018912    18A     -0.896430
      19A     -0.868788    20A     -0.793019    21A     -0.755161
      22A     -0.722747    23A     -0.714555    24A     -0.697283
      25A     -0.670808    26A     -0.644162    27A     -0.622273
      28A     -0.616530    29A     -0.601737    30A     -0.587690
      31A     -0.571717    32A     -0.554799    33A     -0.543824
      34A     -0.512019    35A     -0.503706    36A     -0.492283
      37A     -0.477440    38A     -0.471838    39A     -0.436806
      40A     -0.414895

  @DF-RHF Final Energy:  -569.65493872360685

   => Energetics <=

    Nuclear Repulsion Energy =            635.4497947319295008
    One-Electron Energy =               -2045.0870230306768462
    Two-Electron Energy =                 839.9822895751403848
    Total Energy =                       -569.6549387236068469
  Basis Set: (AUG-CC-PVTZ AUX)
    Blend: AUG-CC-PVTZ-RI
    Molecular point group: c1

    Geometry (in Angstrom), charge = 0, multiplicity = 1:

       Center              X                  Y                   Z               Mass
    ------------   -----------------  -----------------  -----------------  -----------------
         O           -0.113938808042    -1.810366947872     0.459901530758    15.994914619570
         O            0.359260191958     1.383910052128    -1.019649469242    15.994914619570
         O           -1.954324808042     1.361252052128     0.474111530758    15.994914619570
         O            2.715646191958     0.440505052128    -0.200638469242    15.994914619570
         O           -1.661737608042    -0.736770447872    -0.986996769242    15.994914619570
         C            0.432422191958     1.003478052128     0.354775530758    12.000000000000
         C           -0.930974608042     0.492160652128     0.773610730758    12.000000000000
         C            1.535341191958    -0.038967947872     0.425431530758    12.000000000000
         C           -1.214311808042    -0.946515947872     0.344746530758    12.000000000000
         C            1.055801191958    -1.326773947872    -0.223622469242    12.000000000000
         H            0.705087191958     1.877379052128     0.965616530758     1.007825032230
         H           -0.881051808042     0.422196052128     1.940365530758     1.007825032230
         H            1.784607191958    -0.241704947872     1.473068530758     1.007825032230
         H           -1.993120808042    -1.406937947872     0.966800530758     1.007825032230
         H            0.844433191958    -1.157609947872    -1.284939469242     1.007825032230
         H            1.806745191958    -2.111461947872    -0.121484469242     1.007825032230
         H           -0.392220808042     2.002042052128    -1.078641469242     1.007825032230
         H           -2.340876808042     0.966623052128    -0.335045469242     1.007825032230
         H            2.400531191958     0.925222052128    -0.987774469242     1.007825032230
         H           -1.994810808042    -1.686333947872    -1.273466469242     1.007825032230

  Basis Set: AUG-CC-PVTZ
    Blend: AUG-CC-PVTZ
  Basis Set: (AUG-CC-PVTZ AUX)
    Blend: AUG-CC-PVTZ-JKFIT
	 Reference Energy          =    -569.6549387236068469 [Eh]
	 Singles Energy            =      -0.0000000000000000 [Eh]
	 Same-Spin Energy          =      -0.5566216211755732 [Eh]
	 Opposite-Spin Energy      =      -1.7076025820011620 [Eh]
	 Correlation Energy        =      -2.2642242031767355 [Eh]
	 Total Energy              =    -571.9191629267835424 [Eh]

	 ================> DF-SCS-MP2 Energies <==================
	-----------------------------------------------------------
	 SCS Same-Spin Scale       =       0.3333333333333333 [-]
	 SCS Opposite-Spin Scale   =       1.2000000000000000 [-]
	 SCS Same-Spin Energy      =      -0.1855405403918577 [Eh]
	 SCS Opposite-Spin Energy  =      -2.0491230984013944 [Eh]
	 SCS Correlation Energy    =      -2.2346636387932524 [Eh]
	 SCS Total Energy          =    -571.8896023624000691 [Eh]
	-----------------------------------------------------------

  Dipole Moment: [D]
     X:    -2.2815      Y:    -1.0608      Z:    -0.4807     Total:     2.5616

*** Psi4 exiting successfully. Buy a developer a beer!
