                               Psi4 1.3.2 release

  ==> Input File <==

--------------------------------------------------------------------------
#psi4
#
memory 32 gb

molecule  {
0 1
  O       -0.1147700    -1.8002930     0.4548730
  O        0.3584290     1.3939840    -1.0246780
  O       -1.9551560     1.3713260     0.4690830
  O        2.7148150     0.4505790    -0.2056670
  O       -1.6716310    -0.8002260    -0.9984850
  C        0.4315910     1.0135520     0.3497470
  C       -0.9093320     0.4742750     0.8400700
  C        1.5345100    -0.0288940     0.4204030
  C       -1.2130374    -0.9181415     0.2896753
  C        1.0549700    -1.3167000    -0.2286510
  H        0.7042560     1.8874530     0.9605880
  H       -0.8741766     0.4697518     1.9359127
  H        1.7837760    -0.2316310     1.4680400
  H       -1.9939520    -1.3968640     0.9617720
  H        0.8436020    -1.1475360    -1.2899680
  H        1.8059140    -2.1013880    -0.1265130
  H       -0.3930520     2.0121160    -1.0836700
  H       -2.3417080     0.9766970    -0.3400740
  H        2.3997000     0.9352960    -0.9928030
  H       -1.9956420    -1.6762600    -1.2784950
units angstrom
no_reorient  #important for SAPT in psi4, default
symmetry c1  #important for SAPT in psi4, default
}

set PROPERTIES_ORIGIN ["COM"]
properties('MP2/aug-cc-pvtz', properties = ['dipole'])
--------------------------------------------------------------------------

    Molecular point group: c1
  Charge       = 0
  Multiplicity = 1
  Basis Set: AUG-CC-PVTZ
    Blend: AUG-CC-PVTZ
  Basis Set: (AUG-CC-PVTZ AUX)
    Blend: AUG-CC-PVTZ-JKFIT

    Orbital Energies [Eh]
    ---------------------

    Doubly Occupied:

       1A    -20.599669     2A    -20.578590     3A    -20.574398
       4A    -20.571437     5A    -20.557655     6A    -11.354925
       7A    -11.298049     8A    -11.289803     9A    -11.284793
      10A    -11.276337    11A     -1.448965    12A     -1.392598
      13A     -1.376251    14A     -1.359969    15A     -1.347556
      16A     -1.058569    17A     -1.018981    18A     -0.898965
      19A     -0.867983    20A     -0.802204    21A     -0.754210
      22A     -0.730317    23A     -0.711905    24A     -0.699194
      25A     -0.671230    26A     -0.646761    27A     -0.622803
      28A     -0.612688    29A     -0.604808    30A     -0.586082
      31A     -0.572671    32A     -0.556577    33A     -0.543039
      34A     -0.516694    35A     -0.496934    36A     -0.490700
      37A     -0.490135    38A     -0.471090    39A     -0.437584
      40A     -0.413699

  @DF-RHF Final Energy:  -569.67121576135969

   => Energetics <=

    Nuclear Repulsion Energy =            634.4736995663164407
    One-Electron Energy =               -2043.1161979499358949
    Two-Electron Energy =                 838.9712826222598778
    Total Energy =                       -569.6712157613596901
  Basis Set: (AUG-CC-PVTZ AUX)
    Blend: AUG-CC-PVTZ-RI
    Molecular point group: c1

    Geometry (in Angstrom), charge = 0, multiplicity = 1:

       Center              X                  Y                   Z               Mass
    ------------   -----------------  -----------------  -----------------  -----------------
         O           -0.114990240358    -1.802008343551     0.458871233217    15.994914619570
         O            0.358208759642     1.392268656449    -1.020679766783    15.994914619570
         O           -1.955376240358     1.369610656449     0.473081233217    15.994914619570
         O            2.714594759642     0.448863656449    -0.201668766783    15.994914619570
         O           -1.671851240358    -0.801941343551    -0.994486766783    15.994914619570
         C            0.431370759642     1.011836656449     0.353745233217    12.000000000000
         C           -0.909552240358     0.472559656449     0.844068233217    12.000000000000
         C            1.534289759642    -0.030609343551     0.424401233217    12.000000000000
         C           -1.213257640358    -0.919856843551     0.293673533217    12.000000000000
         C            1.054749759642    -1.318415343551    -0.224652766783    12.000000000000
         H            0.704035759642     1.885737656449     0.964586233217     1.007825032230
         H           -0.874396840358     0.468036456449     1.939910933217     1.007825032230
         H            1.783555759642    -0.233346343551     1.472038233217     1.007825032230
         H           -1.994172240358    -1.398579343551     0.965770233217     1.007825032230
         H            0.843381759642    -1.149251343551    -1.285969766783     1.007825032230
         H            1.805693759642    -2.103103343551    -0.122514766783     1.007825032230
         H           -0.393272240358     2.010400656449    -1.079671766783     1.007825032230
         H           -2.341928240358     0.974981656449    -0.336075766783     1.007825032230
         H            2.399479759642     0.933580656449    -0.988804766783     1.007825032230
         H           -1.995862240358    -1.677975343551    -1.274496766783     1.007825032230

  Basis Set: AUG-CC-PVTZ
    Blend: AUG-CC-PVTZ
  Basis Set: (AUG-CC-PVTZ AUX)
    Blend: AUG-CC-PVTZ-JKFIT
	 Reference Energy          =    -569.6712157613596901 [Eh]
	 Singles Energy            =      -0.0000000000000000 [Eh]
	 Same-Spin Energy          =      -0.5548371857596992 [Eh]
	 Opposite-Spin Energy      =      -1.7039132404680197 [Eh]
	 Correlation Energy        =      -2.2587504262277189 [Eh]
	 Total Energy              =    -571.9299661875874108 [Eh]

	 ================> DF-SCS-MP2 Energies <==================
	-----------------------------------------------------------
	 SCS Same-Spin Scale       =       0.3333333333333333 [-]
	 SCS Opposite-Spin Scale   =       1.2000000000000000 [-]
	 SCS Same-Spin Energy      =      -0.1849457285865664 [Eh]
	 SCS Opposite-Spin Energy  =      -2.0446958885616238 [Eh]
	 SCS Correlation Energy    =      -2.2296416171481903 [Eh]
	 SCS Total Energy          =    -571.9008573785079079 [Eh]
	-----------------------------------------------------------

  Dipole Moment: [D]
     X:    -2.2769      Y:    -0.9466      Z:    -0.5000     Total:     2.5160

*** Psi4 exiting successfully. Buy a developer a beer!
