                               Psi4 1.3.2 release

  ==> Input File <==

--------------------------------------------------------------------------
#psi4
#
memory 32 gb

molecule  {
0 1
  O       -0.1147700    -1.8002930     0.4548730
  O        0.3584290     1.3939840    -1.0246780
  O       -1.9551560     1.3713260     0.4690830
  O        2.7148150     0.4505790    -0.2056670
  O       -1.6716310    -0.8002260    -0.9984850
  C        0.4315910     1.0135520     0.3497470
  C       -0.9093320     0.4742750     0.8400700
  C        1.5345100    -0.0288940     0.4204030
  C       -1.2151430    -0.9364420     0.3397180
  C        1.0549700    -1.3167000    -0.2286510
  H        0.7042560     1.8874530     0.9605880
  H       -0.8818830     0.4322700     1.9353370
  H        1.7837760    -0.2316310     1.4680400
  H       -1.9939520    -1.3968640     0.9617720
  H        0.8436020    -1.1475360    -1.2899680
  H        1.8059140    -2.1013880    -0.1265130
  H       -0.2388750     1.8852974    -1.0715670
  H       -2.3417080     0.9766970    -0.3400740
  H        2.3997000     0.9352960    -0.9928030
  H       -1.9956420    -1.6762600    -1.2784950
units angstrom
no_reorient  #important for SAPT in psi4, default
symmetry c1  #important for SAPT in psi4, default
}

set PROPERTIES_ORIGIN ["COM"]
properties('MP2/aug-cc-pvtz', properties = ['dipole'])
--------------------------------------------------------------------------

    Molecular point group: c1
  Charge       = 0
  Multiplicity = 1
  Basis Set: AUG-CC-PVTZ
    Blend: AUG-CC-PVTZ
  Basis Set: (AUG-CC-PVTZ AUX)
    Blend: AUG-CC-PVTZ-JKFIT

    Orbital Energies [Eh]
    ---------------------

    Doubly Occupied:

       1A    -20.592288     2A    -20.581599     3A    -20.573433
       4A    -20.559602     5A    -20.552892     6A    -11.354627
       7A    -11.299555     8A    -11.293930     9A    -11.287095
      10A    -11.279274    11A     -1.448205    12A     -1.431134
      13A     -1.376511    14A     -1.361499    15A     -1.354401
      16A     -1.069487    17A     -1.023945    18A     -0.907662
      19A     -0.871290    20A     -0.817654    21A     -0.757762
      22A     -0.735006    23A     -0.715252    24A     -0.702638
      25A     -0.677248    26A     -0.647366    27A     -0.622566
      28A     -0.618959    29A     -0.608748    30A     -0.586857
      31A     -0.573252    32A     -0.558328    33A     -0.550894
      34A     -0.519142    35A     -0.503899    36A     -0.496014
      37A     -0.488372    38A     -0.474021    39A     -0.442227
      40A     -0.417953

  @DF-RHF Final Energy:  -569.62955840975030

   => Energetics <=

    Nuclear Repulsion Energy =            635.3178410591848433
    One-Electron Energy =               -2044.4296254359846898
    Two-Electron Energy =                 839.4822259670494304
    Total Energy =                       -569.6295584097503024
  Basis Set: (AUG-CC-PVTZ AUX)
    Blend: AUG-CC-PVTZ-RI
    Molecular point group: c1

    Geometry (in Angstrom), charge = 0, multiplicity = 1:

       Center              X                  Y                   Z               Mass
    ------------   -----------------  -----------------  -----------------  -----------------
         O           -0.115805616799    -1.799441300512     0.454791803804    15.994914619570
         O            0.357393383201     1.394835699488    -1.024759196196    15.994914619570
         O           -1.956191616799     1.372177699488     0.469001803804    15.994914619570
         O            2.713779383201     0.451430699488    -0.205748196196    15.994914619570
         O           -1.672666616799    -0.799374300512    -0.998566196196    15.994914619570
         C            0.430555383201     1.014403699488     0.349665803804    12.000000000000
         C           -0.910367616799     0.475126699488     0.839988803804    12.000000000000
         C            1.533474383201    -0.028042300512     0.420321803804    12.000000000000
         C           -1.216178616799    -0.935590300512     0.339636803804    12.000000000000
         C            1.053934383201    -1.315848300512    -0.228732196196    12.000000000000
         H            0.703220383201     1.888304699488     0.960506803804     1.007825032230
         H           -0.882918616799     0.433121699488     1.935255803804     1.007825032230
         H            1.782740383201    -0.230779300512     1.467958803804     1.007825032230
         H           -1.994987616799    -1.396012300512     0.961690803804     1.007825032230
         H            0.842566383201    -1.146684300512    -1.290049196196     1.007825032230
         H            1.804878383201    -2.100536300512    -0.126594196196     1.007825032230
         H           -0.239910616799     1.886149099488    -1.071648196196     1.007825032230
         H           -2.342743616799     0.977548699488    -0.340155196196     1.007825032230
         H            2.398664383201     0.936147699488    -0.992884196196     1.007825032230
         H           -1.996677616799    -1.675408300512    -1.278576196196     1.007825032230

  Basis Set: AUG-CC-PVTZ
    Blend: AUG-CC-PVTZ
  Basis Set: (AUG-CC-PVTZ AUX)
    Blend: AUG-CC-PVTZ-JKFIT
	 Reference Energy          =    -569.6295584097503024 [Eh]
	 Singles Energy            =      -0.0000000000000000 [Eh]
	 Same-Spin Energy          =      -0.5519762222297266 [Eh]
	 Opposite-Spin Energy      =      -1.6981563339146453 [Eh]
	 Correlation Energy        =      -2.2501325561443721 [Eh]
	 Total Energy              =    -571.8796909658947243 [Eh]

	 ================> DF-SCS-MP2 Energies <==================
	-----------------------------------------------------------
	 SCS Same-Spin Scale       =       0.3333333333333333 [-]
	 SCS Opposite-Spin Scale   =       1.2000000000000000 [-]
	 SCS Same-Spin Energy      =      -0.1839920740765755 [Eh]
	 SCS Opposite-Spin Energy  =      -2.0377876006975741 [Eh]
	 SCS Correlation Energy    =      -2.2217796747741496 [Eh]
	 SCS Total Energy          =    -571.8513380845244001 [Eh]
	-----------------------------------------------------------

  Dipole Moment: [D]
     X:    -2.0190      Y:    -1.1326      Z:    -0.2459     Total:     2.3280

*** Psi4 exiting successfully. Buy a developer a beer!
