                               Psi4 1.4a3.dev225

  ==> Input File <==

--------------------------------------------------------------------------
#psi4
#
memory 32 gb

molecule  {
0 1
  O       -0.2343850     1.7978400    -0.4145210
  O        0.4791390    -1.3900560     0.9851260
  O       -1.8902550    -1.4798720    -0.4079610
  O        2.7489250    -0.2990660     0.0843650
  O       -1.6766260     0.6849030     1.0797040
  C        0.4758930    -0.9871420    -0.3839460
  C       -0.8698381    -0.5314307    -0.7973025
  C        1.5148540     0.1205520    -0.4811210
  C       -1.2794180     0.8705190    -0.2725550
  C        0.9914930     1.3693070     0.2124490
  H        0.7732420    -1.8350180    -1.0199460
  H       -0.9367810    -0.4539690    -1.9062570
  H        1.7061480     0.3550680    -1.5342930
  H       -2.1075740     1.2945610    -0.8542440
  H        0.8333730     1.1741050     1.2776920
  H        1.6908660     2.1982840     0.0933200
  H       -0.2684360    -2.0097880     1.0741120
  H       -2.2907410    -1.1048270     0.4011470
  H        2.5001980    -0.8049050     0.8819700
  H       -2.0397460     1.5332780     1.3914430
units angstrom
no_reorient  #important for SAPT in psi4, default
symmetry c1  #important for SAPT in psi4, default
}

set PROPERTIES_ORIGIN ["COM"]
properties('MP2/aug-cc-pvtz', properties = ['dipole'])
--------------------------------------------------------------------------

    Molecular point group: c1
  Charge       = 0
  Multiplicity = 1
  Basis Set: AUG-CC-PVTZ
    Blend: AUG-CC-PVTZ
  Basis Set: (AUG-CC-PVTZ AUX)
    Blend: AUG-CC-PVTZ-JKFIT

    Orbital Energies [Eh]
    ---------------------

    Doubly Occupied:

       1A    -20.591492     2A    -20.580510     3A    -20.573017
       4A    -20.570850     5A    -20.559766     6A    -11.356087
       7A    -11.300533     8A    -11.290655     9A    -11.287782
      10A    -11.279446    11A     -1.437356    12A     -1.391426
      13A     -1.372554    14A     -1.352811    15A     -1.346933
      16A     -1.065350    17A     -1.021025    18A     -0.898452
      19A     -0.872264    20A     -0.797225    21A     -0.751769
      22A     -0.728866    23A     -0.711416    24A     -0.695217
      25A     -0.670343    26A     -0.646492    27A     -0.621272
      28A     -0.615471    29A     -0.600829    30A     -0.582297
      31A     -0.572455    32A     -0.555560    33A     -0.542046
      34A     -0.513417    35A     -0.502511    36A     -0.490261
      37A     -0.485898    38A     -0.471190    39A     -0.449832
      40A     -0.415468

  @DF-RHF Final Energy:  -569.67126160669113

   => Energetics <=

    Nuclear Repulsion Energy =            633.5761799119135276
    One-Electron Energy =               -2041.3585931889074345
    Two-Electron Energy =                 838.1111516703026609
    Total Energy =                       -569.6712616066911323
  Basis Set: (AUG-CC-PVTZ AUX)
    Blend: AUG-CC-PVTZ-RI
    Molecular point group: c1

    Geometry (in Angstrom), charge = 0, multiplicity = 1:

       Center              X                  Y                   Z               Mass
    ------------   -----------------  -----------------  -----------------  -----------------
         O           -0.238963038094     1.801341166493    -0.416882653930    15.994914619570
         O            0.474560961906    -1.386554833507     0.982764346070    15.994914619570
         O           -1.894833038094    -1.476370833507    -0.410322653930    15.994914619570
         O            2.744346961906    -0.295564833507     0.082003346070    15.994914619570
         O           -1.681204038094     0.688404166493     1.077342346070    15.994914619570
         C            0.471314961906    -0.983640833507    -0.386307653930    12.000000000000
         C           -0.874416138094    -0.527929533507    -0.799664153930    12.000000000000
         C            1.510275961906     0.124053166493    -0.483482653930    12.000000000000
         C           -1.283996038094     0.874020166493    -0.274916653930    12.000000000000
         C            0.986914961906     1.372808166493     0.210087346070    12.000000000000
         H            0.768663961906    -1.831516833507    -1.022307653930     1.007825032230
         H           -0.941359038094    -0.450467833507    -1.908618653930     1.007825032230
         H            1.701569961906     0.358569166493    -1.536654653930     1.007825032230
         H           -2.112152038094     1.298062166493    -0.856605653930     1.007825032230
         H            0.828794961906     1.177606166493     1.275330346070     1.007825032230
         H            1.686287961906     2.201785166493     0.090958346070     1.007825032230
         H           -0.273014038094    -2.006286833507     1.071750346070     1.007825032230
         H           -2.295319038094    -1.101325833507     0.398785346070     1.007825032230
         H            2.495619961906    -0.801403833507     0.879608346070     1.007825032230
         H           -2.044324038094     1.536779166493     1.389081346070     1.007825032230

  Basis Set: AUG-CC-PVTZ
    Blend: AUG-CC-PVTZ
  Basis Set: (AUG-CC-PVTZ AUX)
    Blend: AUG-CC-PVTZ-JKFIT
	 Reference Energy          =    -569.6712616066911323 [Eh]
	 Singles Energy            =      -0.0000000000000000 [Eh]
	 Same-Spin Energy          =      -0.5548394729051688 [Eh]
	 Opposite-Spin Energy      =      -1.7046057727412169 [Eh]
	 Correlation Energy        =      -2.2594452456463858 [Eh]
	 Total Energy              =    -571.9307068523374937 [Eh]

	 ================> DF-SCS-MP2 Energies <==================
	-----------------------------------------------------------
	 SCS Same-Spin Scale       =       0.3333333333333333 [-]
	 SCS Opposite-Spin Scale   =       1.2000000000000000 [-]
	 SCS Same-Spin Energy      =      -0.1849464909683896 [Eh]
	 SCS Opposite-Spin Energy  =      -2.0455269272894601 [Eh]
	 SCS Correlation Energy    =      -2.2304734182578496 [Eh]
	 SCS Total Energy          =    -571.9017350249489482 [Eh]
	-----------------------------------------------------------

  Dipole Moment: [D]
     X:    -2.2001      Y:     0.9974      Z:     0.4033     Total:     2.4491

*** Psi4 exiting successfully. Buy a developer a beer!
