                               Psi4 1.3.2 release

  ==> Input File <==

--------------------------------------------------------------------------
#psi4
#
memory 32 gb

molecule  {
0 1
  O       -0.1147700    -1.8002930     0.4548730
  O        0.3584290     1.3939840    -1.0246780
  O       -1.9551560     1.3713260     0.4690830
  O        2.7148150     0.4505790    -0.2056670
  O       -1.6657271    -0.7511524    -0.9945852
  C        0.4315910     1.0135520     0.3497470
  C       -0.9242251     0.4933493     0.7925518
  C        1.5345100    -0.0288940     0.4204030
  C       -1.2151430    -0.9364420     0.3397180
  C        1.0549700    -1.3167000    -0.2286510
  H        0.7042560     1.8874530     0.9605880
  H       -0.8818830     0.4322700     1.9353370
  H        1.7837760    -0.2316310     1.4680400
  H       -1.9939520    -1.3968640     0.9617720
  H        0.8436020    -1.1475360    -1.2899680
  H        1.8059140    -2.1013880    -0.1265130
  H       -0.3930520     2.0121160    -1.0836700
  H       -2.3417080     0.9766970    -0.3400740
  H        2.3997000     0.9352960    -0.9928030
  H       -1.9956420    -1.6762600    -1.2784950
units angstrom
no_reorient  #important for SAPT in psi4, default
symmetry c1  #important for SAPT in psi4, default
}

set PROPERTIES_ORIGIN ["COM"]
properties('MP2/aug-cc-pvtz', properties = ['dipole'])
--------------------------------------------------------------------------

    Molecular point group: c1
  Charge       = 0
  Multiplicity = 1
  Basis Set: AUG-CC-PVTZ
    Blend: AUG-CC-PVTZ
  Basis Set: (AUG-CC-PVTZ AUX)
    Blend: AUG-CC-PVTZ-JKFIT

    Orbital Energies [Eh]
    ---------------------

    Doubly Occupied:

       1A    -20.596992     2A    -20.582724     3A    -20.577247
       4A    -20.569214     5A    -20.558564     6A    -11.353226
       7A    -11.297539     8A    -11.289411     9A    -11.285818
      10A    -11.278606    11A     -1.439038    12A     -1.395821
      13A     -1.380909    14A     -1.352174    15A     -1.348552
      16A     -1.057059    17A     -1.020199    18A     -0.897116
      19A     -0.868939    20A     -0.794366    21A     -0.753762
      22A     -0.724174    23A     -0.713696    24A     -0.697149
      25A     -0.670184    26A     -0.644850    27A     -0.621456
      28A     -0.615743    29A     -0.601942    30A     -0.586588
      31A     -0.571619    32A     -0.555497    33A     -0.543048
      34A     -0.513229    35A     -0.503245    36A     -0.491807
      37A     -0.481537    38A     -0.472185    39A     -0.438705
      40A     -0.415272

  @DF-RHF Final Energy:  -569.66433870397282

   => Energetics <=

    Nuclear Repulsion Energy =            634.8940329483125424
    One-Electron Energy =               -2043.9983357661542414
    Two-Electron Energy =                 839.4399641138688821
    Total Energy =                       -569.6643387039728168
  Basis Set: (AUG-CC-PVTZ AUX)
    Blend: AUG-CC-PVTZ-RI
    Molecular point group: c1

    Geometry (in Angstrom), charge = 0, multiplicity = 1:

       Center              X                  Y                   Z               Mass
    ------------   -----------------  -----------------  -----------------  -----------------
         O           -0.114208390848    -1.807049491918     0.458257510922    15.994914619570
         O            0.358990609152     1.387227508082    -1.021293489078    15.994914619570
         O           -1.954594390848     1.364569508082     0.472467510922    15.994914619570
         O            2.715376609152     0.443822508082    -0.202282489078    15.994914619570
         O           -1.665165490848    -0.757908891918    -0.991200689078    15.994914619570
         C            0.432152609152     1.006795508082     0.353131510922    12.000000000000
         C           -0.923663490848     0.486592808082     0.795936310922    12.000000000000
         C            1.535071609152    -0.035650491918     0.423787510922    12.000000000000
         C           -1.214581390848    -0.943198491918     0.343102510922    12.000000000000
         C            1.055531609152    -1.323456491918    -0.225266489078    12.000000000000
         H            0.704817609152     1.880696508082     0.963972510922     1.007825032230
         H           -0.881321390848     0.425513508082     1.938721510922     1.007825032230
         H            1.784337609152    -0.238387491918     1.471424510922     1.007825032230
         H           -1.993390390848    -1.403620491918     0.965156510922     1.007825032230
         H            0.844163609152    -1.154292491918    -1.286583489078     1.007825032230
         H            1.806475609152    -2.108144491918    -0.123128489078     1.007825032230
         H           -0.392490390848     2.005359508082    -1.080285489078     1.007825032230
         H           -2.341146390848     0.969940508082    -0.336689489078     1.007825032230
         H            2.400261609152     0.928539508082    -0.989418489078     1.007825032230
         H           -1.995080390848    -1.683016491918    -1.275110489078     1.007825032230

  Basis Set: AUG-CC-PVTZ
    Blend: AUG-CC-PVTZ
  Basis Set: (AUG-CC-PVTZ AUX)
    Blend: AUG-CC-PVTZ-JKFIT
	 Reference Energy          =    -569.6643387039728168 [Eh]
	 Singles Energy            =      -0.0000000000000000 [Eh]
	 Same-Spin Energy          =      -0.5558868031002477 [Eh]
	 Opposite-Spin Energy      =      -1.7062069287581680 [Eh]
	 Correlation Energy        =      -2.2620937318584158 [Eh]
	 Total Energy              =    -571.9264324358312024 [Eh]

	 ================> DF-SCS-MP2 Energies <==================
	-----------------------------------------------------------
	 SCS Same-Spin Scale       =       0.3333333333333333 [-]
	 SCS Opposite-Spin Scale   =       1.2000000000000000 [-]
	 SCS Same-Spin Energy      =      -0.1852956010334159 [Eh]
	 SCS Opposite-Spin Energy  =      -2.0474483145098015 [Eh]
	 SCS Correlation Energy    =      -2.2327439155432174 [Eh]
	 SCS Total Energy          =    -571.8970826195160271 [Eh]
	-----------------------------------------------------------

  Dipole Moment: [D]
     X:    -2.2491      Y:    -1.0398      Z:    -0.4166     Total:     2.5126

*** Psi4 exiting successfully. Buy a developer a beer!
