                               Psi4 1.3.2 release

  ==> Input File <==

--------------------------------------------------------------------------
#psi4
#
memory 32 gb

molecule  {
0 1
  O       -0.1147700    -1.8002930     0.4548730
  O        0.3584290     1.3939840    -1.0246780
  O       -1.9551560     1.3713260     0.4690830
  O        2.7148150     0.4505790    -0.2056670
  O       -1.6716310    -0.8002260    -0.9984850
  C        0.4315910     1.0135520     0.3497470
  C       -0.9093320     0.4742750     0.8400700
  C        1.5345100    -0.0288940     0.4204030
  C       -1.2151430    -0.9364420     0.3397180
  C        1.0549700    -1.3167000    -0.2286510
  H        0.7042560     1.8874530     0.9605880
  H       -0.8818830     0.4322700     1.9353370
  H        1.7837760    -0.2316310     1.4680400
  H       -2.1358187    -1.4807338     1.0750844
  H        0.8436020    -1.1475360    -1.2899680
  H        1.8059140    -2.1013880    -0.1265130
  H       -0.3930520     2.0121160    -1.0836700
  H       -2.3417080     0.9766970    -0.3400740
  H        2.3997000     0.9352960    -0.9928030
  H       -1.9956420    -1.6762600    -1.2784950
units angstrom
no_reorient  #important for SAPT in psi4, default
symmetry c1  #important for SAPT in psi4, default
}

set PROPERTIES_ORIGIN ["COM"]
properties('MP2/aug-cc-pvtz', properties = ['dipole'])
--------------------------------------------------------------------------

    Molecular point group: c1
  Charge       = 0
  Multiplicity = 1
  Basis Set: AUG-CC-PVTZ
    Blend: AUG-CC-PVTZ
  Basis Set: (AUG-CC-PVTZ AUX)
    Blend: AUG-CC-PVTZ-JKFIT

    Orbital Energies [Eh]
    ---------------------

    Doubly Occupied:

       1A    -20.595545     2A    -20.583810     3A    -20.575012
       4A    -20.572440     5A    -20.559441     6A    -11.376213
       7A    -11.300557     8A    -11.292762     9A    -11.287021
      10A    -11.280212    11A     -1.440331    12A     -1.392712
      13A     -1.377036    14A     -1.356184    15A     -1.348869
      16A     -1.060606    17A     -1.019156    18A     -0.897685
      19A     -0.865070    20A     -0.799931    21A     -0.744219
      22A     -0.726096    23A     -0.707731    24A     -0.693017
      25A     -0.670829    26A     -0.645609    27A     -0.622539
      28A     -0.615141    29A     -0.604213    30A     -0.585366
      31A     -0.565790    32A     -0.557558    33A     -0.543804
      34A     -0.516992    35A     -0.496420    36A     -0.489364
      37A     -0.487421    38A     -0.470226    39A     -0.438825
      40A     -0.415599

  @DF-RHF Final Energy:  -569.65355604392369

   => Energetics <=

    Nuclear Repulsion Energy =            632.6718916536333381
    One-Electron Energy =               -2039.4961939629242806
    Two-Electron Energy =                 837.1707462653672565
    Total Energy =                       -569.6535560439236860
  Basis Set: (AUG-CC-PVTZ AUX)
    Blend: AUG-CC-PVTZ-RI
    Molecular point group: c1

    Geometry (in Angstrom), charge = 0, multiplicity = 1:

       Center              X                  Y                   Z               Mass
    ------------   -----------------  -----------------  -----------------  -----------------
         O           -0.113817248672    -1.799729764765     0.454112034077    15.994914619570
         O            0.359381751328     1.394547235235    -1.025438965923    15.994914619570
         O           -1.954203248672     1.371889235235     0.468322034077    15.994914619570
         O            2.715767751328     0.451142235235    -0.206427965923    15.994914619570
         O           -1.670678248672    -0.799662764765    -0.999245965923    15.994914619570
         C            0.432543751328     1.014115235235     0.348986034077    12.000000000000
         C           -0.908379248672     0.474838235235     0.839309034077    12.000000000000
         C            1.535462751328    -0.028330764765     0.419642034077    12.000000000000
         C           -1.214190248672    -0.935878764765     0.338957034077    12.000000000000
         C            1.055922751328    -1.316136764765    -0.229411965923    12.000000000000
         H            0.705208751328     1.888016235235     0.959827034077     1.007825032230
         H           -0.880930248672     0.432833235235     1.934576034077     1.007825032230
         H            1.784728751328    -0.231067764765     1.467279034077     1.007825032230
         H           -2.134865948672    -1.480170564765     1.074323434077     1.007825032230
         H            0.844554751328    -1.146972764765    -1.290728965923     1.007825032230
         H            1.806866751328    -2.100824764765    -0.127273965923     1.007825032230
         H           -0.392099248672     2.012679235235    -1.084430965923     1.007825032230
         H           -2.340755248672     0.977260235235    -0.340834965923     1.007825032230
         H            2.400652751328     0.935859235235    -0.993563965923     1.007825032230
         H           -1.994689248672    -1.675696764765    -1.279255965923     1.007825032230

  Basis Set: AUG-CC-PVTZ
    Blend: AUG-CC-PVTZ
  Basis Set: (AUG-CC-PVTZ AUX)
    Blend: AUG-CC-PVTZ-JKFIT
	 Reference Energy          =    -569.6535560439236860 [Eh]
	 Singles Energy            =      -0.0000000000000000 [Eh]
	 Same-Spin Energy          =      -0.5551747320591225 [Eh]
	 Opposite-Spin Energy      =      -1.7061094510178951 [Eh]
	 Correlation Energy        =      -2.2612841830770174 [Eh]
	 Total Energy              =    -571.9148402270006954 [Eh]

	 ================> DF-SCS-MP2 Energies <==================
	-----------------------------------------------------------
	 SCS Same-Spin Scale       =       0.3333333333333333 [-]
	 SCS Opposite-Spin Scale   =       1.2000000000000000 [-]
	 SCS Same-Spin Energy      =      -0.1850582440197075 [Eh]
	 SCS Opposite-Spin Energy  =      -2.0473313412214740 [Eh]
	 SCS Correlation Energy    =      -2.2323895852411813 [Eh]
	 SCS Total Energy          =    -571.8859456291648939 [Eh]
	-----------------------------------------------------------

  Dipole Moment: [D]
     X:    -2.0423      Y:    -0.9269      Z:    -0.4165     Total:     2.2812

*** Psi4 exiting successfully. Buy a developer a beer!
