                               Psi4 1.3.2 release

  ==> Input File <==

--------------------------------------------------------------------------
#psi4
#
memory 32 gb

molecule  {
0 1
  O       -0.1147700    -1.8002930     0.4548730
  O        0.3584290     1.3939840    -1.0246780
  O       -1.9551560     1.3713260     0.4690830
  O        2.7148150     0.4505790    -0.2056670
  O       -1.6716310    -0.8002260    -0.9984850
  C        0.4315910     1.0135520     0.3497470
  C       -0.9093320     0.4742750     0.8400700
  C        1.5345100    -0.0288940     0.4204030
  C       -1.2151430    -0.9364420     0.3397180
  C        1.0549700    -1.3167000    -0.2286510
  H        0.7042560     1.8874530     0.9605880
  H       -0.8818830     0.4322700     1.9353370
  H        1.7837760    -0.2316310     1.4680400
  H       -1.9939520    -1.3968640     0.9617720
  H        0.8243043    -1.1320915    -1.3868652
  H        1.8059140    -2.1013880    -0.1265130
  H       -0.3930520     2.0121160    -1.0836700
  H       -2.3417080     0.9766970    -0.3400740
  H        2.3997000     0.9352960    -0.9928030
  H       -1.9956420    -1.6762600    -1.2784950
units angstrom
no_reorient  #important for SAPT in psi4, default
symmetry c1  #important for SAPT in psi4, default
}

set PROPERTIES_ORIGIN ["COM"]
properties('MP2/aug-cc-pvtz', properties = ['dipole'])
--------------------------------------------------------------------------

    Molecular point group: c1
  Charge       = 0
  Multiplicity = 1
  Basis Set: AUG-CC-PVTZ
    Blend: AUG-CC-PVTZ
  Basis Set: (AUG-CC-PVTZ AUX)
    Blend: AUG-CC-PVTZ-JKFIT

    Orbital Energies [Eh]
    ---------------------

    Doubly Occupied:

       1A    -20.591486     2A    -20.582440     3A    -20.574779
       4A    -20.570941     5A    -20.558224     6A    -11.354301
       7A    -11.298619     8A    -11.291236     9A    -11.288982
      10A    -11.286690    11A     -1.439069    12A     -1.391505
      13A     -1.375877    14A     -1.354254    15A     -1.347669
      16A     -1.059090    17A     -1.020840    18A     -0.895817
      19A     -0.869562    20A     -0.796218    21A     -0.749662
      22A     -0.727514    23A     -0.710255    24A     -0.696021
      25A     -0.669766    26A     -0.642284    27A     -0.621275
      28A     -0.613041    29A     -0.602980    30A     -0.585056
      31A     -0.567799    32A     -0.555333    33A     -0.542880
      34A     -0.516426    35A     -0.502705    36A     -0.489558
      37A     -0.487051    38A     -0.465851    39A     -0.440775
      40A     -0.415526

  @DF-RHF Final Energy:  -569.66747602642613

   => Energetics <=

    Nuclear Repulsion Energy =            633.3627055119770830
    One-Electron Energy =               -2040.9616464634548265
    Two-Electron Energy =                 837.9314649250516140
    Total Energy =                       -569.6674760264261295
  Basis Set: (AUG-CC-PVTZ AUX)
    Blend: AUG-CC-PVTZ-RI
    Molecular point group: c1

    Geometry (in Angstrom), charge = 0, multiplicity = 1:

       Center              X                  Y                   Z               Mass
    ------------   -----------------  -----------------  -----------------  -----------------
         O           -0.114640479475    -1.800396806113     0.455523900192    15.994914619570
         O            0.358558520525     1.393880193887    -1.024027099808    15.994914619570
         O           -1.955026479475     1.371222193887     0.469733900192    15.994914619570
         O            2.714944520525     0.450475193887    -0.205016099808    15.994914619570
         O           -1.671501479475    -0.800329806113    -0.997834099808    15.994914619570
         C            0.431720520525     1.013448193887     0.350397900192    12.000000000000
         C           -0.909202479475     0.474171193887     0.840720900192    12.000000000000
         C            1.534639520525    -0.028997806113     0.421053900192    12.000000000000
         C           -1.215013479475    -0.936545806113     0.340368900192    12.000000000000
         C            1.055099520525    -1.316803806113    -0.228000099808    12.000000000000
         H            0.704385520525     1.887349193887     0.961238900192     1.007825032230
         H           -0.881753479475     0.432166193887     1.935987900192     1.007825032230
         H            1.783905520525    -0.231734806113     1.468690900192     1.007825032230
         H           -1.993822479475    -1.396967806113     0.962422900192     1.007825032230
         H            0.824433820525    -1.132195306113    -1.386214299808     1.007825032230
         H            1.806043520525    -2.101491806113    -0.125862099808     1.007825032230
         H           -0.392922479475     2.012012193887    -1.083019099808     1.007825032230
         H           -2.341578479475     0.976593193887    -0.339423099808     1.007825032230
         H            2.399829520525     0.935192193887    -0.992152099808     1.007825032230
         H           -1.995512479475    -1.676363806113    -1.277844099808     1.007825032230

  Basis Set: AUG-CC-PVTZ
    Blend: AUG-CC-PVTZ
  Basis Set: (AUG-CC-PVTZ AUX)
    Blend: AUG-CC-PVTZ-JKFIT
	 Reference Energy          =    -569.6674760264261295 [Eh]
	 Singles Energy            =      -0.0000000000000000 [Eh]
	 Same-Spin Energy          =      -0.5549364818452545 [Eh]
	 Opposite-Spin Energy      =      -1.7049786464871894 [Eh]
	 Correlation Energy        =      -2.2599151283324437 [Eh]
	 Total Energy              =    -571.9273911547585385 [Eh]

	 ================> DF-SCS-MP2 Energies <==================
	-----------------------------------------------------------
	 SCS Same-Spin Scale       =       0.3333333333333333 [-]
	 SCS Opposite-Spin Scale   =       1.2000000000000000 [-]
	 SCS Same-Spin Energy      =      -0.1849788272817515 [Eh]
	 SCS Opposite-Spin Energy  =      -2.0459743757846272 [Eh]
	 SCS Correlation Energy    =      -2.2309532030663788 [Eh]
	 SCS Total Energy          =    -571.8984292294925353 [Eh]
	-----------------------------------------------------------

  Dipole Moment: [D]
     X:    -2.2055      Y:    -0.9870      Z:    -0.2521     Total:     2.4294

*** Psi4 exiting successfully. Buy a developer a beer!
