                               Psi4 1.4a3.dev225

  ==> Input File <==

--------------------------------------------------------------------------
#psi4
#
memory 32 gb

molecule  {
0 1
  O       -0.2343850     1.7978400    -0.4145210
  O        0.4791390    -1.3900560     0.9851260
  O       -1.8902550    -1.4798720    -0.4079610
  O        2.7489250    -0.2990660     0.0843650
  O       -1.6766260     0.6849030     1.0797040
  C        0.4758930    -0.9871420    -0.3839460
  C       -0.9153110    -0.5160320    -0.8112700
  C        1.5148540     0.1205520    -0.4811210
  C       -1.2794180     0.8705190    -0.2725550
  C        0.9914930     1.3693070     0.2124490
  H        0.7732420    -1.8350180    -1.0199460
  H       -0.9367810    -0.4539690    -1.9062570
  H        1.7061480     0.3550680    -1.5342930
  H       -2.1075740     1.2945610    -0.8542440
  H        0.8333730     1.1741050     1.2776920
  H        1.6908660     2.1982840     0.0933200
  H       -0.2684360    -2.0097880     1.0741120
  H       -2.2825478    -1.1124998     0.3845941
  H        2.5001980    -0.8049050     0.8819700
  H       -2.0397460     1.5332780     1.3914430
units angstrom
no_reorient  #important for SAPT in psi4, default
symmetry c1  #important for SAPT in psi4, default
}

set PROPERTIES_ORIGIN ["COM"]
properties('MP2/aug-cc-pvtz', properties = ['dipole'])
--------------------------------------------------------------------------

    Molecular point group: c1
  Charge       = 0
  Multiplicity = 1
  Basis Set: AUG-CC-PVTZ
    Blend: AUG-CC-PVTZ
  Basis Set: (AUG-CC-PVTZ AUX)
    Blend: AUG-CC-PVTZ-JKFIT

    Orbital Energies [Eh]
    ---------------------

    Doubly Occupied:

       1A    -20.591649     2A    -20.581236     3A    -20.574127
       4A    -20.570225     5A    -20.558746     6A    -11.354940
       7A    -11.300002     8A    -11.291408     9A    -11.286364
      10A    -11.278896    11A     -1.438326    12A     -1.392248
      13A     -1.377488    14A     -1.354577    15A     -1.348054
      16A     -1.058546    17A     -1.023091    18A     -0.898662
      19A     -0.871260    20A     -0.798607    21A     -0.752516
      22A     -0.727082    23A     -0.712551    24A     -0.697926
      25A     -0.668145    26A     -0.648241    27A     -0.620770
      28A     -0.614937    29A     -0.601884    30A     -0.584959
      31A     -0.573427    32A     -0.556866    33A     -0.543250
      34A     -0.516126    35A     -0.502893    36A     -0.490828
      37A     -0.488036    38A     -0.471224    39A     -0.441492
      40A     -0.416185

  @DF-RHF Final Energy:  -569.67544516138605

   => Energetics <=

    Nuclear Repulsion Energy =            633.2543034401473960
    One-Electron Energy =               -2040.7039173440186914
    Two-Electron Energy =                 837.7741687424852444
    Total Energy =                       -569.6754451613860510
  Basis Set: (AUG-CC-PVTZ AUX)
    Blend: AUG-CC-PVTZ-RI
    Molecular point group: c1

    Geometry (in Angstrom), charge = 0, multiplicity = 1:

       Center              X                  Y                   Z               Mass
    ------------   -----------------  -----------------  -----------------  -----------------
         O           -0.235381516096     1.800161238278    -0.415654470263    15.994914619570
         O            0.478142483904    -1.387734761722     0.983992529737    15.994914619570
         O           -1.891251516096    -1.477550761722    -0.409094470263    15.994914619570
         O            2.747928483904    -0.296744761722     0.083231529737    15.994914619570
         O           -1.677622516096     0.687224238278     1.078570529737    15.994914619570
         C            0.474896483904    -0.984820761722    -0.385079470263    12.000000000000
         C           -0.916307516096    -0.513710761722    -0.812403470263    12.000000000000
         C            1.513857483904     0.122873238278    -0.482254470263    12.000000000000
         C           -1.280414516096     0.872840238278    -0.273688470263    12.000000000000
         C            0.990496483904     1.371628238278     0.211315529737    12.000000000000
         H            0.772245483904    -1.832696761722    -1.021079470263     1.007825032230
         H           -0.937777516096    -0.451647761722    -1.907390470263     1.007825032230
         H            1.705151483904     0.357389238278    -1.535426470263     1.007825032230
         H           -2.108570516096     1.296882238278    -0.855377470263     1.007825032230
         H            0.832376483904     1.176426238278     1.276558529737     1.007825032230
         H            1.689869483904     2.200605238278     0.092186529737     1.007825032230
         H           -0.269432516096    -2.007466761722     1.072978529737     1.007825032230
         H           -2.283544316096    -1.110178561722     0.383460629737     1.007825032230
         H            2.499201483904    -0.802583761722     0.880836529737     1.007825032230
         H           -2.040742516096     1.535599238278     1.390309529737     1.007825032230

  Basis Set: AUG-CC-PVTZ
    Blend: AUG-CC-PVTZ
  Basis Set: (AUG-CC-PVTZ AUX)
    Blend: AUG-CC-PVTZ-JKFIT
	 Reference Energy          =    -569.6754451613860510 [Eh]
	 Singles Energy            =      -0.0000000000000000 [Eh]
	 Same-Spin Energy          =      -0.5542292802230719 [Eh]
	 Opposite-Spin Energy      =      -1.7033391046694299 [Eh]
	 Correlation Energy        =      -2.2575683848925019 [Eh]
	 Total Energy              =    -571.9330135462785165 [Eh]

	 ================> DF-SCS-MP2 Energies <==================
	-----------------------------------------------------------
	 SCS Same-Spin Scale       =       0.3333333333333333 [-]
	 SCS Opposite-Spin Scale   =       1.2000000000000000 [-]
	 SCS Same-Spin Energy      =      -0.1847430934076906 [Eh]
	 SCS Opposite-Spin Energy  =      -2.0440069256033158 [Eh]
	 SCS Correlation Energy    =      -2.2287500190110063 [Eh]
	 SCS Total Energy          =    -571.9041951803970960 [Eh]
	-----------------------------------------------------------

  Dipole Moment: [D]
     X:    -2.2813      Y:     0.9528      Z:     0.3773     Total:     2.5009

*** Psi4 exiting successfully. Buy a developer a beer!
