                               Psi4 1.3.2 release

  ==> Input File <==

--------------------------------------------------------------------------
#psi4
#
memory 32 gb

molecule  {
0 1
  O       -0.1147700    -1.8002930     0.4548730
  O        0.3584290     1.3939840    -1.0246780
  O       -1.9211454     1.4007321     0.4476537
  O        2.7148150     0.4505790    -0.2056670
  O       -1.6716310    -0.8002260    -0.9984850
  C        0.4061125     1.0555721     0.3291784
  C       -0.9093320     0.4742750     0.8400700
  C        1.5345100    -0.0288940     0.4204030
  C       -1.2151430    -0.9364420     0.3397180
  C        1.0549700    -1.3167000    -0.2286510
  H        0.7042560     1.8874530     0.9605880
  H       -0.8818830     0.4322700     1.9353370
  H        1.7837760    -0.2316310     1.4680400
  H       -1.9939520    -1.3968640     0.9617720
  H        0.8436020    -1.1475360    -1.2899680
  H        1.8059140    -2.1013880    -0.1265130
  H       -0.3930520     2.0121160    -1.0836700
  H       -2.3417080     0.9766970    -0.3400740
  H        2.3997000     0.9352960    -0.9928030
  H       -1.9956420    -1.6762600    -1.2784950
units angstrom
no_reorient  #important for SAPT in psi4, default
symmetry c1  #important for SAPT in psi4, default
}

set PROPERTIES_ORIGIN ["COM"]
properties('MP2/aug-cc-pvtz', properties = ['dipole'])
--------------------------------------------------------------------------

    Molecular point group: c1
  Charge       = 0
  Multiplicity = 1
  Basis Set: AUG-CC-PVTZ
    Blend: AUG-CC-PVTZ
  Basis Set: (AUG-CC-PVTZ AUX)
    Blend: AUG-CC-PVTZ-JKFIT

    Orbital Energies [Eh]
    ---------------------

    Doubly Occupied:

       1A    -20.592298     2A    -20.580620     3A    -20.574188
       4A    -20.573910     5A    -20.556220     6A    -11.354936
       7A    -11.296788     8A    -11.288449     9A    -11.284440
      10A    -11.277141    11A     -1.439021    12A     -1.399240
      13A     -1.374289    14A     -1.353920    15A     -1.349817
      16A     -1.050821    17A     -1.021225    18A     -0.898248
      19A     -0.865798    20A     -0.798036    21A     -0.752108
      22A     -0.729983    23A     -0.713251    24A     -0.693768
      25A     -0.672052    26A     -0.646644    27A     -0.621422
      28A     -0.615909    29A     -0.602282    30A     -0.583633
      31A     -0.570497    32A     -0.555781    33A     -0.548888
      34A     -0.514259    35A     -0.503004    36A     -0.492246
      37A     -0.485928    38A     -0.467084    39A     -0.433685
      40A     -0.414807

  @DF-RHF Final Energy:  -569.67106654901158

   => Energetics <=

    Nuclear Repulsion Energy =            633.8551332670986085
    One-Electron Energy =               -2041.9591274827489542
    Two-Electron Energy =                 838.4329276666387614
    Total Energy =                       -569.6710665490115844
  Basis Set: (AUG-CC-PVTZ AUX)
    Blend: AUG-CC-PVTZ-RI
    Molecular point group: c1

    Geometry (in Angstrom), charge = 0, multiplicity = 1:

       Center              X                  Y                   Z               Mass
    ------------   -----------------  -----------------  -----------------  -----------------
         O           -0.116357896998    -1.806788048099     0.458802263031    15.994914619570
         O            0.356841103002     1.387488951901    -1.020748736969    15.994914619570
         O           -1.922733296998     1.394237051901     0.451582963031    15.994914619570
         O            2.713227103002     0.444083951901    -0.201737736969    15.994914619570
         O           -1.673218896998    -0.806721048099    -0.994555736969    15.994914619570
         C            0.404524603002     1.049077051901     0.333107663031    12.000000000000
         C           -0.910919896998     0.467779951901     0.843999263031    12.000000000000
         C            1.532922103002    -0.035389048099     0.424332263031    12.000000000000
         C           -1.216730896998    -0.942937048099     0.343647263031    12.000000000000
         C            1.053382103002    -1.323195048099    -0.224721736969    12.000000000000
         H            0.702668103002     1.880957951901     0.964517263031     1.007825032230
         H           -0.883470896998     0.425774951901     1.939266263031     1.007825032230
         H            1.782188103002    -0.238126048099     1.471969263031     1.007825032230
         H           -1.995539896998    -1.403359048099     0.965701263031     1.007825032230
         H            0.842014103002    -1.154031048099    -1.286038736969     1.007825032230
         H            1.804326103002    -2.107883048099    -0.122583736969     1.007825032230
         H           -0.394639896998     2.005620951901    -1.079740736969     1.007825032230
         H           -2.343295896998     0.970201951901    -0.336144736969     1.007825032230
         H            2.398112103002     0.928800951901    -0.988873736969     1.007825032230
         H           -1.997229896998    -1.682755048099    -1.274565736969     1.007825032230

  Basis Set: AUG-CC-PVTZ
    Blend: AUG-CC-PVTZ
  Basis Set: (AUG-CC-PVTZ AUX)
    Blend: AUG-CC-PVTZ-JKFIT
	 Reference Energy          =    -569.6710665490115844 [Eh]
	 Singles Energy            =      -0.0000000000000000 [Eh]
	 Same-Spin Energy          =      -0.5547767674847717 [Eh]
	 Opposite-Spin Energy      =      -1.7040523803355869 [Eh]
	 Correlation Energy        =      -2.2588291478203586 [Eh]
	 Total Energy              =    -571.9298956968319771 [Eh]

	 ================> DF-SCS-MP2 Energies <==================
	-----------------------------------------------------------
	 SCS Same-Spin Scale       =       0.3333333333333333 [-]
	 SCS Opposite-Spin Scale   =       1.2000000000000000 [-]
	 SCS Same-Spin Energy      =      -0.1849255891615905 [Eh]
	 SCS Opposite-Spin Energy  =      -2.0448628564027040 [Eh]
	 SCS Correlation Energy    =      -2.2297884455642945 [Eh]
	 SCS Total Energy          =    -571.9008549945758659 [Eh]
	-----------------------------------------------------------

  Dipole Moment: [D]
     X:    -2.2944      Y:    -0.9907      Z:    -0.3344     Total:     2.5214

*** Psi4 exiting successfully. Buy a developer a beer!
