                               Psi4 1.3.2 release

  ==> Input File <==

--------------------------------------------------------------------------
#psi4
#
memory 32 gb

molecule  {
0 1
  O       -0.1147700    -1.8002930     0.4548730
  O        0.3584290     1.3939840    -1.0246780
  O       -1.9551560     1.3713260     0.4690830
  O        2.7148150     0.4505790    -0.2056670
  O       -1.6716310    -0.8002260    -0.9984850
  C        0.4293841     1.0248954     0.3563684
  C       -0.9093320     0.4742750     0.8400700
  C        1.5345100    -0.0288940     0.4204030
  C       -1.2267390    -0.9361968     0.3462918
  C        1.0549700    -1.3167000    -0.2286510
  H        0.7042560     1.8874530     0.9605880
  H       -0.8818830     0.4322700     1.9353370
  H        1.7837760    -0.2316310     1.4680400
  H       -1.9939520    -1.3968640     0.9617720
  H        0.8436020    -1.1475360    -1.2899680
  H        1.8059140    -2.1013880    -0.1265130
  H       -0.3930520     2.0121160    -1.0836700
  H       -2.3417080     0.9766970    -0.3400740
  H        2.3997000     0.9352960    -0.9928030
  H       -1.9956420    -1.6762600    -1.2784950
units angstrom
no_reorient  #important for SAPT in psi4, default
symmetry c1  #important for SAPT in psi4, default
}

set PROPERTIES_ORIGIN ["COM"]
properties('MP2/aug-cc-pvtz', properties = ['dipole'])
--------------------------------------------------------------------------

    Molecular point group: c1
  Charge       = 0
  Multiplicity = 1
  Basis Set: AUG-CC-PVTZ
    Blend: AUG-CC-PVTZ
  Basis Set: (AUG-CC-PVTZ AUX)
    Blend: AUG-CC-PVTZ-JKFIT

    Orbital Energies [Eh]
    ---------------------

    Doubly Occupied:

       1A    -20.591755     2A    -20.579299     3A    -20.574298
       4A    -20.571023     5A    -20.557782     6A    -11.354125
       7A    -11.298590     8A    -11.290839     9A    -11.285540
      10A    -11.277643    11A     -1.436512    12A     -1.390425
      13A     -1.374690    14A     -1.352413    15A     -1.347072
      16A     -1.057559    17A     -1.022640    18A     -0.899595
      19A     -0.869563    20A     -0.797295    21A     -0.752976
      22A     -0.728227    23A     -0.710706    24A     -0.695184
      25A     -0.668613    26A     -0.646237    27A     -0.620619
      28A     -0.612866    29A     -0.602804    30A     -0.584194
      31A     -0.572281    32A     -0.555761    33A     -0.542651
      34A     -0.515432    35A     -0.503961    36A     -0.490501
      37A     -0.486744    38A     -0.470482    39A     -0.440450
      40A     -0.416895

  @DF-RHF Final Energy:  -569.67414628997733

   => Energetics <=

    Nuclear Repulsion Energy =            633.3690159013503944
    One-Electron Energy =               -2040.9938435076498990
    Two-Electron Energy =                 837.9506813163221750
    Total Energy =                       -569.6741462899773296
  Basis Set: (AUG-CC-PVTZ AUX)
    Blend: AUG-CC-PVTZ-RI
    Molecular point group: c1

    Geometry (in Angstrom), charge = 0, multiplicity = 1:

       Center              X                  Y                   Z               Mass
    ------------   -----------------  -----------------  -----------------  -----------------
         O           -0.113666248591    -1.801219835254     0.453817848830    15.994914619570
         O            0.359532751409     1.393057164746    -1.025733151170    15.994914619570
         O           -1.954052248591     1.370399164746     0.468027848830    15.994914619570
         O            2.715918751409     0.449652164746    -0.206722151170    15.994914619570
         O           -1.670527248591    -0.801152835254    -0.999540151170    15.994914619570
         C            0.430487851409     1.023968564746     0.355313248830    12.000000000000
         C           -0.908228248591     0.473348164746     0.839014848830    12.000000000000
         C            1.535613751409    -0.029820835254     0.419347848830    12.000000000000
         C           -1.225635248591    -0.937123635254     0.345236648830    12.000000000000
         C            1.056073751409    -1.317626835254    -0.229706151170    12.000000000000
         H            0.705359751409     1.886526164746     0.959532848830     1.007825032230
         H           -0.880779248591     0.431343164746     1.934281848830     1.007825032230
         H            1.784879751409    -0.232557835254     1.466984848830     1.007825032230
         H           -1.992848248591    -1.397790835254     0.960716848830     1.007825032230
         H            0.844705751409    -1.148462835254    -1.291023151170     1.007825032230
         H            1.807017751409    -2.102314835254    -0.127568151170     1.007825032230
         H           -0.391948248591     2.011189164746    -1.084725151170     1.007825032230
         H           -2.340604248591     0.975770164746    -0.341129151170     1.007825032230
         H            2.400803751409     0.934369164746    -0.993858151170     1.007825032230
         H           -1.994538248591    -1.677186835254    -1.279550151170     1.007825032230

  Basis Set: AUG-CC-PVTZ
    Blend: AUG-CC-PVTZ
  Basis Set: (AUG-CC-PVTZ AUX)
    Blend: AUG-CC-PVTZ-JKFIT
	 Reference Energy          =    -569.6741462899773296 [Eh]
	 Singles Energy            =      -0.0000000000000000 [Eh]
	 Same-Spin Energy          =      -0.5545345341450070 [Eh]
	 Opposite-Spin Energy      =      -1.7040449307161691 [Eh]
	 Correlation Energy        =      -2.2585794648611763 [Eh]
	 Total Energy              =    -571.9327257548385433 [Eh]

	 ================> DF-SCS-MP2 Energies <==================
	-----------------------------------------------------------
	 SCS Same-Spin Scale       =       0.3333333333333333 [-]
	 SCS Opposite-Spin Scale   =       1.2000000000000000 [-]
	 SCS Same-Spin Energy      =      -0.1848448447150023 [Eh]
	 SCS Opposite-Spin Energy  =      -2.0448539168594029 [Eh]
	 SCS Correlation Energy    =      -2.2296987615744053 [Eh]
	 SCS Total Energy          =    -571.9038450515516843 [Eh]
	-----------------------------------------------------------

  Dipole Moment: [D]
     X:    -2.2192      Y:    -0.9724      Z:    -0.2714     Total:     2.4381

*** Psi4 exiting successfully. Buy a developer a beer!
