                               Psi4 1.3.2 release

  ==> Input File <==

--------------------------------------------------------------------------
#psi4
#
memory 32 gb

molecule  {
0 1
  O       -0.1147700    -1.8002930     0.4548730
  O        0.3584290     1.3939840    -1.0246780
  O       -1.9551560     1.3713260     0.4690830
  O        2.6787742     0.5137858    -0.2207958
  O       -1.6716310    -0.8002260    -0.9984850
  C        0.4820559     1.0612837     0.3109995
  C       -0.9093320     0.4742750     0.8400700
  C        1.5345100    -0.0288940     0.4204030
  C       -1.2151430    -0.9364420     0.3397180
  C        1.0549700    -1.3167000    -0.2286510
  H        0.7042560     1.8874530     0.9605880
  H       -0.8818830     0.4322700     1.9353370
  H        1.7837760    -0.2316310     1.4680400
  H       -1.9939520    -1.3968640     0.9617720
  H        0.8436020    -1.1475360    -1.2899680
  H        1.8059140    -2.1013880    -0.1265130
  H       -0.3930520     2.0121160    -1.0836700
  H       -2.3417080     0.9766970    -0.3400740
  H        2.3997000     0.9352960    -0.9928030
  H       -1.9956420    -1.6762600    -1.2784950
units angstrom
no_reorient  #important for SAPT in psi4, default
symmetry c1  #important for SAPT in psi4, default
}

set PROPERTIES_ORIGIN ["COM"]
properties('MP2/aug-cc-pvtz', properties = ['dipole'])
--------------------------------------------------------------------------

    Molecular point group: c1
  Charge       = 0
  Multiplicity = 1
  Basis Set: AUG-CC-PVTZ
    Blend: AUG-CC-PVTZ
  Basis Set: (AUG-CC-PVTZ AUX)
    Blend: AUG-CC-PVTZ-JKFIT

    Orbital Energies [Eh]
    ---------------------

    Doubly Occupied:

       1A    -20.590574     2A    -20.580676     3A    -20.574249
       4A    -20.571694     5A    -20.549629     6A    -11.352321
       7A    -11.295163     8A    -11.288310     9A    -11.285580
      10A    -11.279864    11A     -1.438005    12A     -1.404130
      13A     -1.376419    14A     -1.357813    15A     -1.352924
      16A     -1.049952    17A     -1.020396    18A     -0.900274
      19A     -0.866212    20A     -0.803267    21A     -0.751802
      22A     -0.732276    23A     -0.711349    24A     -0.698873
      25A     -0.673964    26A     -0.650994    27A     -0.620546
      28A     -0.619840    29A     -0.601463    30A     -0.586071
      31A     -0.569967    32A     -0.555888    33A     -0.548196
      34A     -0.516797    35A     -0.502404    36A     -0.492063
      37A     -0.487345    38A     -0.471455    39A     -0.424831
      40A     -0.412828

  @DF-RHF Final Energy:  -569.66979007559269

   => Energetics <=

    Nuclear Repulsion Energy =            634.0917008032461126
    One-Electron Energy =               -2042.3901700697570050
    Two-Electron Energy =                 838.6286791909182057
    Total Energy =                       -569.6697900755926867
  Basis Set: (AUG-CC-PVTZ AUX)
    Blend: AUG-CC-PVTZ-RI
    Molecular point group: c1

    Geometry (in Angstrom), charge = 0, multiplicity = 1:

       Center              X                  Y                   Z               Mass
    ------------   -----------------  -----------------  -----------------  -----------------
         O           -0.114964085424    -1.810847808500     0.459584459845    15.994914619570
         O            0.358234914576     1.383429191500    -1.019966540155    15.994914619570
         O           -1.955350085424     1.360771191500     0.473794459845    15.994914619570
         O            2.678580114576     0.503230991500    -0.216084340155    15.994914619570
         O           -1.671825085424    -0.810780808500    -0.993773540155    15.994914619570
         C            0.481861814576     1.050728891500     0.315710959845    12.000000000000
         C           -0.909526085424     0.463720191500     0.844781459845    12.000000000000
         C            1.534315914576    -0.039448808500     0.425114459845    12.000000000000
         C           -1.215337085424    -0.946996808500     0.344429459845    12.000000000000
         C            1.054775914576    -1.327254808500    -0.223939540155    12.000000000000
         H            0.704061914576     1.876898191500     0.965299459845     1.007825032230
         H           -0.882077085424     0.421715191500     1.940048459845     1.007825032230
         H            1.783581914576    -0.242185808500     1.472751459845     1.007825032230
         H           -1.994146085424    -1.407418808500     0.966483459845     1.007825032230
         H            0.843407914576    -1.158090808500    -1.285256540155     1.007825032230
         H            1.805719914576    -2.111942808500    -0.121801540155     1.007825032230
         H           -0.393246085424     2.001561191500    -1.078958540155     1.007825032230
         H           -2.341902085424     0.966142191500    -0.335362540155     1.007825032230
         H            2.399505914576     0.924741191500    -0.988091540155     1.007825032230
         H           -1.995836085424    -1.686814808500    -1.273783540155     1.007825032230

  Basis Set: AUG-CC-PVTZ
    Blend: AUG-CC-PVTZ
  Basis Set: (AUG-CC-PVTZ AUX)
    Blend: AUG-CC-PVTZ-JKFIT
	 Reference Energy          =    -569.6697900755926867 [Eh]
	 Singles Energy            =      -0.0000000000000000 [Eh]
	 Same-Spin Energy          =      -0.5536550507892113 [Eh]
	 Opposite-Spin Energy      =      -1.7014578419923769 [Eh]
	 Correlation Energy        =      -2.2551128927815882 [Eh]
	 Total Energy              =    -571.9249029683742265 [Eh]

	 ================> DF-SCS-MP2 Energies <==================
	-----------------------------------------------------------
	 SCS Same-Spin Scale       =       0.3333333333333333 [-]
	 SCS Opposite-Spin Scale   =       1.2000000000000000 [-]
	 SCS Same-Spin Energy      =      -0.1845516835964038 [Eh]
	 SCS Opposite-Spin Energy  =      -2.0417494103908522 [Eh]
	 SCS Correlation Energy    =      -2.2263010939872561 [Eh]
	 SCS Total Energy          =    -571.8960911695799041 [Eh]
	-----------------------------------------------------------

  Dipole Moment: [D]
     X:    -2.0710      Y:    -1.0392      Z:    -0.3924     Total:     2.3501

*** Psi4 exiting successfully. Buy a developer a beer!
