                               Psi4 1.3.2 release

  ==> Input File <==

--------------------------------------------------------------------------
#psi4
#
memory 32 gb

molecule  {
0 1
  O       -0.1147700    -1.8002930     0.4548730
  O        0.3584290     1.3939840    -1.0246780
  O       -1.9551560     1.3713260     0.4690830
  O        2.7148150     0.4505790    -0.2056670
  O       -1.6716310    -0.8002260    -0.9984850
  C        0.4315910     1.0135520     0.3497470
  C       -0.9093320     0.4742750     0.8400700
  C        1.5345100    -0.0288940     0.4204030
  C       -1.2151430    -0.9364420     0.3397180
  C        1.0549700    -1.3167000    -0.2286510
  H        0.7042560     1.8874530     0.9605880
  H       -0.8818830     0.4322700     1.9353370
  H        1.7837760    -0.2316310     1.4680400
  H       -1.9230187    -1.3549291     0.9051158
  H        0.8436020    -1.1475360    -1.2899680
  H        1.8059140    -2.1013880    -0.1265130
  H       -0.3930520     2.0121160    -1.0836700
  H       -2.3417080     0.9766970    -0.3400740
  H        2.3997000     0.9352960    -0.9928030
  H       -1.9956420    -1.6762600    -1.2784950
units angstrom
no_reorient  #important for SAPT in psi4, default
symmetry c1  #important for SAPT in psi4, default
}

set PROPERTIES_ORIGIN ["COM"]
properties('MP2/aug-cc-pvtz', properties = ['dipole'])
--------------------------------------------------------------------------

    Molecular point group: c1
  Charge       = 0
  Multiplicity = 1
  Basis Set: AUG-CC-PVTZ
    Blend: AUG-CC-PVTZ
  Basis Set: (AUG-CC-PVTZ AUX)
    Blend: AUG-CC-PVTZ-JKFIT

    Orbital Energies [Eh]
    ---------------------

    Doubly Occupied:

       1A    -20.590324     2A    -20.579721     3A    -20.574625
       4A    -20.570873     5A    -20.557912     6A    -11.341646
       7A    -11.297723     8A    -11.290542     9A    -11.285242
      10A    -11.277522    11A     -1.438733    12A     -1.391219
      13A     -1.375363    14A     -1.353231    15A     -1.347438
      16A     -1.058668    17A     -1.027520    18A     -0.901517
      19A     -0.874249    20A     -0.797898    21A     -0.761404
      22A     -0.728973    23A     -0.713558    24A     -0.696657
      25A     -0.669399    26A     -0.646780    27A     -0.620739
      28A     -0.613866    29A     -0.602505    30A     -0.584841
      31A     -0.575005    32A     -0.555580    33A     -0.542596
      34A     -0.516482    35A     -0.506760    36A     -0.491054
      37A     -0.487099    38A     -0.471733    39A     -0.441138
      40A     -0.415810

  @DF-RHF Final Energy:  -569.66952743044851

   => Energetics <=

    Nuclear Repulsion Energy =            634.4881661550912213
    One-Electron Energy =               -2043.1674943718603572
    Two-Electron Energy =                 839.0098007863206249
    Total Energy =                       -569.6695274304485110
  Basis Set: (AUG-CC-PVTZ AUX)
    Blend: AUG-CC-PVTZ-RI
    Molecular point group: c1

    Geometry (in Angstrom), charge = 0, multiplicity = 1:

       Center              X                  Y                   Z               Mass
    ------------   -----------------  -----------------  -----------------  -----------------
         O           -0.115246513127    -1.800574728045     0.455253622791    15.994914619570
         O            0.357952486873     1.393702271955    -1.024297377209    15.994914619570
         O           -1.955632513127     1.371044271955     0.469463622791    15.994914619570
         O            2.714338486873     0.450297271955    -0.205286377209    15.994914619570
         O           -1.672107513127    -0.800507728045    -0.998104377209    15.994914619570
         C            0.431114486873     1.013270271955     0.350127622791    12.000000000000
         C           -0.909808513127     0.473993271955     0.840450622791    12.000000000000
         C            1.534033486873    -0.029175728045     0.420783622791    12.000000000000
         C           -1.215619513127    -0.936723728045     0.340098622791    12.000000000000
         C            1.054493486873    -1.316981728045    -0.228270377209    12.000000000000
         H            0.703779486873     1.887171271955     0.960968622791     1.007825032230
         H           -0.882359513127     0.431988271955     1.935717622791     1.007825032230
         H            1.783299486873    -0.231912728045     1.468420622791     1.007825032230
         H           -1.923495213127    -1.355210828045     0.905496422791     1.007825032230
         H            0.843125486873    -1.147817728045    -1.289587377209     1.007825032230
         H            1.805437486873    -2.101669728045    -0.126132377209     1.007825032230
         H           -0.393528513127     2.011834271955    -1.083289377209     1.007825032230
         H           -2.342184513127     0.976415271955    -0.339693377209     1.007825032230
         H            2.399223486873     0.935014271955    -0.992422377209     1.007825032230
         H           -1.996118513127    -1.676541728045    -1.278114377209     1.007825032230

  Basis Set: AUG-CC-PVTZ
    Blend: AUG-CC-PVTZ
  Basis Set: (AUG-CC-PVTZ AUX)
    Blend: AUG-CC-PVTZ-JKFIT
	 Reference Energy          =    -569.6695274304485110 [Eh]
	 Singles Energy            =      -0.0000000000000000 [Eh]
	 Same-Spin Energy          =      -0.5544292965367532 [Eh]
	 Opposite-Spin Energy      =      -1.7032109059123466 [Eh]
	 Correlation Energy        =      -2.2576402024490996 [Eh]
	 Total Energy              =    -571.9271676328976355 [Eh]

	 ================> DF-SCS-MP2 Energies <==================
	-----------------------------------------------------------
	 SCS Same-Spin Scale       =       0.3333333333333333 [-]
	 SCS Opposite-Spin Scale   =       1.2000000000000000 [-]
	 SCS Same-Spin Energy      =      -0.1848097655122511 [Eh]
	 SCS Opposite-Spin Energy  =      -2.0438530870948157 [Eh]
	 SCS Correlation Energy    =      -2.2286628526070666 [Eh]
	 SCS Total Energy          =    -571.8981902830555555 [Eh]
	-----------------------------------------------------------

  Dipole Moment: [D]
     X:    -2.2215      Y:    -1.0091      Z:    -0.2634     Total:     2.4541

*** Psi4 exiting successfully. Buy a developer a beer!
