                               Psi4 1.3.2 release

  ==> Input File <==

--------------------------------------------------------------------------
#psi4
#
memory 32 gb

molecule  {
0 1
  O       -0.1147700    -1.8002930     0.4548730
  O        0.3584290     1.3939840    -1.0246780
  O       -1.9467712     1.3787814     0.4636823
  O        2.7148150     0.4505790    -0.2056670
  O       -1.6716310    -0.8002260    -0.9984850
  C        0.4253734     1.0241206     0.3445479
  C       -0.9093320     0.4742750     0.8400700
  C        1.5345100    -0.0288940     0.4204030
  C       -1.2151430    -0.9364420     0.3397180
  C        1.0549700    -1.3167000    -0.2286510
  H        0.7042560     1.8874530     0.9605880
  H       -0.8818830     0.4322700     1.9353370
  H        1.7837760    -0.2316310     1.4680400
  H       -1.9939520    -1.3968640     0.9617720
  H        0.8436020    -1.1475360    -1.2899680
  H        1.8059140    -2.1013880    -0.1265130
  H       -0.3930520     2.0121160    -1.0836700
  H       -2.3417080     0.9766970    -0.3400740
  H        2.3997000     0.9352960    -0.9928030
  H       -1.9956420    -1.6762600    -1.2784950
units angstrom
no_reorient  #important for SAPT in psi4, default
symmetry c1  #important for SAPT in psi4, default
}

set PROPERTIES_ORIGIN ["COM"]
properties('MP2/aug-cc-pvtz', properties = ['dipole'])
--------------------------------------------------------------------------

    Molecular point group: c1
  Charge       = 0
  Multiplicity = 1
  Basis Set: AUG-CC-PVTZ
    Blend: AUG-CC-PVTZ
  Basis Set: (AUG-CC-PVTZ AUX)
    Blend: AUG-CC-PVTZ-JKFIT

    Orbital Energies [Eh]
    ---------------------

    Doubly Occupied:

       1A    -20.591769     2A    -20.580722     3A    -20.574399
       4A    -20.571984     5A    -20.557756     6A    -11.354138
       7A    -11.297953     8A    -11.290309     9A    -11.285417
      10A    -11.277909    11A     -1.438776    12A     -1.393229
      13A     -1.375354    14A     -1.353923    15A     -1.348498
      16A     -1.056910    17A     -1.022564    18A     -0.898533
      19A     -0.869012    20A     -0.798300    21A     -0.752229
      22A     -0.728178    23A     -0.712298    24A     -0.695505
      25A     -0.670178    26A     -0.646398    27A     -0.621180
      28A     -0.614476    29A     -0.602819    30A     -0.584381
      31A     -0.571433    32A     -0.555988    33A     -0.544260
      34A     -0.515789    35A     -0.502752    36A     -0.491429
      37A     -0.487190    38A     -0.470494    39A     -0.438993
      40A     -0.415803

  @DF-RHF Final Energy:  -569.67441519592933

   => Energetics <=

    Nuclear Repulsion Energy =            633.8279549275173395
    One-Electron Energy =               -2041.8862840719853011
    Two-Electron Energy =                 838.3839139485386340
    Total Energy =                       -569.6744151959293276
  Basis Set: (AUG-CC-PVTZ AUX)
    Blend: AUG-CC-PVTZ-RI
    Molecular point group: c1

    Geometry (in Angstrom), charge = 0, multiplicity = 1:

       Center              X                  Y                   Z               Mass
    ------------   -----------------  -----------------  -----------------  -----------------
         O           -0.115166638620    -1.801932974027     0.455864563636    15.994914619570
         O            0.358032361380     1.392344025973    -1.023686436364    15.994914619570
         O           -1.947167838620     1.377141425973     0.464673863636    15.994914619570
         O            2.714418361380     0.448939025973    -0.204675436364    15.994914619570
         O           -1.672027638620    -0.801865974027    -0.997493436364    15.994914619570
         C            0.424976761380     1.022480625973     0.345539463636    12.000000000000
         C           -0.909728638620     0.472635025973     0.841061563636    12.000000000000
         C            1.534113361380    -0.030533974027     0.421394563636    12.000000000000
         C           -1.215539638620    -0.938081974027     0.340709563636    12.000000000000
         C            1.054573361380    -1.318339974027    -0.227659436364    12.000000000000
         H            0.703859361380     1.885813025973     0.961579563636     1.007825032230
         H           -0.882279638620     0.430630025973     1.936328563636     1.007825032230
         H            1.783379361380    -0.233270974027     1.469031563636     1.007825032230
         H           -1.994348638620    -1.398503974027     0.962763563636     1.007825032230
         H            0.843205361380    -1.149175974027    -1.288976436364     1.007825032230
         H            1.805517361380    -2.103027974027    -0.125521436364     1.007825032230
         H           -0.393448638620     2.010476025973    -1.082678436364     1.007825032230
         H           -2.342104638620     0.975057025973    -0.339082436364     1.007825032230
         H            2.399303361380     0.933656025973    -0.991811436364     1.007825032230
         H           -1.996038638620    -1.677899974027    -1.277503436364     1.007825032230

  Basis Set: AUG-CC-PVTZ
    Blend: AUG-CC-PVTZ
  Basis Set: (AUG-CC-PVTZ AUX)
    Blend: AUG-CC-PVTZ-JKFIT
	 Reference Energy          =    -569.6744151959293276 [Eh]
	 Singles Energy            =      -0.0000000000000000 [Eh]
	 Same-Spin Energy          =      -0.5546247646939915 [Eh]
	 Opposite-Spin Energy      =      -1.7038880412337876 [Eh]
	 Correlation Energy        =      -2.2585128059277793 [Eh]
	 Total Energy              =    -571.9329280018571353 [Eh]

	 ================> DF-SCS-MP2 Energies <==================
	-----------------------------------------------------------
	 SCS Same-Spin Scale       =       0.3333333333333333 [-]
	 SCS Opposite-Spin Scale   =       1.2000000000000000 [-]
	 SCS Same-Spin Energy      =      -0.1848749215646638 [Eh]
	 SCS Opposite-Spin Energy  =      -2.0446656494805451 [Eh]
	 SCS Correlation Energy    =      -2.2295405710452090 [Eh]
	 SCS Total Energy          =    -571.9039557669744909 [Eh]
	-----------------------------------------------------------

  Dipole Moment: [D]
     X:    -2.2089      Y:    -0.9933      Z:    -0.3082     Total:     2.4415

*** Psi4 exiting successfully. Buy a developer a beer!
