                               Psi4 1.3.2 release

  ==> Input File <==

--------------------------------------------------------------------------
#psi4
#
memory 32 gb

molecule  {
0 1
  O       -0.1147700    -1.8002930     0.4548730
  O        0.3584290     1.3939840    -1.0246780
  O       -1.9551560     1.3713260     0.4690830
  O        2.7148150     0.4505790    -0.2056670
  O       -1.6716310    -0.8002260    -0.9984850
  C        0.4315910     1.0135520     0.3497470
  C       -0.9093320     0.4742750     0.8400700
  C        1.5345100    -0.0288940     0.4204030
  C       -1.2151430    -0.9364420     0.3397180
  C        1.0549700    -1.3167000    -0.2286510
  H        0.7042560     1.8874530     0.9605880
  H       -0.8818830     0.4322700     1.9353370
  H        1.7837760    -0.2316310     1.4680400
  H       -1.9939520    -1.3968640     0.9617720
  H        0.8628997    -1.1629805    -1.1930708
  H        1.8059140    -2.1013880    -0.1265130
  H       -0.3930520     2.0121160    -1.0836700
  H       -2.3417080     0.9766970    -0.3400740
  H        2.3997000     0.9352960    -0.9928030
  H       -1.9956420    -1.6762600    -1.2784950
units angstrom
no_reorient  #important for SAPT in psi4, default
symmetry c1  #important for SAPT in psi4, default
}

set PROPERTIES_ORIGIN ["COM"]
properties('MP2/aug-cc-pvtz', properties = ['dipole'])
--------------------------------------------------------------------------

    Molecular point group: c1
  Charge       = 0
  Multiplicity = 1
  Basis Set: AUG-CC-PVTZ
    Blend: AUG-CC-PVTZ
  Basis Set: (AUG-CC-PVTZ AUX)
    Blend: AUG-CC-PVTZ-JKFIT

    Orbital Energies [Eh]
    ---------------------

    Doubly Occupied:

       1A    -20.591686     2A    -20.579443     3A    -20.574545
       4A    -20.571483     5A    -20.558359     6A    -11.353553
       7A    -11.298229     8A    -11.290959     9A    -11.284822
      10A    -11.266711    11A     -1.438549    12A     -1.391566
      13A     -1.375704    14A     -1.353774    15A     -1.347879
      16A     -1.059405    17A     -1.026667    18A     -0.903445
      19A     -0.870788    20A     -0.801574    21A     -0.755824
      22A     -0.728142    23A     -0.713845    24A     -0.696216
      25A     -0.669770    26A     -0.650993    27A     -0.620985
      28A     -0.615285    29A     -0.602835    30A     -0.584453
      31A     -0.575770    32A     -0.556469    33A     -0.542782
      34A     -0.516111    35A     -0.502915    36A     -0.493646
      37A     -0.487743    38A     -0.474937    39A     -0.440536
      40A     -0.415984

  @DF-RHF Final Energy:  -569.66915591113138

   => Energetics <=

    Nuclear Repulsion Energy =            634.3336172563923583
    One-Electron Energy =               -2042.8367808032467110
    Two-Electron Energy =                 838.8340076357230828
    Total Energy =                       -569.6691559111313836
  Basis Set: (AUG-CC-PVTZ AUX)
    Blend: AUG-CC-PVTZ-RI
    Molecular point group: c1

    Geometry (in Angstrom), charge = 0, multiplicity = 1:

       Center              X                  Y                   Z               Mass
    ------------   -----------------  -----------------  -----------------  -----------------
         O           -0.114899704256    -1.800189341124     0.454222286247    15.994914619570
         O            0.358299295744     1.394087658876    -1.025328713753    15.994914619570
         O           -1.955285704256     1.371429658876     0.468432286247    15.994914619570
         O            2.714685295744     0.450682658876    -0.206317713753    15.994914619570
         O           -1.671760704256    -0.800122341124    -0.999135713753    15.994914619570
         C            0.431461295744     1.013655658876     0.349096286247    12.000000000000
         C           -0.909461704256     0.474378658876     0.839419286247    12.000000000000
         C            1.534380295744    -0.028790341124     0.419752286247    12.000000000000
         C           -1.215272704256    -0.936338341124     0.339067286247    12.000000000000
         C            1.054840295744    -1.316596341124    -0.229301713753    12.000000000000
         H            0.704126295744     1.887556658876     0.959937286247     1.007825032230
         H           -0.882012704256     0.432373658876     1.934686286247     1.007825032230
         H            1.783646295744    -0.231527341124     1.467389286247     1.007825032230
         H           -1.994081704256    -1.396760341124     0.961121286247     1.007825032230
         H            0.862769995744    -1.162876841124    -1.193721513753     1.007825032230
         H            1.805784295744    -2.101284341124    -0.127163713753     1.007825032230
         H           -0.393181704256     2.012219658876    -1.084320713753     1.007825032230
         H           -2.341837704256     0.976800658876    -0.340724713753     1.007825032230
         H            2.399570295744     0.935399658876    -0.993453713753     1.007825032230
         H           -1.995771704256    -1.676156341124    -1.279145713753     1.007825032230

  Basis Set: AUG-CC-PVTZ
    Blend: AUG-CC-PVTZ
  Basis Set: (AUG-CC-PVTZ AUX)
    Blend: AUG-CC-PVTZ-JKFIT
	 Reference Energy          =    -569.6691559111313836 [Eh]
	 Singles Energy            =      -0.0000000000000000 [Eh]
	 Same-Spin Energy          =      -0.5543783875778439 [Eh]
	 Opposite-Spin Energy      =      -1.7031736246658993 [Eh]
	 Correlation Energy        =      -2.2575520122437434 [Eh]
	 Total Energy              =    -571.9267079233751474 [Eh]

	 ================> DF-SCS-MP2 Energies <==================
	-----------------------------------------------------------
	 SCS Same-Spin Scale       =       0.3333333333333333 [-]
	 SCS Opposite-Spin Scale   =       1.2000000000000000 [-]
	 SCS Same-Spin Energy      =      -0.1847927958592813 [Eh]
	 SCS Opposite-Spin Energy  =      -2.0438083495990789 [Eh]
	 SCS Correlation Energy    =      -2.2286011454583603 [Eh]
	 SCS Total Energy          =    -571.8977570565897395 [Eh]
	-----------------------------------------------------------

  Dipole Moment: [D]
     X:    -2.1606      Y:    -0.9986      Z:    -0.3318     Total:     2.4032

*** Psi4 exiting successfully. Buy a developer a beer!
