                               Psi4 1.3.2 release

  ==> Input File <==

--------------------------------------------------------------------------
#psi4
#
memory 32 gb

molecule  {
0 1
  O       -0.1147700    -1.8002930     0.4548730
  O        0.3584290     1.3939840    -1.0246780
  O       -1.9551560     1.3713260     0.4690830
  O        2.7148150     0.4505790    -0.2056670
  O       -1.6716310    -0.8002260    -0.9984850
  C        0.4315910     1.0135520     0.3497470
  C       -0.9093320     0.4742750     0.8400700
  C        1.5345100    -0.0288940     0.4204030
  C       -1.2151430    -0.9364420     0.3397180
  C        1.0549700    -1.3167000    -0.2286510
  H        0.7538074     2.0462669     1.0715961
  H       -0.8818830     0.4322700     1.9353370
  H        1.7837760    -0.2316310     1.4680400
  H       -1.9939520    -1.3968640     0.9617720
  H        0.8436020    -1.1475360    -1.2899680
  H        1.8059140    -2.1013880    -0.1265130
  H       -0.3930520     2.0121160    -1.0836700
  H       -2.3417080     0.9766970    -0.3400740
  H        2.3997000     0.9352960    -0.9928030
  H       -1.9956420    -1.6762600    -1.2784950
units angstrom
no_reorient  #important for SAPT in psi4, default
symmetry c1  #important for SAPT in psi4, default
}

set PROPERTIES_ORIGIN ["COM"]
properties('MP2/aug-cc-pvtz', properties = ['dipole'])
--------------------------------------------------------------------------

    Molecular point group: c1
  Charge       = 0
  Multiplicity = 1
  Basis Set: AUG-CC-PVTZ
    Blend: AUG-CC-PVTZ
  Basis Set: (AUG-CC-PVTZ AUX)
    Blend: AUG-CC-PVTZ-JKFIT

    Orbital Energies [Eh]
    ---------------------

    Doubly Occupied:

       1A    -20.592972     2A    -20.582333     3A    -20.575941
       4A    -20.575275     5A    -20.558703     6A    -11.355832
       7A    -11.313453     8A    -11.300739     9A    -11.287938
      10A    -11.280264    11A     -1.440298    12A     -1.393313
      13A     -1.376728    14A     -1.355241    15A     -1.349313
      16A     -1.057296    17A     -1.024746    18A     -0.891235
      19A     -0.871223    20A     -0.799180    21A     -0.753701
      22A     -0.719277    23A     -0.710954    24A     -0.696029
      25A     -0.668043    26A     -0.644802    27A     -0.620588
      28A     -0.612788    29A     -0.600411    30A     -0.585397
      31A     -0.572676    32A     -0.555433    33A     -0.542245
      34A     -0.515405    35A     -0.502581    36A     -0.489634
      37A     -0.487070    38A     -0.468998    39A     -0.441810
      40A     -0.410679

  @DF-RHF Final Energy:  -569.65426982030215

   => Energetics <=

    Nuclear Repulsion Energy =            632.6858615194361164
    One-Electron Energy =               -2039.5191674789384706
    Two-Electron Energy =                 837.1790361392003206
    Total Energy =                       -569.6542698203021473
  Basis Set: (AUG-CC-PVTZ AUX)
    Blend: AUG-CC-PVTZ-RI
    Molecular point group: c1

    Geometry (in Angstrom), charge = 0, multiplicity = 1:

       Center              X                  Y                   Z               Mass
    ------------   -----------------  -----------------  -----------------  -----------------
         O           -0.115102902273    -1.801359742144     0.454127510834    15.994914619570
         O            0.358096097727     1.392917257856    -1.025423489166    15.994914619570
         O           -1.955488902273     1.370259257856     0.468337510834    15.994914619570
         O            2.714482097727     0.449512257856    -0.206412489166    15.994914619570
         O           -1.671963902273    -0.801292742144    -0.999230489166    15.994914619570
         C            0.431258097727     1.012485257856     0.349001510834    12.000000000000
         C           -0.909664902273     0.473208257856     0.839324510834    12.000000000000
         C            1.534177097727    -0.029960742144     0.419657510834    12.000000000000
         C           -1.215475902273    -0.937508742144     0.338972510834    12.000000000000
         C            1.054637097727    -1.317766742144    -0.229396489166    12.000000000000
         H            0.753474497727     2.045200157856     1.070850610834     1.007825032230
         H           -0.882215902273     0.431203257856     1.934591510834     1.007825032230
         H            1.783443097727    -0.232697742144     1.467294510834     1.007825032230
         H           -1.994284902273    -1.397930742144     0.961026510834     1.007825032230
         H            0.843269097727    -1.148602742144    -1.290713489166     1.007825032230
         H            1.805581097727    -2.102454742144    -0.127258489166     1.007825032230
         H           -0.393384902273     2.011049257856    -1.084415489166     1.007825032230
         H           -2.342040902273     0.975630257856    -0.340819489166     1.007825032230
         H            2.399367097727     0.934229257856    -0.993548489166     1.007825032230
         H           -1.995974902273    -1.677326742144    -1.279240489166     1.007825032230

  Basis Set: AUG-CC-PVTZ
    Blend: AUG-CC-PVTZ
  Basis Set: (AUG-CC-PVTZ AUX)
    Blend: AUG-CC-PVTZ-JKFIT
	 Reference Energy          =    -569.6542698203021473 [Eh]
	 Singles Energy            =      -0.0000000000000000 [Eh]
	 Same-Spin Energy          =      -0.5551170130350950 [Eh]
	 Opposite-Spin Energy      =      -1.7060786870681133 [Eh]
	 Correlation Energy        =      -2.2611957001032081 [Eh]
	 Total Energy              =    -571.9154655204054052 [Eh]

	 ================> DF-SCS-MP2 Energies <==================
	-----------------------------------------------------------
	 SCS Same-Spin Scale       =       0.3333333333333333 [-]
	 SCS Opposite-Spin Scale   =       1.2000000000000000 [-]
	 SCS Same-Spin Energy      =      -0.1850390043450316 [Eh]
	 SCS Opposite-Spin Energy  =      -2.0472944244817359 [Eh]
	 SCS Correlation Energy    =      -2.2323334288267676 [Eh]
	 SCS Total Energy          =    -571.8866032491289388 [Eh]
	-----------------------------------------------------------

  Dipole Moment: [D]
     X:    -2.2332      Y:    -1.1431      Z:    -0.4406     Total:     2.5471

*** Psi4 exiting successfully. Buy a developer a beer!
