                               Psi4 1.3.2 release

  ==> Input File <==

--------------------------------------------------------------------------
#psi4
#
memory 32 gb

molecule  {
0 1
  O       -0.1147700    -1.8002930     0.4548730
  O        0.3584290     1.3939840    -1.0246780
  O       -1.9551560     1.3713260     0.4690830
  O        2.7148150     0.4505790    -0.2056670
  O       -1.6716310    -0.8002260    -0.9984850
  C        0.4418379     0.9602694     0.5422463
  C       -0.9093320     0.4742750     0.8400700
  C        1.5345100    -0.0288940     0.4204030
  C       -1.2151430    -0.9364420     0.3397180
  C        1.0549700    -1.3167000    -0.2286510
  H        0.7042560     1.8874530     0.9605880
  H       -0.8818830     0.4322700     1.9353370
  H        1.7837760    -0.2316310     1.4680400
  H       -1.9939520    -1.3968640     0.9617720
  H        0.8436020    -1.1475360    -1.2899680
  H        1.8059140    -2.1013880    -0.1265130
  H       -0.3930520     2.0121160    -1.0836700
  H       -2.3417080     0.9766970    -0.3400740
  H        2.3997000     0.9352960    -0.9928030
  H       -1.9956420    -1.6762600    -1.2784950
units angstrom
no_reorient  #important for SAPT in psi4, default
symmetry c1  #important for SAPT in psi4, default
}

set PROPERTIES_ORIGIN ["COM"]
properties('MP2/aug-cc-pvtz', properties = ['dipole'])
--------------------------------------------------------------------------

    Molecular point group: c1
  Charge       = 0
  Multiplicity = 1
  Basis Set: AUG-CC-PVTZ
    Blend: AUG-CC-PVTZ
  Basis Set: (AUG-CC-PVTZ AUX)
    Blend: AUG-CC-PVTZ-JKFIT

    Orbital Energies [Eh]
    ---------------------

    Doubly Occupied:

       1A    -20.591960     2A    -20.583627     3A    -20.578645
       4A    -20.562524     5A    -20.544874     6A    -11.358598
       7A    -11.304959     8A    -11.299950     9A    -11.292114
      10A    -11.281934    11A     -1.440050    12A     -1.381657
      13A     -1.372055    14A     -1.355675    15A     -1.301418
      16A     -1.083837    17A     -1.029098    18A     -0.907611
      19A     -0.884419    20A     -0.791411    21A     -0.752389
      22A     -0.730274    23A     -0.712589    24A     -0.692328
      25A     -0.656308    26A     -0.648690    27A     -0.624554
      28A     -0.611388    29A     -0.598876    30A     -0.586840
      31A     -0.573982    32A     -0.559940    33A     -0.530268
      34A     -0.505906    35A     -0.492266    36A     -0.489547
      37A     -0.475928    38A     -0.469428    39A     -0.452645
      40A     -0.426625

  @DF-RHF Final Energy:  -569.64001699594087

   => Energetics <=

    Nuclear Repulsion Energy =            632.4553540988002851
    One-Electron Energy =               -2039.1163679101350681
    Two-Electron Energy =                 837.0209968153938007
    Total Energy =                       -569.6400169959408686
  Basis Set: (AUG-CC-PVTZ AUX)
    Blend: AUG-CC-PVTZ-RI
    Molecular point group: c1

    Geometry (in Angstrom), charge = 0, multiplicity = 1:

       Center              X                  Y                   Z               Mass
    ------------   -----------------  -----------------  -----------------  -----------------
         O           -0.115589555287    -1.796031966194     0.439478570495    15.994914619570
         O            0.357609444713     1.398245033806    -1.040072429505    15.994914619570
         O           -1.955975555287     1.375587033806     0.453688570495    15.994914619570
         O            2.713995444713     0.454840033806    -0.221061429505    15.994914619570
         O           -1.672450555287    -0.795964966194    -1.013879429505    15.994914619570
         C            0.441018344713     0.964530433806     0.526851870495    12.000000000000
         C           -0.910151555287     0.478536033806     0.824675570495    12.000000000000
         C            1.533690444713    -0.024632966194     0.405008570495    12.000000000000
         C           -1.215962555287    -0.932180966194     0.324323570495    12.000000000000
         C            1.054150444713    -1.312438966194    -0.244045429505    12.000000000000
         H            0.703436444713     1.891714033806     0.945193570495     1.007825032230
         H           -0.882702555287     0.436531033806     1.919942570495     1.007825032230
         H            1.782956444713    -0.227369966194     1.452645570495     1.007825032230
         H           -1.994771555287    -1.392602966194     0.946377570495     1.007825032230
         H            0.842782444713    -1.143274966194    -1.305362429505     1.007825032230
         H            1.805094444713    -2.097126966194    -0.141907429505     1.007825032230
         H           -0.393871555287     2.016377033806    -1.099064429505     1.007825032230
         H           -2.342527555287     0.980958033806    -0.355468429505     1.007825032230
         H            2.398880444713     0.939557033806    -1.008197429505     1.007825032230
         H           -1.996461555287    -1.671998966194    -1.293889429505     1.007825032230

  Basis Set: AUG-CC-PVTZ
    Blend: AUG-CC-PVTZ
  Basis Set: (AUG-CC-PVTZ AUX)
    Blend: AUG-CC-PVTZ-JKFIT
	 Reference Energy          =    -569.6400169959408686 [Eh]
	 Singles Energy            =      -0.0000000000000000 [Eh]
	 Same-Spin Energy          =      -0.5564692768439364 [Eh]
	 Opposite-Spin Energy      =      -1.7091980335194337 [Eh]
	 Correlation Energy        =      -2.2656673103633702 [Eh]
	 Total Energy              =    -571.9056843063042379 [Eh]

	 ================> DF-SCS-MP2 Energies <==================
	-----------------------------------------------------------
	 SCS Same-Spin Scale       =       0.3333333333333333 [-]
	 SCS Opposite-Spin Scale   =       1.2000000000000000 [-]
	 SCS Same-Spin Energy      =      -0.1854897589479788 [Eh]
	 SCS Opposite-Spin Energy  =      -2.0510376402233201 [Eh]
	 SCS Correlation Energy    =      -2.2365273991712988 [Eh]
	 SCS Total Energy          =    -571.8765443951122052 [Eh]
	-----------------------------------------------------------

  Dipole Moment: [D]
     X:    -2.1312      Y:    -1.2157      Z:     0.1701     Total:     2.4595

*** Psi4 exiting successfully. Buy a developer a beer!
