                               Psi4 1.4a3.dev225

  ==> Input File <==

--------------------------------------------------------------------------
#psi4
#
memory 32 gb

molecule  {
0 1
  O       -0.2343850     1.7978400    -0.4145210
  O        0.4791390    -1.3900560     0.9851260
  O       -1.8902550    -1.4798720    -0.4079610
  O        2.7489250    -0.2990660     0.0843650
  O       -1.6766260     0.6849030     1.0797040
  C        0.4758930    -0.9871420    -0.3839460
  C       -0.9153110    -0.5160320    -0.8112700
  C        1.5148540     0.1205520    -0.4811210
  C       -1.2794180     0.8705190    -0.2725550
  C        0.9914930     1.3693070     0.2124490
  H        0.7867478    -1.8735291    -1.0488335
  H       -0.9367810    -0.4539690    -1.9062570
  H        1.7061480     0.3550680    -1.5342930
  H       -2.1075740     1.2945610    -0.8542440
  H        0.8333730     1.1741050     1.2776920
  H        1.6908660     2.1982840     0.0933200
  H       -0.2684360    -2.0097880     1.0741120
  H       -2.2907410    -1.1048270     0.4011470
  H        2.5001980    -0.8049050     0.8819700
  H       -2.0397460     1.5332780     1.3914430
units angstrom
no_reorient  #important for SAPT in psi4, default
symmetry c1  #important for SAPT in psi4, default
}

set PROPERTIES_ORIGIN ["COM"]
properties('MP2/aug-cc-pvtz', properties = ['dipole'])
--------------------------------------------------------------------------

    Molecular point group: c1
  Charge       = 0
  Multiplicity = 1
  Basis Set: AUG-CC-PVTZ
    Blend: AUG-CC-PVTZ
  Basis Set: (AUG-CC-PVTZ AUX)
    Blend: AUG-CC-PVTZ-JKFIT

    Orbital Energies [Eh]
    ---------------------

    Doubly Occupied:

       1A    -20.592322     2A    -20.581534     3A    -20.575357
       4A    -20.571066     5A    -20.558718     6A    -11.355291
       7A    -11.300190     8A    -11.297086     9A    -11.286738
      10A    -11.279293    11A     -1.438434    12A     -1.391232
      13A     -1.375679    14A     -1.354206    15A     -1.347755
      16A     -1.057081    17A     -1.023060    18A     -0.895951
      19A     -0.870448    20A     -0.797986    21A     -0.752534
      22A     -0.723778    23A     -0.712065    24A     -0.695824
      25A     -0.667390    26A     -0.646933    27A     -0.620399
      28A     -0.614312    29A     -0.600780    30A     -0.584744
      31A     -0.572676    32A     -0.556442    33A     -0.542782
      34A     -0.515341    35A     -0.502949    36A     -0.490177
      37A     -0.487607    38A     -0.470729    39A     -0.441309
      40A     -0.415026

  @DF-RHF Final Energy:  -569.67213964215932

   => Energetics <=

    Nuclear Repulsion Energy =            632.8448256655960904
    One-Electron Energy =               -2039.9074816082591042
    Two-Electron Energy =                 837.3905163005036911
    Total Energy =                       -569.6721396421593226
  Basis Set: (AUG-CC-PVTZ AUX)
    Blend: AUG-CC-PVTZ-RI
    Molecular point group: c1

    Geometry (in Angstrom), charge = 0, multiplicity = 1:

       Center              X                  Y                   Z               Mass
    ------------   -----------------  -----------------  -----------------  -----------------
         O           -0.235417198005     1.800368362742    -0.415571625313    15.994914619570
         O            0.478106801995    -1.387527637258     0.984075374687    15.994914619570
         O           -1.891287198005    -1.477343637258    -0.409011625313    15.994914619570
         O            2.747892801995    -0.296537637258     0.083314374687    15.994914619570
         O           -1.677658198005     0.687431362742     1.078653374687    15.994914619570
         C            0.474860801995    -0.984613637258    -0.384996625313    12.000000000000
         C           -0.916343198005    -0.513503637258    -0.812320625313    12.000000000000
         C            1.513821801995     0.123080362742    -0.482171625313    12.000000000000
         C           -1.280450198005     0.873047362742    -0.273605625313    12.000000000000
         C            0.990460801995     1.371835362742     0.211398374687    12.000000000000
         H            0.785715601995    -1.871000737258    -1.049884125313     1.007825032230
         H           -0.937813198005    -0.451440637258    -1.907307625313     1.007825032230
         H            1.705115801995     0.357596362742    -1.535343625313     1.007825032230
         H           -2.108606198005     1.297089362742    -0.855294625313     1.007825032230
         H            0.832340801995     1.176633362742     1.276641374687     1.007825032230
         H            1.689833801995     2.200812362742     0.092269374687     1.007825032230
         H           -0.269468198005    -2.007259637258     1.073061374687     1.007825032230
         H           -2.291773198005    -1.102298637258     0.400096374687     1.007825032230
         H            2.499165801995    -0.802376637258     0.880919374687     1.007825032230
         H           -2.040778198005     1.535806362742     1.390392374687     1.007825032230

  Basis Set: AUG-CC-PVTZ
    Blend: AUG-CC-PVTZ
  Basis Set: (AUG-CC-PVTZ AUX)
    Blend: AUG-CC-PVTZ-JKFIT
	 Reference Energy          =    -569.6721396421593226 [Eh]
	 Singles Energy            =      -0.0000000000000000 [Eh]
	 Same-Spin Energy          =      -0.5546307469558724 [Eh]
	 Opposite-Spin Energy      =      -1.7044375623176400 [Eh]
	 Correlation Energy        =      -2.2590683092735127 [Eh]
	 Total Energy              =    -571.9312079514328389 [Eh]

	 ================> DF-SCS-MP2 Energies <==================
	-----------------------------------------------------------
	 SCS Same-Spin Scale       =       0.3333333333333333 [-]
	 SCS Opposite-Spin Scale   =       1.2000000000000000 [-]
	 SCS Same-Spin Energy      =      -0.1848769156519575 [Eh]
	 SCS Opposite-Spin Energy  =      -2.0453250747811680 [Eh]
	 SCS Correlation Energy    =      -2.2302019904331254 [Eh]
	 SCS Total Energy          =    -571.9023416325924245 [Eh]
	-----------------------------------------------------------

  Dipole Moment: [D]
     X:    -2.3050      Y:     0.9937      Z:     0.4288     Total:     2.5464

*** Psi4 exiting successfully. Buy a developer a beer!
