                               Psi4 1.3.2 release

  ==> Input File <==

--------------------------------------------------------------------------
#psi4
#
memory 32 gb

molecule  {
0 1
  O       -0.1016268    -1.7819360     0.4643839
  O        0.3584290     1.3939840    -1.0246780
  O       -1.9551560     1.3713260     0.4690830
  O        2.7148150     0.4505790    -0.2056670
  O       -1.6716310    -0.8002260    -0.9984850
  C        0.4315910     1.0135520     0.3497470
  C       -0.8845136     0.4665396     0.8460004
  C        1.5345100    -0.0288940     0.4204030
  C       -1.2151430    -0.9364420     0.3397180
  C        1.0549700    -1.3167000    -0.2286510
  H        0.7042560     1.8874530     0.9605880
  H       -0.8818830     0.4322700     1.9353370
  H        1.7837760    -0.2316310     1.4680400
  H       -1.9939520    -1.3968640     0.9617720
  H        0.8436020    -1.1475360    -1.2899680
  H        1.8059140    -2.1013880    -0.1265130
  H       -0.3930520     2.0121160    -1.0836700
  H       -2.3417080     0.9766970    -0.3400740
  H        2.3997000     0.9352960    -0.9928030
  H       -1.9956420    -1.6762600    -1.2784950
units angstrom
no_reorient  #important for SAPT in psi4, default
symmetry c1  #important for SAPT in psi4, default
}

set PROPERTIES_ORIGIN ["COM"]
properties('MP2/aug-cc-pvtz', properties = ['dipole'])
--------------------------------------------------------------------------

    Molecular point group: c1
  Charge       = 0
  Multiplicity = 1
  Basis Set: AUG-CC-PVTZ
    Blend: AUG-CC-PVTZ
  Basis Set: (AUG-CC-PVTZ AUX)
    Blend: AUG-CC-PVTZ-JKFIT

    Orbital Energies [Eh]
    ---------------------

    Doubly Occupied:

       1A    -20.592948     2A    -20.579929     3A    -20.571602
       4A    -20.571376     5A    -20.557470     6A    -11.355303
       7A    -11.298007     8A    -11.291179     9A    -11.284936
      10A    -11.277487    11A     -1.439942    12A     -1.390240
      13A     -1.372848    14A     -1.353527    15A     -1.345601
      16A     -1.061969    17A     -1.024961    18A     -0.898505
      19A     -0.870680    20A     -0.798428    21A     -0.752489
      22A     -0.729606    23A     -0.712609    24A     -0.693144
      25A     -0.669870    26A     -0.646120    27A     -0.622471
      28A     -0.614313    29A     -0.601879    30A     -0.582723
      31A     -0.571482    32A     -0.555174    33A     -0.541697
      34A     -0.515524    35A     -0.504010    36A     -0.489890
      37A     -0.488402    38A     -0.471741    39A     -0.443955
      40A     -0.414697

  @DF-RHF Final Energy:  -569.67362641226646

   => Energetics <=

    Nuclear Repulsion Energy =            634.3643310557797577
    One-Electron Energy =               -2042.9584492265901190
    Two-Electron Energy =                 838.9204917585439034
    Total Energy =                       -569.6736264122664579
  Basis Set: (AUG-CC-PVTZ AUX)
    Blend: AUG-CC-PVTZ-RI
    Molecular point group: c1

    Geometry (in Angstrom), charge = 0, multiplicity = 1:

       Center              X                  Y                   Z               Mass
    ------------   -----------------  -----------------  -----------------  -----------------
         O           -0.105012667290    -1.783274228030     0.462895911700    15.994914619570
         O            0.355043132710     1.392645771970    -1.026165988300    15.994914619570
         O           -1.958541867290     1.369987771970     0.467595011700    15.994914619570
         O            2.711429132710     0.449240771970    -0.207154988300    15.994914619570
         O           -1.675016867290    -0.801564228030    -0.999972988300    15.994914619570
         C            0.428205132710     1.012213771970     0.348259011700    12.000000000000
         C           -0.887899467290     0.465201371970     0.844512411700    12.000000000000
         C            1.531124132710    -0.030232228030     0.418915011700    12.000000000000
         C           -1.218528867290    -0.937780228030     0.338230011700    12.000000000000
         C            1.051584132710    -1.318038228030    -0.230138988300    12.000000000000
         H            0.700870132710     1.886114771970     0.959100011700     1.007825032230
         H           -0.885268867290     0.430931771970     1.933849011700     1.007825032230
         H            1.780390132710    -0.232969228030     1.466552011700     1.007825032230
         H           -1.997337867290    -1.398202228030     0.960284011700     1.007825032230
         H            0.840216132710    -1.148874228030    -1.291455988300     1.007825032230
         H            1.802528132710    -2.102726228030    -0.128000988300     1.007825032230
         H           -0.396437867290     2.010777771970    -1.085157988300     1.007825032230
         H           -2.345093867290     0.975358771970    -0.341561988300     1.007825032230
         H            2.396314132710     0.933957771970    -0.994290988300     1.007825032230
         H           -1.999027867290    -1.677598228030    -1.279982988300     1.007825032230

  Basis Set: AUG-CC-PVTZ
    Blend: AUG-CC-PVTZ
  Basis Set: (AUG-CC-PVTZ AUX)
    Blend: AUG-CC-PVTZ-JKFIT
	 Reference Energy          =    -569.6736264122664579 [Eh]
	 Singles Energy            =      -0.0000000000000000 [Eh]
	 Same-Spin Energy          =      -0.5546935278472308 [Eh]
	 Opposite-Spin Energy      =      -1.7040219225053557 [Eh]
	 Correlation Energy        =      -2.2587154503525864 [Eh]
	 Total Energy              =    -571.9323418626190687 [Eh]

	 ================> DF-SCS-MP2 Energies <==================
	-----------------------------------------------------------
	 SCS Same-Spin Scale       =       0.3333333333333333 [-]
	 SCS Opposite-Spin Scale   =       1.2000000000000000 [-]
	 SCS Same-Spin Energy      =      -0.1848978426157436 [Eh]
	 SCS Opposite-Spin Energy  =      -2.0448263070064265 [Eh]
	 SCS Correlation Energy    =      -2.2297241496221702 [Eh]
	 SCS Total Energy          =    -571.9033505618886011 [Eh]
	-----------------------------------------------------------

  Dipole Moment: [D]
     X:    -2.1646      Y:    -1.0880      Z:    -0.2953     Total:     2.4406

*** Psi4 exiting successfully. Buy a developer a beer!
