                               Psi4 1.3.2 release

  ==> Input File <==

--------------------------------------------------------------------------
#psi4
#
memory 32 gb

molecule  {
0 1
  O       -0.1147700    -1.8002930     0.4548730
  O        0.3584290     1.3939840    -1.0246780
  O       -1.9551560     1.3713260     0.4690830
  O        2.7148150     0.4505790    -0.2056670
  O       -1.6716310    -0.8002260    -0.9984850
  C        0.4315910     1.0135520     0.3497470
  C       -0.9093320     0.4742750     0.8400700
  C        1.5345100    -0.0288940     0.4204030
  C       -1.2146514    -0.9320272     0.3271478
  C        1.0549700    -1.3167000    -0.2286510
  H        0.7042560     1.8874530     0.9605880
  H       -0.8799529     0.4416374     1.9356061
  H        1.7837760    -0.2316310     1.4680400
  H       -1.9939520    -1.3968640     0.9617720
  H        0.8436020    -1.1475360    -1.2899680
  H        1.8059140    -2.1013880    -0.1265130
  H       -0.3930520     2.0121160    -1.0836700
  H       -2.3417080     0.9766970    -0.3400740
  H        2.3997000     0.9352960    -0.9928030
  H       -1.9956420    -1.6762600    -1.2784950
units angstrom
no_reorient  #important for SAPT in psi4, default
symmetry c1  #important for SAPT in psi4, default
}

set PROPERTIES_ORIGIN ["COM"]
properties('MP2/aug-cc-pvtz', properties = ['dipole'])
--------------------------------------------------------------------------

    Molecular point group: c1
  Charge       = 0
  Multiplicity = 1
  Basis Set: AUG-CC-PVTZ
    Blend: AUG-CC-PVTZ
  Basis Set: (AUG-CC-PVTZ AUX)
    Blend: AUG-CC-PVTZ-JKFIT

    Orbital Energies [Eh]
    ---------------------

    Doubly Occupied:

       1A    -20.593648     2A    -20.580206     3A    -20.574562
       4A    -20.571261     5A    -20.558106     6A    -11.354032
       7A    -11.298248     8A    -11.290724     9A    -11.285434
      10A    -11.277695    11A     -1.440781    12A     -1.391683
      13A     -1.375943    14A     -1.355820    15A     -1.347706
      16A     -1.058921    17A     -1.021956    18A     -0.898640
      19A     -0.869459    20A     -0.799268    21A     -0.752645
      22A     -0.728149    23A     -0.711885    24A     -0.696880
      25A     -0.670118    26A     -0.646272    27A     -0.621521
      28A     -0.613722    29A     -0.603346    30A     -0.584949
      31A     -0.572001    32A     -0.556191    33A     -0.542867
      34A     -0.516294    35A     -0.501583    36A     -0.490849
      37A     -0.488483    38A     -0.471547    39A     -0.439891
      40A     -0.415360

  @DF-RHF Final Energy:  -569.67439184680779

   => Energetics <=

    Nuclear Repulsion Energy =            633.9856203304576638
    One-Electron Energy =               -2042.1827277255429181
    Two-Electron Energy =                 838.5227155482775743
    Total Energy =                       -569.6743918468077936
  Basis Set: (AUG-CC-PVTZ AUX)
    Blend: AUG-CC-PVTZ-RI
    Molecular point group: c1

    Geometry (in Angstrom), charge = 0, multiplicity = 1:

       Center              X                  Y                   Z               Mass
    ------------   -----------------  -----------------  -----------------  -----------------
         O           -0.114822369476    -1.800709049132     0.455876547809    15.994914619570
         O            0.358376630524     1.393567950868    -1.023674452191    15.994914619570
         O           -1.955208369476     1.370909950868     0.470086547809    15.994914619570
         O            2.714762630524     0.450162950868    -0.204663452191    15.994914619570
         O           -1.671683369476    -0.800642049132    -0.997481452191    15.994914619570
         C            0.431538630524     1.013135950868     0.350750547809    12.000000000000
         C           -0.909384369476     0.473858950868     0.841073547809    12.000000000000
         C            1.534457630524    -0.029310049132     0.421406547809    12.000000000000
         C           -1.214703769476    -0.932443249132     0.328151347809    12.000000000000
         C            1.054917630524    -1.317116049132    -0.227647452191    12.000000000000
         H            0.704203630524     1.887036950868     0.961591547809     1.007825032230
         H           -0.880005269476     0.441221350868     1.936609647809     1.007825032230
         H            1.783723630524    -0.232047049132     1.469043547809     1.007825032230
         H           -1.994004369476    -1.397280049132     0.962775547809     1.007825032230
         H            0.843549630524    -1.147952049132    -1.288964452191     1.007825032230
         H            1.805861630524    -2.101804049132    -0.125509452191     1.007825032230
         H           -0.393104369476     2.011699950868    -1.082666452191     1.007825032230
         H           -2.341760369476     0.976280950868    -0.339070452191     1.007825032230
         H            2.399647630524     0.934879950868    -0.991799452191     1.007825032230
         H           -1.995694369476    -1.676676049132    -1.277491452191     1.007825032230

  Basis Set: AUG-CC-PVTZ
    Blend: AUG-CC-PVTZ
  Basis Set: (AUG-CC-PVTZ AUX)
    Blend: AUG-CC-PVTZ-JKFIT
	 Reference Energy          =    -569.6743918468077936 [Eh]
	 Singles Energy            =      -0.0000000000000000 [Eh]
	 Same-Spin Energy          =      -0.5546545439315391 [Eh]
	 Opposite-Spin Energy      =      -1.7038777261019420 [Eh]
	 Correlation Energy        =      -2.2585322700334811 [Eh]
	 Total Energy              =    -571.9329241168412636 [Eh]

	 ================> DF-SCS-MP2 Energies <==================
	-----------------------------------------------------------
	 SCS Same-Spin Scale       =       0.3333333333333333 [-]
	 SCS Opposite-Spin Scale   =       1.2000000000000000 [-]
	 SCS Same-Spin Energy      =      -0.1848848479771797 [Eh]
	 SCS Opposite-Spin Energy  =      -2.0446532713223302 [Eh]
	 SCS Correlation Energy    =      -2.2295381192995101 [Eh]
	 SCS Total Energy          =    -571.9039299661072846 [Eh]
	-----------------------------------------------------------

  Dipole Moment: [D]
     X:    -2.2065      Y:    -0.9829      Z:    -0.3488     Total:     2.4406

*** Psi4 exiting successfully. Buy a developer a beer!
