                               Psi4 1.3.2 release

  ==> Input File <==

--------------------------------------------------------------------------
#psi4
#
memory 32 gb

molecule  {
0 1
  O       -0.1147700    -1.8002930     0.4548730
  O        0.3584290     1.3939840    -1.0246780
  O       -1.9551560     1.3713260     0.4690830
  O        2.7148150     0.4505790    -0.2056670
  O       -1.6716310    -0.8002260    -0.9984850
  C        0.4229867     1.0114482     0.3246259
  C       -0.9093320     0.4742750     0.8400700
  C        1.5345100    -0.0288940     0.4204030
  C       -1.2151430    -0.9364420     0.3397180
  C        1.0549700    -1.3167000    -0.2286510
  H        0.7042560     1.8874530     0.9605880
  H       -0.8997430     0.4253999     1.9353540
  H        1.7837760    -0.2316310     1.4680400
  H       -1.9939520    -1.3968640     0.9617720
  H        0.8436020    -1.1475360    -1.2899680
  H        1.8059140    -2.1013880    -0.1265130
  H       -0.3930520     2.0121160    -1.0836700
  H       -2.3417080     0.9766970    -0.3400740
  H        2.3997000     0.9352960    -0.9928030
  H       -1.9956420    -1.6762600    -1.2784950
units angstrom
no_reorient  #important for SAPT in psi4, default
symmetry c1  #important for SAPT in psi4, default
}

set PROPERTIES_ORIGIN ["COM"]
properties('MP2/aug-cc-pvtz', properties = ['dipole'])
--------------------------------------------------------------------------

    Molecular point group: c1
  Charge       = 0
  Multiplicity = 1
  Basis Set: AUG-CC-PVTZ
    Blend: AUG-CC-PVTZ
  Basis Set: (AUG-CC-PVTZ AUX)
    Blend: AUG-CC-PVTZ-JKFIT

    Orbital Energies [Eh]
    ---------------------

    Doubly Occupied:

       1A    -20.591604     2A    -20.580576     3A    -20.574307
       4A    -20.574210     5A    -20.558136     6A    -11.353187
       7A    -11.297667     8A    -11.291580     9A    -11.285278
      10A    -11.277645    11A     -1.439012    12A     -1.397584
      13A     -1.375973    14A     -1.354066    15A     -1.350932
      16A     -1.057228    17A     -1.022765    18A     -0.897139
      19A     -0.869056    20A     -0.800266    21A     -0.753321
      22A     -0.727259    23A     -0.712482    24A     -0.697115
      25A     -0.672649    26A     -0.646049    27A     -0.621004
      28A     -0.616049    29A     -0.602568    30A     -0.584441
      31A     -0.571447    32A     -0.555401    33A     -0.546384
      34A     -0.516926    35A     -0.502264    36A     -0.491385
      37A     -0.487518    38A     -0.470729    39A     -0.439644
      40A     -0.413045

  @DF-RHF Final Energy:  -569.67412849479410

   => Energetics <=

    Nuclear Repulsion Energy =            634.1556399966266326
    One-Electron Energy =               -2042.5077523769411982
    Two-Electron Energy =                 838.6779838855204616
    Total Energy =                       -569.6741284947941040
  Basis Set: (AUG-CC-PVTZ AUX)
    Blend: AUG-CC-PVTZ-RI
    Molecular point group: c1

    Geometry (in Angstrom), charge = 0, multiplicity = 1:

       Center              X                  Y                   Z               Mass
    ------------   -----------------  -----------------  -----------------  -----------------
         O           -0.113962034061    -1.800078686058     0.456881959565    15.994914619570
         O            0.359236965939     1.394198313942    -1.022669040435    15.994914619570
         O           -1.954348034061     1.371540313942     0.471091959565    15.994914619570
         O            2.715622965939     0.450793313942    -0.203658040435    15.994914619570
         O           -1.670823034061    -0.800011686058    -0.996476040435    15.994914619570
         C            0.423794665939     1.011662513942     0.326634859565    12.000000000000
         C           -0.908524034061     0.474489313942     0.842078959565    12.000000000000
         C            1.535317965939    -0.028679686058     0.422411959565    12.000000000000
         C           -1.214335034061    -0.936227686058     0.341726959565    12.000000000000
         C            1.055777965939    -1.316485686058    -0.226642040435    12.000000000000
         H            0.705063965939     1.887667313942     0.962596959565     1.007825032230
         H           -0.898935034061     0.425614213942     1.937362959565     1.007825032230
         H            1.784583965939    -0.231416686058     1.470048959565     1.007825032230
         H           -1.993144034061    -1.396649686058     0.963780959565     1.007825032230
         H            0.844409965939    -1.147321686058    -1.287959040435     1.007825032230
         H            1.806721965939    -2.101173686058    -0.124504040435     1.007825032230
         H           -0.392244034061     2.012330313942    -1.081661040435     1.007825032230
         H           -2.340900034061     0.976911313942    -0.338065040435     1.007825032230
         H            2.400507965939     0.935510313942    -0.990794040435     1.007825032230
         H           -1.994834034061    -1.676045686058    -1.276486040435     1.007825032230

  Basis Set: AUG-CC-PVTZ
    Blend: AUG-CC-PVTZ
  Basis Set: (AUG-CC-PVTZ AUX)
    Blend: AUG-CC-PVTZ-JKFIT
	 Reference Energy          =    -569.6741284947941040 [Eh]
	 Singles Energy            =      -0.0000000000000000 [Eh]
	 Same-Spin Energy          =      -0.5546633644479002 [Eh]
	 Opposite-Spin Energy      =      -1.7036777493943136 [Eh]
	 Correlation Energy        =      -2.2583411138422136 [Eh]
	 Total Energy              =    -571.9324696086363247 [Eh]

	 ================> DF-SCS-MP2 Energies <==================
	-----------------------------------------------------------
	 SCS Same-Spin Scale       =       0.3333333333333333 [-]
	 SCS Opposite-Spin Scale   =       1.2000000000000000 [-]
	 SCS Same-Spin Energy      =      -0.1848877881493001 [Eh]
	 SCS Opposite-Spin Energy  =      -2.0444132992731761 [Eh]
	 SCS Correlation Energy    =      -2.2293010874224759 [Eh]
	 SCS Total Energy          =    -571.9034295822166314 [Eh]
	-----------------------------------------------------------

  Dipole Moment: [D]
     X:    -2.1968      Y:    -0.9824      Z:    -0.3697     Total:     2.4347

*** Psi4 exiting successfully. Buy a developer a beer!
