                               Psi4 1.3.2 release

  ==> Input File <==

--------------------------------------------------------------------------
#psi4
#
memory 32 gb

molecule  {
0 1
  O       -0.1147700    -1.8002930     0.4548730
  O        0.3584290     1.3939840    -1.0246780
  O       -1.9551560     1.3713260     0.4690830
  O        2.7148150     0.4505790    -0.2056670
  O       -1.6716310    -0.8002260    -0.9984850
  C        0.4315910     1.0135520     0.3497470
  C       -0.9093320     0.4742750     0.8400700
  C        1.5345100    -0.0288940     0.4204030
  C       -1.2141366    -0.9275052     0.3146166
  C        1.0549700    -1.3167000    -0.2286510
  H        0.7042560     1.8874530     0.9605880
  H       -0.8780250     0.4510074     1.9357918
  H        1.7837760    -0.2316310     1.4680400
  H       -1.9939520    -1.3968640     0.9617720
  H        0.8436020    -1.1475360    -1.2899680
  H        1.8059140    -2.1013880    -0.1265130
  H       -0.3930520     2.0121160    -1.0836700
  H       -2.3417080     0.9766970    -0.3400740
  H        2.3997000     0.9352960    -0.9928030
  H       -1.9956420    -1.6762600    -1.2784950
units angstrom
no_reorient  #important for SAPT in psi4, default
symmetry c1  #important for SAPT in psi4, default
}

set PROPERTIES_ORIGIN ["COM"]
properties('MP2/aug-cc-pvtz', properties = ['dipole'])
--------------------------------------------------------------------------

    Molecular point group: c1
  Charge       = 0
  Multiplicity = 1
  Basis Set: AUG-CC-PVTZ
    Blend: AUG-CC-PVTZ
  Basis Set: (AUG-CC-PVTZ AUX)
    Blend: AUG-CC-PVTZ-JKFIT

    Orbital Energies [Eh]
    ---------------------

    Doubly Occupied:

       1A    -20.595674     2A    -20.579664     3A    -20.574497
       4A    -20.571310     5A    -20.557951     6A    -11.354262
       7A    -11.298146     8A    -11.290407     9A    -11.285214
      10A    -11.277237    11A     -1.443161    12A     -1.391920
      13A     -1.376118    14A     -1.357438    15A     -1.347653
      16A     -1.058787    17A     -1.020942    18A     -0.898658
      19A     -0.868924    20A     -0.800202    21A     -0.753098
      22A     -0.728741    23A     -0.711842    24A     -0.697672
      25A     -0.670504    26A     -0.646375    27A     -0.621969
      28A     -0.613348    29A     -0.603821    30A     -0.585291
      31A     -0.572225    32A     -0.556329    33A     -0.542923
      34A     -0.516412    35A     -0.500263    36A     -0.490635
      37A     -0.489268    38A     -0.471425    39A     -0.439143
      40A     -0.414847

  @DF-RHF Final Energy:  -569.67377045567093

   => Energetics <=

    Nuclear Repulsion Energy =            634.1473539507381929
    One-Electron Energy =               -2042.4936519039663381
    Two-Electron Energy =                 838.6725274975573257
    Total Energy =                       -569.6737704556709332
  Basis Set: (AUG-CC-PVTZ AUX)
    Blend: AUG-CC-PVTZ-RI
    Molecular point group: c1

    Geometry (in Angstrom), charge = 0, multiplicity = 1:

       Center              X                  Y                   Z               Mass
    ------------   -----------------  -----------------  -----------------  -----------------
         O           -0.114876487658    -1.801133615089     0.456877443650    15.994914619570
         O            0.358322512342     1.393143384911    -1.022673556350    15.994914619570
         O           -1.955262487658     1.370485384911     0.471087443650    15.994914619570
         O            2.714708512342     0.449738384911    -0.203662556350    15.994914619570
         O           -1.671737487658    -0.801066615089    -0.996480556350    15.994914619570
         C            0.431484512342     1.012711384911     0.351751443650    12.000000000000
         C           -0.909438487658     0.473434384911     0.842074443650    12.000000000000
         C            1.534403512342    -0.029734615089     0.422407443650    12.000000000000
         C           -1.214243087658    -0.928345815089     0.316621043650    12.000000000000
         C            1.054863512342    -1.317540615089    -0.226646556350    12.000000000000
         H            0.704149512342     1.886612384911     0.962592443650     1.007825032230
         H           -0.878131487658     0.450166784911     1.937796243650     1.007825032230
         H            1.783669512342    -0.232471615089     1.470044443650     1.007825032230
         H           -1.994058487658    -1.397704615089     0.963776443650     1.007825032230
         H            0.843495512342    -1.148376615089    -1.287963556350     1.007825032230
         H            1.805807512342    -2.102228615089    -0.124508556350     1.007825032230
         H           -0.393158487658     2.011275384911    -1.081665556350     1.007825032230
         H           -2.341814487658     0.975856384911    -0.338069556350     1.007825032230
         H            2.399593512342     0.934455384911    -0.990798556350     1.007825032230
         H           -1.995748487658    -1.677100615089    -1.276490556350     1.007825032230

  Basis Set: AUG-CC-PVTZ
    Blend: AUG-CC-PVTZ
  Basis Set: (AUG-CC-PVTZ AUX)
    Blend: AUG-CC-PVTZ-JKFIT
	 Reference Energy          =    -569.6737704556709332 [Eh]
	 Singles Energy            =      -0.0000000000000000 [Eh]
	 Same-Spin Energy          =      -0.5546996863490702 [Eh]
	 Opposite-Spin Energy      =      -1.7038587170068686 [Eh]
	 Correlation Energy        =      -2.2585584033559387 [Eh]
	 Total Energy              =    -571.9323288590268248 [Eh]

	 ================> DF-SCS-MP2 Energies <==================
	-----------------------------------------------------------
	 SCS Same-Spin Scale       =       0.3333333333333333 [-]
	 SCS Opposite-Spin Scale   =       1.2000000000000000 [-]
	 SCS Same-Spin Energy      =      -0.1848998954496900 [Eh]
	 SCS Opposite-Spin Energy  =      -2.0446304604082424 [Eh]
	 SCS Correlation Energy    =      -2.2295303558579325 [Eh]
	 SCS Total Energy          =    -571.9033008115288794 [Eh]
	-----------------------------------------------------------

  Dipole Moment: [D]
     X:    -2.2306      Y:    -0.9715      Z:    -0.3986     Total:     2.4654

*** Psi4 exiting successfully. Buy a developer a beer!
