                               Psi4 1.3.2 release

  ==> Input File <==

--------------------------------------------------------------------------
#psi4
#
memory 32 gb

molecule  {
0 1
  O       -0.1147700    -1.8002930     0.4548730
  O        0.3584290     1.3939840    -1.0246780
  O       -1.9551560     1.3713260     0.4690830
  O        2.7148150     0.4505790    -0.2056670
  O       -1.6716310    -0.8002260    -0.9984850
  C        0.4315910     1.0135520     0.3497470
  C       -0.9093320     0.4742750     0.8400700
  C        1.6797027    -0.1661258     0.4297044
  C       -1.2151430    -0.9364420     0.3397180
  C        1.0549700    -1.3167000    -0.2286510
  H        0.7042560     1.8874530     0.9605880
  H       -0.8818830     0.4322700     1.9353370
  H        1.7837760    -0.2316310     1.4680400
  H       -1.9939520    -1.3968640     0.9617720
  H        0.8436020    -1.1475360    -1.2899680
  H        1.8059140    -2.1013880    -0.1265130
  H       -0.3930520     2.0121160    -1.0836700
  H       -2.3417080     0.9766970    -0.3400740
  H        2.3997000     0.9352960    -0.9928030
  H       -1.9956420    -1.6762600    -1.2784950
units angstrom
no_reorient  #important for SAPT in psi4, default
symmetry c1  #important for SAPT in psi4, default
}

set PROPERTIES_ORIGIN ["COM"]
properties('MP2/aug-cc-pvtz', properties = ['dipole'])
--------------------------------------------------------------------------

    Molecular point group: c1
  Charge       = 0
  Multiplicity = 1
  Basis Set: AUG-CC-PVTZ
    Blend: AUG-CC-PVTZ
  Basis Set: (AUG-CC-PVTZ AUX)
    Blend: AUG-CC-PVTZ-JKFIT

    Orbital Energies [Eh]
    ---------------------

    Doubly Occupied:

       1A    -20.590387     2A    -20.584165     3A    -20.569672
       4A    -20.567407     5A    -20.563343     6A    -11.351983
       7A    -11.292536     8A    -11.292112     9A    -11.285994
      10A    -11.278239    11A     -1.437993    12A     -1.393288
      13A     -1.379654    14A     -1.357809    15A     -1.348944
      16A     -1.040762    17A     -1.029828    18A     -0.893888
      19A     -0.865940    20A     -0.801157    21A     -0.754127
      22A     -0.723127    23A     -0.711353    24A     -0.694014
      25A     -0.677034    26A     -0.653903    27A     -0.629937
      28A     -0.612171    29A     -0.603514    30A     -0.592166
      31A     -0.574403    32A     -0.555162    33A     -0.541155
      34A     -0.507446    35A     -0.502655    36A     -0.491782
      37A     -0.489171    38A     -0.464655    39A     -0.426496
      40A     -0.391533

  @DF-RHF Final Energy:  -569.64427908922778

   => Energetics <=

    Nuclear Repulsion Energy =            631.5798927401026504
    One-Electron Energy =               -2037.4065308401682159
    Two-Electron Energy =                 836.1823590108377857
    Total Energy =                       -569.6442790892277799
  Basis Set: (AUG-CC-PVTZ AUX)
    Blend: AUG-CC-PVTZ-RI
    Molecular point group: c1

    Geometry (in Angstrom), charge = 0, multiplicity = 1:

       Center              X                  Y                   Z               Mass
    ------------   -----------------  -----------------  -----------------  -----------------
         O           -0.126381418866    -1.789318394419     0.454129243171    15.994914619570
         O            0.346817581134     1.404958605581    -1.025421756829    15.994914619570
         O           -1.966767418866     1.382300605581     0.468339243171    15.994914619570
         O            2.703203581134     0.461553605581    -0.206410756829    15.994914619570
         O           -1.683242418866    -0.789251394419    -0.999228756829    15.994914619570
         C            0.419979581134     1.024526605581     0.349003243171    12.000000000000
         C           -0.920943418866     0.485249605581     0.839326243171    12.000000000000
         C            1.668091281134    -0.155151194419     0.428960643171    12.000000000000
         C           -1.226754418866    -0.925467394419     0.338974243171    12.000000000000
         C            1.043358581134    -1.305725394419    -0.229394756829    12.000000000000
         H            0.692644581134     1.898427605581     0.959844243171     1.007825032230
         H           -0.893494418866     0.443244605581     1.934593243171     1.007825032230
         H            1.772164581134    -0.220656394419     1.467296243171     1.007825032230
         H           -2.005563418866    -1.385889394419     0.961028243171     1.007825032230
         H            0.831990581134    -1.136561394419    -1.290711756829     1.007825032230
         H            1.794302581134    -2.090413394419    -0.127256756829     1.007825032230
         H           -0.404663418866     2.023090605581    -1.084413756829     1.007825032230
         H           -2.353319418866     0.987671605581    -0.340817756829     1.007825032230
         H            2.388088581134     0.946270605581    -0.993546756829     1.007825032230
         H           -2.007253418866    -1.665285394419    -1.279238756829     1.007825032230

  Basis Set: AUG-CC-PVTZ
    Blend: AUG-CC-PVTZ
  Basis Set: (AUG-CC-PVTZ AUX)
    Blend: AUG-CC-PVTZ-JKFIT
	 Reference Energy          =    -569.6442790892277799 [Eh]
	 Singles Energy            =      -0.0000000000000000 [Eh]
	 Same-Spin Energy          =      -0.5553587071150528 [Eh]
	 Opposite-Spin Energy      =      -1.7047440568743224 [Eh]
	 Correlation Energy        =      -2.2601027639893752 [Eh]
	 Total Energy              =    -571.9043818532171599 [Eh]

	 ================> DF-SCS-MP2 Energies <==================
	-----------------------------------------------------------
	 SCS Same-Spin Scale       =       0.3333333333333333 [-]
	 SCS Opposite-Spin Scale   =       1.2000000000000000 [-]
	 SCS Same-Spin Energy      =      -0.1851195690383509 [Eh]
	 SCS Opposite-Spin Energy  =      -2.0456928682491866 [Eh]
	 SCS Correlation Energy    =      -2.2308124372875375 [Eh]
	 SCS Total Energy          =    -571.8750915265153481 [Eh]
	-----------------------------------------------------------

  Dipole Moment: [D]
     X:    -1.8322      Y:    -1.1000      Z:    -0.3531     Total:     2.1660

*** Psi4 exiting successfully. Buy a developer a beer!
