                               Psi4 1.3.2 release

  ==> Input File <==

--------------------------------------------------------------------------
#psi4
#
memory 32 gb

molecule  {
0 1
  O       -0.1147700    -1.8002930     0.4548730
  O        0.3584290     1.3939840    -1.0246780
  O       -1.9551560     1.3713260     0.4690830
  O        2.7148150     0.4505790    -0.2056670
  O       -1.6716310    -0.8002260    -0.9984850
  C        0.4413787     1.0062865     0.3471585
  C       -0.9093320     0.4742750     0.8400700
  C        1.5345100    -0.0288940     0.4204030
  C       -1.2151430    -0.9364420     0.3397180
  C        1.0549700    -1.3167000    -0.2286510
  H        0.7042560     1.8874530     0.9605880
  H       -0.8818830     0.4322700     1.9353370
  H        1.7837760    -0.2316310     1.4680400
  H       -1.9939520    -1.3968640     0.9617720
  H        0.8436020    -1.1475360    -1.2899680
  H        1.8059140    -2.1013880    -0.1265130
  H       -0.3916611     2.0129514    -1.0920208
  H       -2.3417080     0.9766970    -0.3400740
  H        2.3997000     0.9352960    -0.9928030
  H       -1.9956420    -1.6762600    -1.2784950
units angstrom
no_reorient  #important for SAPT in psi4, default
symmetry c1  #important for SAPT in psi4, default
}

set PROPERTIES_ORIGIN ["COM"]
properties('MP2/aug-cc-pvtz', properties = ['dipole'])
--------------------------------------------------------------------------

    Molecular point group: c1
  Charge       = 0
  Multiplicity = 1
  Basis Set: AUG-CC-PVTZ
    Blend: AUG-CC-PVTZ
  Basis Set: (AUG-CC-PVTZ AUX)
    Blend: AUG-CC-PVTZ-JKFIT

    Orbital Energies [Eh]
    ---------------------

    Doubly Occupied:

       1A    -20.591501     2A    -20.580778     3A    -20.574734
       4A    -20.570777     5A    -20.558294     6A    -11.353587
       7A    -11.298553     8A    -11.291423     9A    -11.285392
      10A    -11.278284    11A     -1.438648    12A     -1.391191
      13A     -1.375806    14A     -1.353911    15A     -1.347575
      16A     -1.059879    17A     -1.023053    18A     -0.898815
      19A     -0.870112    20A     -0.798884    21A     -0.752295
      22A     -0.727139    23A     -0.711774    24A     -0.696118
      25A     -0.670155    26A     -0.646086    27A     -0.620856
      28A     -0.614706    29A     -0.602289    30A     -0.584784
      31A     -0.571865    32A     -0.556050    33A     -0.541644
      34A     -0.516839    35A     -0.502433    36A     -0.490809
      37A     -0.487735    38A     -0.472643    39A     -0.440268
      40A     -0.415327

  @DF-RHF Final Energy:  -569.67448633529864

   => Energetics <=

    Nuclear Repulsion Energy =            633.8838676448103797
    One-Electron Energy =               -2041.9906876000104603
    Two-Electron Energy =                 838.4323336199014420
    Total Energy =                       -569.6744863352986386
  Basis Set: (AUG-CC-PVTZ AUX)
    Blend: AUG-CC-PVTZ-RI
    Molecular point group: c1

    Geometry (in Angstrom), charge = 0, multiplicity = 1:

       Center              X                  Y                   Z               Mass
    ------------   -----------------  -----------------  -----------------  -----------------
         O           -0.115562174155    -1.799717649171     0.455136188204    15.994914619570
         O            0.357636825845     1.394559350829    -1.024414811796    15.994914619570
         O           -1.955948174155     1.371901350829     0.469346188204    15.994914619570
         O            2.714022825845     0.451154350829    -0.205403811796    15.994914619570
         O           -1.672423174155    -0.799650649171    -0.998221811796    15.994914619570
         C            0.440586525845     1.006861850829     0.347421688204    12.000000000000
         C           -0.910124174155     0.474850350829     0.840333188204    12.000000000000
         C            1.533717825845    -0.028318649171     0.420666188204    12.000000000000
         C           -1.215935174155    -0.935866649171     0.339981188204    12.000000000000
         C            1.054177825845    -1.316124649171    -0.228387811796    12.000000000000
         H            0.703463825845     1.888028350829     0.960851188204     1.007825032230
         H           -0.882675174155     0.432845350829     1.935600188204     1.007825032230
         H            1.782983825845    -0.231055649171     1.468303188204     1.007825032230
         H           -1.994744174155    -1.396288649171     0.962035188204     1.007825032230
         H            0.842809825845    -1.146960649171    -1.289704811796     1.007825032230
         H            1.805121825845    -2.100812649171    -0.126249811796     1.007825032230
         H           -0.392453274155     2.013526750829    -1.091757611796     1.007825032230
         H           -2.342500174155     0.977272350829    -0.339810811796     1.007825032230
         H            2.398907825845     0.935871350829    -0.992539811796     1.007825032230
         H           -1.996434174155    -1.675684649171    -1.278231811796     1.007825032230

  Basis Set: AUG-CC-PVTZ
    Blend: AUG-CC-PVTZ
  Basis Set: (AUG-CC-PVTZ AUX)
    Blend: AUG-CC-PVTZ-JKFIT
	 Reference Energy          =    -569.6744863352986386 [Eh]
	 Singles Energy            =      -0.0000000000000000 [Eh]
	 Same-Spin Energy          =      -0.5546240456147014 [Eh]
	 Opposite-Spin Energy      =      -1.7038777500064393 [Eh]
	 Correlation Energy        =      -2.2585017956211404 [Eh]
	 Total Energy              =    -571.9329881309197390 [Eh]

	 ================> DF-SCS-MP2 Energies <==================
	-----------------------------------------------------------
	 SCS Same-Spin Scale       =       0.3333333333333333 [-]
	 SCS Opposite-Spin Scale   =       1.2000000000000000 [-]
	 SCS Same-Spin Energy      =      -0.1848746818715671 [Eh]
	 SCS Opposite-Spin Energy  =      -2.0446533000077269 [Eh]
	 SCS Correlation Energy    =      -2.2295279818792939 [Eh]
	 SCS Total Energy          =    -571.9040143171779391 [Eh]
	-----------------------------------------------------------

  Dipole Moment: [D]
     X:    -2.1772      Y:    -0.9964      Z:    -0.3103     Total:     2.4144

*** Psi4 exiting successfully. Buy a developer a beer!
