                               Psi4 1.3.2 release

  ==> Input File <==

--------------------------------------------------------------------------
#psi4
#
memory 32 gb

molecule  {
0 1
  O       -0.1147700    -1.8002930     0.4548730
  O        0.3584290     1.3939840    -1.0246780
  O       -1.9551560     1.3713260     0.4690830
  O        2.7148150     0.4505790    -0.2056670
  O       -1.6716310    -0.8002260    -0.9984850
  C        0.4315910     1.0135520     0.3497470
  C       -0.9093320     0.4742750     0.8400700
  C        1.5414025    -0.0341309     0.4292639
  C       -1.2151430    -0.9364420     0.3397180
  C        1.0549700    -1.3167000    -0.2286510
  H        0.7042560     1.8874530     0.9605880
  H       -0.8818830     0.4322700     1.9353370
  H        1.7837760    -0.2316310     1.4680400
  H       -1.9939520    -1.3968640     0.9617720
  H        0.8436020    -1.1475360    -1.2899680
  H        1.8059140    -2.1013880    -0.1265130
  H       -0.3930520     2.0121160    -1.0836700
  H       -2.3417080     0.9766970    -0.3400740
  H        2.4077652     0.9371399    -0.9948501
  H       -1.9956420    -1.6762600    -1.2784950
units angstrom
no_reorient  #important for SAPT in psi4, default
symmetry c1  #important for SAPT in psi4, default
}

set PROPERTIES_ORIGIN ["COM"]
properties('MP2/aug-cc-pvtz', properties = ['dipole'])
--------------------------------------------------------------------------

    Molecular point group: c1
  Charge       = 0
  Multiplicity = 1
  Basis Set: AUG-CC-PVTZ
    Blend: AUG-CC-PVTZ
  Basis Set: (AUG-CC-PVTZ AUX)
    Blend: AUG-CC-PVTZ-JKFIT

    Orbital Energies [Eh]
    ---------------------

    Doubly Occupied:

       1A    -20.591457     2A    -20.580649     3A    -20.574316
       4A    -20.570954     5A    -20.557793     6A    -11.353679
       7A    -11.298028     8A    -11.291030     9A    -11.285616
      10A    -11.278120    11A     -1.438527    12A     -1.390861
      13A     -1.375265    14A     -1.353728    15A     -1.347297
      16A     -1.057870    17A     -1.022858    18A     -0.897845
      19A     -0.870230    20A     -0.799047    21A     -0.752165
      22A     -0.726886    23A     -0.711581    24A     -0.695787
      25A     -0.669771    26A     -0.646609    27A     -0.620912
      28A     -0.613536    29A     -0.602718    30A     -0.586114
      31A     -0.571445    32A     -0.555243    33A     -0.542753
      34A     -0.516220    35A     -0.502423    36A     -0.490702
      37A     -0.487667    38A     -0.471616    39A     -0.439484
      40A     -0.415354

  @DF-RHF Final Energy:  -569.67474195302771

   => Energetics <=

    Nuclear Repulsion Energy =            633.5971976418145459
    One-Electron Energy =               -2041.4355635750623605
    Two-Electron Energy =                 838.1636239802201089
    Total Energy =                       -569.6747419530277057
  Basis Set: (AUG-CC-PVTZ AUX)
    Blend: AUG-CC-PVTZ-RI
    Molecular point group: c1

    Geometry (in Angstrom), charge = 0, multiplicity = 1:

       Center              X                  Y                   Z               Mass
    ------------   -----------------  -----------------  -----------------  -----------------
         O           -0.115375467415    -1.799886653599     0.454178220047    15.994914619570
         O            0.357823532585     1.394390346401    -1.025372779953    15.994914619570
         O           -1.955761467415     1.371732346401     0.468388220047    15.994914619570
         O            2.714209532585     0.450985346401    -0.206361779953    15.994914619570
         O           -1.672236467415    -0.799819653599    -0.999179779953    15.994914619570
         C            0.430985532585     1.013958346401     0.349052220047    12.000000000000
         C           -0.909937467415     0.474681346401     0.839375220047    12.000000000000
         C            1.540797032585    -0.033724553599     0.428569120047    12.000000000000
         C           -1.215748467415    -0.936035653599     0.339023220047    12.000000000000
         C            1.054364532585    -1.316293653599    -0.229345779953    12.000000000000
         H            0.703650532585     1.887859346401     0.959893220047     1.007825032230
         H           -0.882488467415     0.432676346401     1.934642220047     1.007825032230
         H            1.783170532585    -0.231224653599     1.467345220047     1.007825032230
         H           -1.994557467415    -1.396457653599     0.961077220047     1.007825032230
         H            0.842996532585    -1.147129653599    -1.290662779953     1.007825032230
         H            1.805308532585    -2.100981653599    -0.127207779953     1.007825032230
         H           -0.393657467415     2.012522346401    -1.084364779953     1.007825032230
         H           -2.342313467415     0.977103346401    -0.340768779953     1.007825032230
         H            2.407159732585     0.937546246401    -0.995544879953     1.007825032230
         H           -1.996247467415    -1.675853653599    -1.279189779953     1.007825032230

  Basis Set: AUG-CC-PVTZ
    Blend: AUG-CC-PVTZ
  Basis Set: (AUG-CC-PVTZ AUX)
    Blend: AUG-CC-PVTZ-JKFIT
	 Reference Energy          =    -569.6747419530277057 [Eh]
	 Singles Energy            =      -0.0000000000000000 [Eh]
	 Same-Spin Energy          =      -0.5545012786201611 [Eh]
	 Opposite-Spin Energy      =      -1.7037419484734722 [Eh]
	 Correlation Energy        =      -2.2582432270936330 [Eh]
	 Total Energy              =    -571.9329851801213636 [Eh]

	 ================> DF-SCS-MP2 Energies <==================
	-----------------------------------------------------------
	 SCS Same-Spin Scale       =       0.3333333333333333 [-]
	 SCS Opposite-Spin Scale   =       1.2000000000000000 [-]
	 SCS Same-Spin Energy      =      -0.1848337595400537 [Eh]
	 SCS Opposite-Spin Energy  =      -2.0444903381681665 [Eh]
	 SCS Correlation Energy    =      -2.2293240977082203 [Eh]
	 SCS Total Energy          =    -571.9040660507358780 [Eh]
	-----------------------------------------------------------

  Dipole Moment: [D]
     X:    -2.1580      Y:    -0.9983      Z:    -0.2943     Total:     2.3958

*** Psi4 exiting successfully. Buy a developer a beer!
