                               Psi4 1.3.2 release

  ==> Input File <==

--------------------------------------------------------------------------
#psi4
#
memory 32 gb

molecule  {
0 1
  O       -0.1147700    -1.8002930     0.4548730
  O        0.3584290     1.3939840    -1.0246780
  O       -1.9551560     1.3713260     0.4690830
  O        2.7148150     0.4505790    -0.2056670
  O       -1.6716310    -0.8002260    -0.9984850
  C        0.4315910     1.0135520     0.3497470
  C       -0.9093320     0.4742750     0.8400700
  C        1.5345100    -0.0288940     0.4204030
  C       -1.2351602    -1.0287820     0.3069669
  C        1.0549700    -1.3167000    -0.2286510
  H        0.7042560     1.8874530     0.9605880
  H       -0.8818830     0.4322700     1.9353370
  H        1.7837760    -0.2316310     1.4680400
  H       -1.9939520    -1.3968640     0.9617720
  H        0.8436020    -1.1475360    -1.2899680
  H        1.8059140    -2.1013880    -0.1265130
  H       -0.3930520     2.0121160    -1.0836700
  H       -2.3417080     0.9766970    -0.3400740
  H        2.3997000     0.9352960    -0.9928030
  H       -1.9956420    -1.6762600    -1.2784950
units angstrom
no_reorient  #important for SAPT in psi4, default
symmetry c1  #important for SAPT in psi4, default
}

set PROPERTIES_ORIGIN ["COM"]
properties('MP2/aug-cc-pvtz', properties = ['dipole'])
--------------------------------------------------------------------------

    Molecular point group: c1
  Charge       = 0
  Multiplicity = 1
  Basis Set: AUG-CC-PVTZ
    Blend: AUG-CC-PVTZ
  Basis Set: (AUG-CC-PVTZ AUX)
    Blend: AUG-CC-PVTZ-JKFIT

    Orbital Energies [Eh]
    ---------------------

    Doubly Occupied:

       1A    -20.598009     2A    -20.582057     3A    -20.570053
       4A    -20.568961     5A    -20.557781     6A    -11.352801
       7A    -11.294067     8A    -11.288034     9A    -11.284941
      10A    -11.280961    11A     -1.449702    12A     -1.390123
      13A     -1.378908    14A     -1.359856    15A     -1.345880
      16A     -1.053691    17A     -1.015731    18A     -0.890612
      19A     -0.871757    20A     -0.796834    21A     -0.755758
      22A     -0.727492    23A     -0.717536    24A     -0.695107
      25A     -0.669553    26A     -0.645500    27A     -0.626947
      28A     -0.614186    29A     -0.601072    30A     -0.585896
      31A     -0.578133    32A     -0.551397    33A     -0.541075
      34A     -0.514227    35A     -0.510471    36A     -0.491544
      37A     -0.477926    38A     -0.469983    39A     -0.438581
      40A     -0.403691

  @DF-RHF Final Energy:  -569.66661735595210

   => Energetics <=

    Nuclear Repulsion Energy =            632.9133997037229165
    One-Electron Energy =               -2040.0663587637682213
    Two-Electron Energy =                 837.4863417040932063
    Total Energy =                       -569.6666173559520985
  Basis Set: (AUG-CC-PVTZ AUX)
    Blend: AUG-CC-PVTZ-RI
    Molecular point group: c1

    Geometry (in Angstrom), charge = 0, multiplicity = 1:

       Center              X                  Y                   Z               Mass
    ------------   -----------------  -----------------  -----------------  -----------------
         O           -0.113169279602    -1.792908474151     0.457492258864    15.994914619570
         O            0.360029720398     1.401368525849    -1.022058741136    15.994914619570
         O           -1.953555279602     1.378710525849     0.471702258864    15.994914619570
         O            2.716415720398     0.457963525849    -0.203047741136    15.994914619570
         O           -1.670030279602    -0.792841474151    -0.995865741136    15.994914619570
         C            0.433191720398     1.020936525849     0.352366258864    12.000000000000
         C           -0.907731279602     0.481659525849     0.842689258864    12.000000000000
         C            1.536110720398    -0.021509474151     0.423022258864    12.000000000000
         C           -1.233559479602    -1.021397474151     0.309586158864    12.000000000000
         C            1.056570720398    -1.309315474151    -0.226031741136    12.000000000000
         H            0.705856720398     1.894837525849     0.963207258864     1.007825032230
         H           -0.880282279602     0.439654525849     1.937956258864     1.007825032230
         H            1.785376720398    -0.224246474151     1.470659258864     1.007825032230
         H           -1.992351279602    -1.389479474151     0.964391258864     1.007825032230
         H            0.845202720398    -1.140151474151    -1.287348741136     1.007825032230
         H            1.807514720398    -2.094003474151    -0.123893741136     1.007825032230
         H           -0.391451279602     2.019500525849    -1.081050741136     1.007825032230
         H           -2.340107279602     0.984081525849    -0.337454741136     1.007825032230
         H            2.401300720398     0.942680525849    -0.990183741136     1.007825032230
         H           -1.994041279602    -1.668875474151    -1.275875741136     1.007825032230

  Basis Set: AUG-CC-PVTZ
    Blend: AUG-CC-PVTZ
  Basis Set: (AUG-CC-PVTZ AUX)
    Blend: AUG-CC-PVTZ-JKFIT
	 Reference Energy          =    -569.6666173559520985 [Eh]
	 Singles Energy            =      -0.0000000000000000 [Eh]
	 Same-Spin Energy          =      -0.5545299218587967 [Eh]
	 Opposite-Spin Energy      =      -1.7034562609973429 [Eh]
	 Correlation Energy        =      -2.2579861828561398 [Eh]
	 Total Energy              =    -571.9246035388082419 [Eh]

	 ================> DF-SCS-MP2 Energies <==================
	-----------------------------------------------------------
	 SCS Same-Spin Scale       =       0.3333333333333333 [-]
	 SCS Opposite-Spin Scale   =       1.2000000000000000 [-]
	 SCS Same-Spin Energy      =      -0.1848433072862656 [Eh]
	 SCS Opposite-Spin Energy  =      -2.0441475131968114 [Eh]
	 SCS Correlation Energy    =      -2.2289908204830771 [Eh]
	 SCS Total Energy          =    -571.8956081764351893 [Eh]
	-----------------------------------------------------------

  Dipole Moment: [D]
     X:    -2.2046      Y:    -1.2557      Z:    -0.4456     Total:     2.5760

*** Psi4 exiting successfully. Buy a developer a beer!
