                               Psi4 1.4a3.dev225

  ==> Input File <==

--------------------------------------------------------------------------
#psi4
#
memory 32 gb

molecule  {
0 1
  O       -0.2343850     1.7978400    -0.4145210
  O        0.4791390    -1.3900560     0.9851260
  O       -1.8902550    -1.4798720    -0.4079610
  O        2.7489250    -0.2990660     0.0843650
  O       -1.6766260     0.6849030     1.0797040
  C        0.4758930    -0.9871420    -0.3839460
  C       -0.9153110    -0.5160320    -0.8112700
  C        1.4807180     0.0841577    -0.4779282
  C       -1.2794180     0.8705190    -0.2725550
  C        0.9914930     1.3693070     0.2124490
  H        0.7732420    -1.8350180    -1.0199460
  H       -0.9367810    -0.4539690    -1.9062570
  H        1.7061480     0.3550680    -1.5342930
  H       -2.1075740     1.2945610    -0.8542440
  H        0.8333730     1.1741050     1.2776920
  H        1.6908660     2.1982840     0.0933200
  H       -0.2684360    -2.0097880     1.0741120
  H       -2.2907410    -1.1048270     0.4011470
  H        2.5001980    -0.8049050     0.8819700
  H       -2.0397460     1.5332780     1.3914430
units angstrom
no_reorient  #important for SAPT in psi4, default
symmetry c1  #important for SAPT in psi4, default
}

set PROPERTIES_ORIGIN ["COM"]
properties('MP2/aug-cc-pvtz', properties = ['dipole'])
--------------------------------------------------------------------------

    Molecular point group: c1
  Charge       = 0
  Multiplicity = 1
  Basis Set: AUG-CC-PVTZ
    Blend: AUG-CC-PVTZ
  Basis Set: (AUG-CC-PVTZ AUX)
    Blend: AUG-CC-PVTZ-JKFIT

    Orbital Energies [Eh]
    ---------------------

    Doubly Occupied:

       1A    -20.592346     2A    -20.580478     3A    -20.576321
       4A    -20.570929     5A    -20.557692     6A    -11.355368
       7A    -11.301115     8A    -11.290868     9A    -11.286380
      10A    -11.279833    11A     -1.438384    12A     -1.391966
      13A     -1.374812    14A     -1.353946    15A     -1.343877
      16A     -1.065330    17A     -1.021013    18A     -0.901139
      19A     -0.871210    20A     -0.796214    21A     -0.752151
      22A     -0.728648    23A     -0.712838    24A     -0.696464
      25A     -0.668305    26A     -0.644759    27A     -0.619103
      28A     -0.615434    29A     -0.602109    30A     -0.581303
      31A     -0.571105    32A     -0.556096    33A     -0.542830
      34A     -0.518362    35A     -0.503122    36A     -0.491370
      37A     -0.486361    38A     -0.474850    39A     -0.445029
      40A     -0.413858

  @DF-RHF Final Energy:  -569.67083144719209

   => Energetics <=

    Nuclear Repulsion Energy =            633.7016254566439102
    One-Electron Energy =               -2041.5982802667240321
    Two-Electron Energy =                 838.2258233628881499
    Total Energy =                       -569.6708314471920858
  Basis Set: (AUG-CC-PVTZ AUX)
    Blend: AUG-CC-PVTZ-RI
    Molecular point group: c1

    Geometry (in Angstrom), charge = 0, multiplicity = 1:

       Center              X                  Y                   Z               Mass
    ------------   -----------------  -----------------  -----------------  -----------------
         O           -0.232596568085     1.803020223203    -0.416020981374    15.994914619570
         O            0.480927431915    -1.384875776797     0.983626018626    15.994914619570
         O           -1.888466568085    -1.474691776797    -0.409460981374    15.994914619570
         O            2.750713431915    -0.293885776797     0.082865018626    15.994914619570
         O           -1.674837568085     0.690083223203     1.078204018626    15.994914619570
         C            0.477681431915    -0.981961776797    -0.385445981374    12.000000000000
         C           -0.913522568085    -0.510851776797    -0.812769981374    12.000000000000
         C            1.482506431915     0.089337923203    -0.479428181374    12.000000000000
         C           -1.277629568085     0.875699223203    -0.274054981374    12.000000000000
         C            0.993281431915     1.374487223203     0.210949018626    12.000000000000
         H            0.775030431915    -1.829837776797    -1.021445981374     1.007825032230
         H           -0.934992568085    -0.448788776797    -1.907756981374     1.007825032230
         H            1.707936431915     0.360248223203    -1.535792981374     1.007825032230
         H           -2.105785568085     1.299741223203    -0.855743981374     1.007825032230
         H            0.835161431915     1.179285223203     1.276192018626     1.007825032230
         H            1.692654431915     2.203464223203     0.091820018626     1.007825032230
         H           -0.266647568085    -2.004607776797     1.072612018626     1.007825032230
         H           -2.288952568085    -1.099646776797     0.399647018626     1.007825032230
         H            2.501986431915    -0.799724776797     0.880470018626     1.007825032230
         H           -2.037957568085     1.538458223203     1.389943018626     1.007825032230

  Basis Set: AUG-CC-PVTZ
    Blend: AUG-CC-PVTZ
  Basis Set: (AUG-CC-PVTZ AUX)
    Blend: AUG-CC-PVTZ-JKFIT
	 Reference Energy          =    -569.6708314471920858 [Eh]
	 Singles Energy            =      -0.0000000000000000 [Eh]
	 Same-Spin Energy          =      -0.5549327268620834 [Eh]
	 Opposite-Spin Energy      =      -1.7048394211029672 [Eh]
	 Correlation Energy        =      -2.2597721479650508 [Eh]
	 Total Energy              =    -571.9306035951570948 [Eh]

	 ================> DF-SCS-MP2 Energies <==================
	-----------------------------------------------------------
	 SCS Same-Spin Scale       =       0.3333333333333333 [-]
	 SCS Opposite-Spin Scale   =       1.2000000000000000 [-]
	 SCS Same-Spin Energy      =      -0.1849775756206944 [Eh]
	 SCS Opposite-Spin Energy  =      -2.0458073053235606 [Eh]
	 SCS Correlation Energy    =      -2.2307848809442552 [Eh]
	 SCS Total Energy          =    -571.9016163281363561 [Eh]
	-----------------------------------------------------------

  Dipole Moment: [D]
     X:    -2.3729      Y:     0.9443      Z:     0.3910     Total:     2.5837

*** Psi4 exiting successfully. Buy a developer a beer!
