                               Psi4 1.3.2 release

  ==> Input File <==

--------------------------------------------------------------------------
#psi4
#
memory 32 gb

molecule  {
0 1
  O       -0.1147700    -1.8002930     0.4548730
  O        0.3584290     1.3939840    -1.0246780
  O       -1.9551560     1.3713260     0.4690830
  O        2.7370506     0.4077002    -0.1946250
  O       -1.6716310    -0.8002260    -0.9984850
  C        0.3996190     0.9801351     0.3756928
  C       -0.9093320     0.4742750     0.8400700
  C        1.5345100    -0.0288940     0.4204030
  C       -1.2151430    -0.9364420     0.3397180
  C        1.0549700    -1.3167000    -0.2286510
  H        0.7042560     1.8874530     0.9605880
  H       -0.8818830     0.4322700     1.9353370
  H        1.7837760    -0.2316310     1.4680400
  H       -1.9939520    -1.3968640     0.9617720
  H        0.8436020    -1.1475360    -1.2899680
  H        1.8059140    -2.1013880    -0.1265130
  H       -0.3930520     2.0121160    -1.0836700
  H       -2.3417080     0.9766970    -0.3400740
  H        2.3997000     0.9352960    -0.9928030
  H       -1.9956420    -1.6762600    -1.2784950
units angstrom
no_reorient  #important for SAPT in psi4, default
symmetry c1  #important for SAPT in psi4, default
}

set PROPERTIES_ORIGIN ["COM"]
properties('MP2/aug-cc-pvtz', properties = ['dipole'])
--------------------------------------------------------------------------

    Molecular point group: c1
  Charge       = 0
  Multiplicity = 1
  Basis Set: AUG-CC-PVTZ
    Blend: AUG-CC-PVTZ
  Basis Set: (AUG-CC-PVTZ AUX)
    Blend: AUG-CC-PVTZ-JKFIT

    Orbital Energies [Eh]
    ---------------------

    Doubly Occupied:

       1A    -20.592164     2A    -20.580789     3A    -20.576496
       4A    -20.569121     5A    -20.564045     6A    -11.354712
       7A    -11.299469     8A    -11.293997     9A    -11.286401
      10A    -11.277117    11A     -1.439393    12A     -1.386892
      13A     -1.373376    14A     -1.353735    15A     -1.341312
      16A     -1.067726    17A     -1.023894    18A     -0.897997
      19A     -0.873111    20A     -0.795559    21A     -0.752453
      22A     -0.725014    23A     -0.712364    24A     -0.696708
      25A     -0.666409    26A     -0.642622    27A     -0.621207
      28A     -0.610536    29A     -0.604063    30A     -0.583269
      31A     -0.572624    32A     -0.556470    33A     -0.540400
      34A     -0.513702    35A     -0.502764    36A     -0.490085
      37A     -0.487391    38A     -0.470856    39A     -0.451448
      40A     -0.414221

  @DF-RHF Final Energy:  -569.66563427632968

   => Energetics <=

    Nuclear Repulsion Energy =            633.7301317854266927
    One-Electron Energy =               -2041.6677034027457012
    Two-Electron Energy =                 838.2719373409893251
    Total Energy =                       -569.6656342763296834
  Basis Set: (AUG-CC-PVTZ AUX)
    Blend: AUG-CC-PVTZ-RI
    Molecular point group: c1

    Geometry (in Angstrom), charge = 0, multiplicity = 1:

       Center              X                  Y                   Z               Mass
    ------------   -----------------  -----------------  -----------------  -----------------
         O           -0.114583441086    -1.793049987349     0.451621135435    15.994914619570
         O            0.358615558914     1.401227012651    -1.027929864565    15.994914619570
         O           -1.954969441086     1.378569012651     0.465831135435    15.994914619570
         O            2.737237158914     0.414943212651    -0.197876864565    15.994914619570
         O           -1.671444441086    -0.792982987349    -1.001736864565    15.994914619570
         C            0.399805558914     0.987378112651     0.372440935435    12.000000000000
         C           -0.909145441086     0.481518012651     0.836818135435    12.000000000000
         C            1.534696558914    -0.021650987349     0.417151135435    12.000000000000
         C           -1.214956441086    -0.929198987349     0.336466135435    12.000000000000
         C            1.055156558914    -1.309456987349    -0.231902864565    12.000000000000
         H            0.704442558914     1.894696012651     0.957336135435     1.007825032230
         H           -0.881696441086     0.439513012651     1.932085135435     1.007825032230
         H            1.783962558914    -0.224387987349     1.464788135435     1.007825032230
         H           -1.993765441086    -1.389620987349     0.958520135435     1.007825032230
         H            0.843788558914    -1.140292987349    -1.293219864565     1.007825032230
         H            1.806100558914    -2.094144987349    -0.129764864565     1.007825032230
         H           -0.392865441086     2.019359012651    -1.086921864565     1.007825032230
         H           -2.341521441086     0.983940012651    -0.343325864565     1.007825032230
         H            2.399886558914     0.942539012651    -0.996054864565     1.007825032230
         H           -1.995455441086    -1.669016987349    -1.281746864565     1.007825032230

  Basis Set: AUG-CC-PVTZ
    Blend: AUG-CC-PVTZ
  Basis Set: (AUG-CC-PVTZ AUX)
    Blend: AUG-CC-PVTZ-JKFIT
	 Reference Energy          =    -569.6656342763296834 [Eh]
	 Singles Energy            =      -0.0000000000000000 [Eh]
	 Same-Spin Energy          =      -0.5557423703581398 [Eh]
	 Opposite-Spin Energy      =      -1.7064522084608362 [Eh]
	 Correlation Energy        =      -2.2621945788189759 [Eh]
	 Total Energy              =    -571.9278288551486185 [Eh]

	 ================> DF-SCS-MP2 Energies <==================
	-----------------------------------------------------------
	 SCS Same-Spin Scale       =       0.3333333333333333 [-]
	 SCS Opposite-Spin Scale   =       1.2000000000000000 [-]
	 SCS Same-Spin Energy      =      -0.1852474567860466 [Eh]
	 SCS Opposite-Spin Energy  =      -2.0477426501530034 [Eh]
	 SCS Correlation Energy    =      -2.2329901069390501 [Eh]
	 SCS Total Energy          =    -571.8986243832687251 [Eh]
	-----------------------------------------------------------

  Dipole Moment: [D]
     X:    -2.2348      Y:    -0.9662      Z:    -0.2456     Total:     2.4471

*** Psi4 exiting successfully. Buy a developer a beer!
