                               Psi4 1.4a3.dev225

  ==> Input File <==

--------------------------------------------------------------------------
#psi4
#
memory 32 gb

molecule  {
0 1
  O       -0.2343850     1.7978400    -0.4145210
  O        0.4791390    -1.3900560     0.9851260
  O       -1.8902550    -1.4798720    -0.4079610
  O        2.7489250    -0.2990660     0.0843650
  O       -1.6766260     0.6849030     1.0797040
  C        0.4759385    -0.9927885    -0.3647597
  C       -0.9153110    -0.5160320    -0.8112700
  C        1.5148540     0.1205520    -0.4811210
  C       -1.2794180     0.8705190    -0.2725550
  C        0.9914930     1.3693070     0.2124490
  H        0.7732420    -1.8350180    -1.0199460
  H       -0.9367810    -0.4539690    -1.9062570
  H        1.7061480     0.3550680    -1.5342930
  H       -2.1075740     1.2945610    -0.8542440
  H        0.8333730     1.1741050     1.2776920
  H        1.6908660     2.1982840     0.0933200
  H       -0.2684360    -2.0097880     1.0741120
  H       -2.2907410    -1.1048270     0.4011470
  H        2.5001980    -0.8049050     0.8819700
  H       -2.0397460     1.5332780     1.3914430
units angstrom
no_reorient  #important for SAPT in psi4, default
symmetry c1  #important for SAPT in psi4, default
}

set PROPERTIES_ORIGIN ["COM"]
properties('MP2/aug-cc-pvtz', properties = ['dipole'])
--------------------------------------------------------------------------

    Molecular point group: c1
  Charge       = 0
  Multiplicity = 1
  Basis Set: AUG-CC-PVTZ
    Blend: AUG-CC-PVTZ
  Basis Set: (AUG-CC-PVTZ AUX)
    Blend: AUG-CC-PVTZ-JKFIT

    Orbital Energies [Eh]
    ---------------------

    Doubly Occupied:

       1A    -20.592036     2A    -20.580956     3A    -20.574886
       4A    -20.572346     5A    -20.558271     6A    -11.354451
       7A    -11.299127     8A    -11.291120     9A    -11.285810
      10A    -11.278529    11A     -1.438183    12A     -1.395550
      13A     -1.375634    14A     -1.353945    15A     -1.350034
      16A     -1.055442    17A     -1.022153    18A     -0.897690
      19A     -0.868967    20A     -0.799329    21A     -0.752772
      22A     -0.727032    23A     -0.712416    24A     -0.696519
      25A     -0.670049    26A     -0.647134    27A     -0.620746
      28A     -0.616390    29A     -0.601503    30A     -0.584477
      31A     -0.572243    32A     -0.556204    33A     -0.545656
      34A     -0.516555    35A     -0.502794    36A     -0.490977
      37A     -0.487364    38A     -0.470517    39A     -0.438623
      40A     -0.414390

  @DF-RHF Final Energy:  -569.67456008533964

   => Energetics <=

    Nuclear Repulsion Energy =            633.2822119711139521
    One-Electron Energy =               -2040.7758999685945582
    Two-Electron Energy =                 837.8191279121410844
    Total Energy =                       -569.6745600853396354
  Basis Set: (AUG-CC-PVTZ AUX)
    Blend: AUG-CC-PVTZ-RI
    Molecular point group: c1

    Geometry (in Angstrom), charge = 0, multiplicity = 1:

       Center              X                  Y                   Z               Mass
    ------------   -----------------  -----------------  -----------------  -----------------
         O           -0.235330125446     1.800561265140    -0.417300010955    15.994914619570
         O            0.478193874554    -1.387334734860     0.982346989045    15.994914619570
         O           -1.891200125446    -1.477150734860    -0.410740010955    15.994914619570
         O            2.747979874554    -0.296344734860     0.081585989045    15.994914619570
         O           -1.677571125446     0.687624265140     1.076924989045    15.994914619570
         C            0.474993374554    -0.990067234860    -0.367538710955    12.000000000000
         C           -0.916256125446    -0.513310734860    -0.814049010955    12.000000000000
         C            1.513908874554     0.123273265140    -0.483900010955    12.000000000000
         C           -1.280363125446     0.873240265140    -0.275334010955    12.000000000000
         C            0.990547874554     1.372028265140     0.209669989045    12.000000000000
         H            0.772296874554    -1.832296734860    -1.022725010955     1.007825032230
         H           -0.937726125446    -0.451247734860    -1.909036010955     1.007825032230
         H            1.705202874554     0.357789265140    -1.537072010955     1.007825032230
         H           -2.108519125446     1.297282265140    -0.857023010955     1.007825032230
         H            0.832427874554     1.176826265140     1.274912989045     1.007825032230
         H            1.689920874554     2.201005265140     0.090540989045     1.007825032230
         H           -0.269381125446    -2.007066734860     1.071332989045     1.007825032230
         H           -2.291686125446    -1.102105734860     0.398367989045     1.007825032230
         H            2.499252874554    -0.802183734860     0.879190989045     1.007825032230
         H           -2.040691125446     1.535999265140     1.388663989045     1.007825032230

  Basis Set: AUG-CC-PVTZ
    Blend: AUG-CC-PVTZ
  Basis Set: (AUG-CC-PVTZ AUX)
    Blend: AUG-CC-PVTZ-JKFIT
	 Reference Energy          =    -569.6745600853396354 [Eh]
	 Singles Energy            =      -0.0000000000000000 [Eh]
	 Same-Spin Energy          =      -0.5544785335385670 [Eh]
	 Opposite-Spin Energy      =      -1.7036701906130680 [Eh]
	 Correlation Energy        =      -2.2581487241516349 [Eh]
	 Total Energy              =    -571.9327088094912597 [Eh]

	 ================> DF-SCS-MP2 Energies <==================
	-----------------------------------------------------------
	 SCS Same-Spin Scale       =       0.3333333333333333 [-]
	 SCS Opposite-Spin Scale   =       1.2000000000000000 [-]
	 SCS Same-Spin Energy      =      -0.1848261778461890 [Eh]
	 SCS Opposite-Spin Energy  =      -2.0444042287356816 [Eh]
	 SCS Correlation Energy    =      -2.2292304065818707 [Eh]
	 SCS Total Energy          =    -571.9037904919215407 [Eh]
	-----------------------------------------------------------

  Dipole Moment: [D]
     X:    -2.2967      Y:     0.9445      Z:     0.4512     Total:     2.5240

*** Psi4 exiting successfully. Buy a developer a beer!
