                               Psi4 1.3.2 release

  ==> Input File <==

--------------------------------------------------------------------------
#psi4
#
memory 32 gb

molecule  {
0 1
  O        2.3713340    -0.0431960     0.0348750
  N        0.3955610    -1.1626000    -0.0589710
  C       -1.7488560    -0.0105870    -0.3076690
  C       -1.0790680     1.2063820     0.3205530
  C       -0.9446847    -1.2685972     0.1392750
  C        0.3725010     1.2935890    -0.1457680
  C        1.1404240    -0.0102390    -0.0198870
  H       -2.8074580    -0.0696450    -0.0318610
  H       -1.6959720     0.0599610    -1.4006240
  H       -1.1144190     1.1154600     1.4138390
  H       -1.6138590     2.1267960     0.0620980
  H       -1.2653590    -1.4521000     1.2170140
  H       -1.4050610    -2.1469230    -0.4038060
  H        0.9414700     2.0498950     0.4019050
  H        0.4084350     1.5789030    -1.2051520
  H        0.9624730    -1.9950670     0.0738380
units angstrom
no_reorient  #important for SAPT in psi4, default
symmetry c1  #important for SAPT in psi4, default
}

set PROPERTIES_ORIGIN ["COM"]
properties('MP2/aug-cc-pvtz', properties = ['dipole'])
--------------------------------------------------------------------------

    Molecular point group: c1
  Charge       = 0
  Multiplicity = 1
  Basis Set: AUG-CC-PVTZ
    Blend: AUG-CC-PVTZ
  Basis Set: (AUG-CC-PVTZ AUX)
    Blend: AUG-CC-PVTZ-JKFIT

    Orbital Energies [Eh]
    ---------------------

    Doubly Occupied:

       1A    -20.515524     2A    -15.585350     3A    -11.350952
       4A    -11.277948     5A    -11.240700     6A    -11.240555
       7A    -11.238494     8A     -1.372516     9A     -1.258083
      10A     -1.088516    11A     -1.013155    12A     -0.896346
      13A     -0.850709    14A     -0.759483    15A     -0.705976
      16A     -0.655608    17A     -0.640091    18A     -0.608761
      19A     -0.601104    20A     -0.593646    21A     -0.569387
      22A     -0.506166    23A     -0.494946    24A     -0.487154
      25A     -0.473299    26A     -0.413639    27A     -0.382748

  @DF-RHF Final Energy:  -324.02192364903601

   => Energetics <=

    Nuclear Repulsion Energy =            314.7718412701219677
    One-Electron Energy =               -1063.9458180071121660
    Two-Electron Energy =                 425.1520530879541866
    Total Energy =                       -324.0219236490360117
  Basis Set: (AUG-CC-PVTZ AUX)
    Blend: AUG-CC-PVTZ-RI
    Molecular point group: c1

    Geometry (in Angstrom), charge = 0, multiplicity = 1:

       Center              X                  Y                   Z               Mass
    ------------   -----------------  -----------------  -----------------  -----------------
         O            2.283485511884    -0.031415049680     0.037919945151    15.994914619570
         N            0.307712511884    -1.150819049680    -0.055926054849    14.003074004430
         C           -1.836704488116     0.001193950320    -0.304624054849    12.000000000000
         C           -1.166916488116     1.218162950320     0.323597945151    12.000000000000
         C           -1.032533188116    -1.256816249680     0.142319945151    12.000000000000
         C            0.284652511884     1.305369950320    -0.142723054849    12.000000000000
         C            1.052575511884     0.001541950320    -0.016842054849    12.000000000000
         H           -2.895306488116    -0.057864049680    -0.028816054849     1.007825032230
         H           -1.783820488116     0.071741950320    -1.397579054849     1.007825032230
         H           -1.202267488116     1.127240950320     1.416883945151     1.007825032230
         H           -1.701707488116     2.138576950320     0.065142945151     1.007825032230
         H           -1.353207488116    -1.440319049680     1.220058945151     1.007825032230
         H           -1.492909488116    -2.135142049680    -0.400761054849     1.007825032230
         H            0.853621511884     2.061675950320     0.404949945151     1.007825032230
         H            0.320586511884     1.590683950320    -1.202107054849     1.007825032230
         H            0.874624511884    -1.983286049680     0.076882945151     1.007825032230

  Basis Set: AUG-CC-PVTZ
    Blend: AUG-CC-PVTZ
  Basis Set: (AUG-CC-PVTZ AUX)
    Blend: AUG-CC-PVTZ-JKFIT
	 Reference Energy          =    -324.0219236490360117 [Eh]
	 Singles Energy            =      -0.0000000000000000 [Eh]
	 Same-Spin Energy          =      -0.3344254016373725 [Eh]
	 Opposite-Spin Energy      =      -1.0916450935234723 [Eh]
	 Correlation Energy        =      -1.4260704951608447 [Eh]
	 Total Energy              =    -325.4479941441968549 [Eh]

	 ================> DF-SCS-MP2 Energies <==================
	-----------------------------------------------------------
	 SCS Same-Spin Scale       =       0.3333333333333333 [-]
	 SCS Opposite-Spin Scale   =       1.2000000000000000 [-]
	 SCS Same-Spin Energy      =      -0.1114751338791242 [Eh]
	 SCS Opposite-Spin Energy  =      -1.3099741122281667 [Eh]
	 SCS Correlation Energy    =      -1.4214492461072910 [Eh]
	 SCS Total Energy          =    -325.4433728951432840 [Eh]
	-----------------------------------------------------------

  Dipole Moment: [D]
     X:    -3.9082      Y:    -0.4904      Z:     0.0765     Total:     3.9396

*** Psi4 exiting successfully. Buy a developer a beer!
