                               Psi4 1.3.2 release

  ==> Input File <==

--------------------------------------------------------------------------
#psi4
#
memory 32 gb

molecule  {
0 1
  O        2.3713340    -0.0431960     0.0348750
  N        0.3955610    -1.1626000    -0.0589710
  C       -1.7488560    -0.0105870    -0.3076690
  C       -1.0573212     1.2837827     0.3905390
  C       -1.0433070    -1.2763970     0.1538630
  C        0.3725010     1.2935890    -0.1457680
  C        1.1404240    -0.0102390    -0.0198870
  H       -2.8074580    -0.0696450    -0.0318610
  H       -1.6959720     0.0599610    -1.4006240
  H       -1.1144190     1.1154600     1.4138390
  H       -1.6138590     2.1267960     0.0620980
  H       -1.2653590    -1.4521000     1.2170140
  H       -1.4050610    -2.1469230    -0.4038060
  H        0.9414700     2.0498950     0.4019050
  H        0.4084350     1.5789030    -1.2051520
  H        0.9624730    -1.9950670     0.0738380
units angstrom
no_reorient  #important for SAPT in psi4, default
symmetry c1  #important for SAPT in psi4, default
}

set PROPERTIES_ORIGIN ["COM"]
properties('MP2/aug-cc-pvtz', properties = ['dipole'])
--------------------------------------------------------------------------

    Molecular point group: c1
  Charge       = 0
  Multiplicity = 1
  Basis Set: AUG-CC-PVTZ
    Blend: AUG-CC-PVTZ
  Basis Set: (AUG-CC-PVTZ AUX)
    Blend: AUG-CC-PVTZ-JKFIT

    Orbital Energies [Eh]
    ---------------------

    Doubly Occupied:

       1A    -20.510597     2A    -15.581165     3A    -11.346821
       4A    -11.277821     5A    -11.242588     6A    -11.238752
       7A    -11.237489     8A     -1.365645     9A     -1.230228
      10A     -1.079217    11A     -1.016506    12A     -0.894286
      13A     -0.848477    14A     -0.756124    15A     -0.690007
      16A     -0.651926    17A     -0.640394    18A     -0.614829
      19A     -0.592011    20A     -0.587884    21A     -0.569305
      22A     -0.511604    23A     -0.505764    24A     -0.495333
      25A     -0.454825    26A     -0.412446    27A     -0.386151

  @DF-RHF Final Energy:  -324.02304524793294

   => Energetics <=

    Nuclear Repulsion Energy =            312.3157271210426416
    One-Electron Energy =               -1059.2011549655665021
    Two-Electron Energy =                 422.8623825965909191
    Total Energy =                       -324.0230452479329415
  Basis Set: (AUG-CC-PVTZ AUX)
    Blend: AUG-CC-PVTZ-RI
    Molecular point group: c1

    Geometry (in Angstrom), charge = 0, multiplicity = 1:

       Center              X                  Y                   Z               Mass
    ------------   -----------------  -----------------  -----------------  -----------------
         O            2.292797319387    -0.039845696412     0.027675630542    15.994914619570
         N            0.317024319387    -1.159249696412    -0.066170369458    14.003074004430
         C           -1.827392680613    -0.007236696412    -0.314868369458    12.000000000000
         C           -1.135857880613     1.287133003588     0.383339630542    12.000000000000
         C           -1.121843680613    -1.273046696412     0.146663630542    12.000000000000
         C            0.293964319387     1.296939303588    -0.152967369458    12.000000000000
         C            1.061887319387    -0.006888696412    -0.027086369458    12.000000000000
         H           -2.885994680613    -0.066294696412    -0.039060369458     1.007825032230
         H           -1.774508680613     0.063311303588    -1.407823369458     1.007825032230
         H           -1.192955680613     1.118810303588     1.406639630542     1.007825032230
         H           -1.692395680613     2.130146303588     0.054898630542     1.007825032230
         H           -1.343895680613    -1.448749696412     1.209814630542     1.007825032230
         H           -1.483597680613    -2.143572696412    -0.411005369458     1.007825032230
         H            0.862933319387     2.053245303588     0.394705630542     1.007825032230
         H            0.329898319387     1.582253303588    -1.212351369458     1.007825032230
         H            0.883936319387    -1.991716696412     0.066638630542     1.007825032230

  Basis Set: AUG-CC-PVTZ
    Blend: AUG-CC-PVTZ
  Basis Set: (AUG-CC-PVTZ AUX)
    Blend: AUG-CC-PVTZ-JKFIT
	 Reference Energy          =    -324.0230452479329415 [Eh]
	 Singles Energy            =      -0.0000000000000000 [Eh]
	 Same-Spin Energy          =      -0.3335548891656318 [Eh]
	 Opposite-Spin Energy      =      -1.0914538140313774 [Eh]
	 Correlation Energy        =      -1.4250087031970091 [Eh]
	 Total Energy              =    -325.4480539511299639 [Eh]

	 ================> DF-SCS-MP2 Energies <==================
	-----------------------------------------------------------
	 SCS Same-Spin Scale       =       0.3333333333333333 [-]
	 SCS Opposite-Spin Scale   =       1.2000000000000000 [-]
	 SCS Same-Spin Energy      =      -0.1111849630552106 [Eh]
	 SCS Opposite-Spin Energy  =      -1.3097445768376528 [Eh]
	 SCS Correlation Energy    =      -1.4209295398928634 [Eh]
	 SCS Total Energy          =    -325.4439747878258231 [Eh]
	-----------------------------------------------------------

  Dipole Moment: [D]
     X:    -4.2271      Y:    -0.5674      Z:     0.1875     Total:     4.2692

*** Psi4 exiting successfully. Buy a developer a beer!
