                               Psi4 1.3.2 release

  ==> Input File <==

--------------------------------------------------------------------------
#psi4
#
memory 32 gb

molecule  {
0 1
  O        2.3713340    -0.0431960     0.0348750
  N        0.3955610    -1.1626000    -0.0589710
  C       -1.7488560    -0.0105870    -0.3076690
  C       -1.0790680     1.2063820     0.3205530
  C       -1.0286223    -1.3746506     0.1762431
  C        0.3725010     1.2935890    -0.1457680
  C        1.1404240    -0.0102390    -0.0198870
  H       -2.8074580    -0.0696450    -0.0318610
  H       -1.6959720     0.0599610    -1.4006240
  H       -1.1144190     1.1154600     1.4138390
  H       -1.6138590     2.1267960     0.0620980
  H       -1.2653590    -1.4521000     1.2170140
  H       -1.4050610    -2.1469230    -0.4038060
  H        0.9414700     2.0498950     0.4019050
  H        0.4084350     1.5789030    -1.2051520
  H        0.9624730    -1.9950670     0.0738380
units angstrom
no_reorient  #important for SAPT in psi4, default
symmetry c1  #important for SAPT in psi4, default
}

set PROPERTIES_ORIGIN ["COM"]
properties('MP2/aug-cc-pvtz', properties = ['dipole'])
--------------------------------------------------------------------------

    Molecular point group: c1
  Charge       = 0
  Multiplicity = 1
  Basis Set: AUG-CC-PVTZ
    Blend: AUG-CC-PVTZ
  Basis Set: (AUG-CC-PVTZ AUX)
    Blend: AUG-CC-PVTZ-JKFIT

    Orbital Energies [Eh]
    ---------------------

    Doubly Occupied:

       1A    -20.511074     2A    -15.581374     3A    -11.348066
       4A    -11.275756     5A    -11.242922     6A    -11.239588
       7A    -11.237945     8A     -1.365902     9A     -1.229283
      10A     -1.082787    11A     -1.012243    12A     -0.901657
      13A     -0.841837    14A     -0.753812    15A     -0.690123
      16A     -0.660344    17A     -0.643206    18A     -0.614891
      19A     -0.590724    20A     -0.588821    21A     -0.566056
      22A     -0.512165    23A     -0.490255    24A     -0.487012
      25A     -0.471261    26A     -0.411189    27A     -0.389455

  @DF-RHF Final Energy:  -324.02295294890268

   => Energetics <=

    Nuclear Repulsion Energy =            312.2393969587532752
    One-Electron Energy =               -1059.0452022988679346
    Two-Electron Energy =                 422.7828523912119181
    Total Energy =                       -324.0229529489026845
  Basis Set: (AUG-CC-PVTZ AUX)
    Blend: AUG-CC-PVTZ-RI
    Molecular point group: c1

    Geometry (in Angstrom), charge = 0, multiplicity = 1:

       Center              X                  Y                   Z               Mass
    ------------   -----------------  -----------------  -----------------  -----------------
         O            2.293652740370    -0.018568969383     0.033442057775    15.994914619570
         N            0.317879740370    -1.137972969383    -0.060403942225    14.003074004430
         C           -1.826537259630     0.014040030617    -0.309101942225    12.000000000000
         C           -1.156749259630     1.231009030617     0.319120057775    12.000000000000
         C           -1.106303559630    -1.350023569383     0.174810157775    12.000000000000
         C            0.294819740370     1.318216030617    -0.147200942225    12.000000000000
         C            1.062742740370     0.014388030617    -0.021319942225    12.000000000000
         H           -2.885139259630    -0.045017969383    -0.033293942225     1.007825032230
         H           -1.773653259630     0.084588030617    -1.402056942225     1.007825032230
         H           -1.192100259630     1.140087030617     1.412406057775     1.007825032230
         H           -1.691540259630     2.151423030617     0.060665057775     1.007825032230
         H           -1.343040259630    -1.427472969383     1.215581057775     1.007825032230
         H           -1.482742259630    -2.122295969383    -0.405238942225     1.007825032230
         H            0.863788740370     2.074522030617     0.400472057775     1.007825032230
         H            0.330753740370     1.603530030617    -1.206584942225     1.007825032230
         H            0.884791740370    -1.970439969383     0.072405057775     1.007825032230

  Basis Set: AUG-CC-PVTZ
    Blend: AUG-CC-PVTZ
  Basis Set: (AUG-CC-PVTZ AUX)
    Blend: AUG-CC-PVTZ-JKFIT
	 Reference Energy          =    -324.0229529489026845 [Eh]
	 Singles Energy            =      -0.0000000000000000 [Eh]
	 Same-Spin Energy          =      -0.3335540668066311 [Eh]
	 Opposite-Spin Energy      =      -1.0915159429709618 [Eh]
	 Correlation Energy        =      -1.4250700097775928 [Eh]
	 Total Energy              =    -325.4480229586802693 [Eh]

	 ================> DF-SCS-MP2 Energies <==================
	-----------------------------------------------------------
	 SCS Same-Spin Scale       =       0.3333333333333333 [-]
	 SCS Opposite-Spin Scale   =       1.2000000000000000 [-]
	 SCS Same-Spin Energy      =      -0.1111846889355437 [Eh]
	 SCS Opposite-Spin Energy  =      -1.3098191315651542 [Eh]
	 SCS Correlation Energy    =      -1.4210038205006978 [Eh]
	 SCS Total Energy          =    -325.4439567694033713 [Eh]
	-----------------------------------------------------------

  Dipole Moment: [D]
     X:    -4.2107      Y:    -0.6235      Z:     0.1863     Total:     4.2606

*** Psi4 exiting successfully. Buy a developer a beer!
