                               Psi4 1.3.2 release

  ==> Input File <==

--------------------------------------------------------------------------
#psi4
#
memory 32 gb

molecule  {
0 1
  O        2.3717163    -0.0216877     0.0350011
  N        0.3955610    -1.1626000    -0.0589710
  C       -1.7488560    -0.0105870    -0.3076690
  C       -1.0790680     1.2063820     0.3205530
  C       -1.0433070    -1.2763970     0.1538630
  C        0.3725010     1.2935890    -0.1457680
  C        1.1404240    -0.0102390    -0.0198870
  H       -2.8074580    -0.0696450    -0.0318610
  H       -1.6959720     0.0599610    -1.4006240
  H       -1.1144190     1.1154600     1.4138390
  H       -1.6138590     2.1267960     0.0620980
  H       -1.2653590    -1.4521000     1.2170140
  H       -1.4050610    -2.1469230    -0.4038060
  H        0.9414700     2.0498950     0.4019050
  H        0.4084350     1.5789030    -1.2051520
  H        0.9624730    -1.9950670     0.0738380
units angstrom
no_reorient  #important for SAPT in psi4, default
symmetry c1  #important for SAPT in psi4, default
}

set PROPERTIES_ORIGIN ["COM"]
properties('MP2/aug-cc-pvtz', properties = ['dipole'])
--------------------------------------------------------------------------

    Molecular point group: c1
  Charge       = 0
  Multiplicity = 1
  Basis Set: AUG-CC-PVTZ
    Blend: AUG-CC-PVTZ
  Basis Set: (AUG-CC-PVTZ AUX)
    Blend: AUG-CC-PVTZ-JKFIT

    Orbital Energies [Eh]
    ---------------------

    Doubly Occupied:

       1A    -20.510407     2A    -15.582732     3A    -11.346145
       4A    -11.278863     5A    -11.240285     6A    -11.239204
       7A    -11.237455     8A     -1.365272     9A     -1.232942
      10A     -1.088006    11A     -1.018480    12A     -0.896857
      13A     -0.843736    14A     -0.754909    15A     -0.693321
      16A     -0.650995    17A     -0.639105    18A     -0.612663
      19A     -0.594575    20A     -0.588561    21A     -0.570558
      22A     -0.504881    23A     -0.497183    24A     -0.487017
      25A     -0.483545    26A     -0.410408    27A     -0.387637

  @DF-RHF Final Energy:  -324.03256184028919

   => Energetics <=

    Nuclear Repulsion Energy =            313.5102401997997390
    One-Electron Energy =               -1061.5741240365380236
    Two-Electron Energy =                 424.0313219964491509
    Total Energy =                       -324.0325618402891905
  Basis Set: (AUG-CC-PVTZ AUX)
    Blend: AUG-CC-PVTZ-RI
    Molecular point group: c1

    Geometry (in Angstrom), charge = 0, multiplicity = 1:

       Center              X                  Y                   Z               Mass
    ------------   -----------------  -----------------  -----------------  -----------------
         O            2.295752051246    -0.012434556599     0.036258664575    15.994914619570
         N            0.319596751246    -1.153346856599    -0.057713435425    14.003074004430
         C           -1.824820248754    -0.001333856599    -0.306411435425    12.000000000000
         C           -1.155032248754     1.215635143401     0.321810564575    12.000000000000
         C           -1.119271248754    -1.267143856599     0.155120564575    12.000000000000
         C            0.296536751246     1.302842143401    -0.144510435425    12.000000000000
         C            1.064459751246    -0.000985856599    -0.018629435425    12.000000000000
         H           -2.883422248754    -0.060391856599    -0.030603435425     1.007825032230
         H           -1.771936248754     0.069214143401    -1.399366435425     1.007825032230
         H           -1.190383248754     1.124713143401     1.415096564575     1.007825032230
         H           -1.689823248754     2.136049143401     0.063355564575     1.007825032230
         H           -1.341323248754    -1.442846856599     1.218271564575     1.007825032230
         H           -1.481025248754    -2.137669856599    -0.402548435425     1.007825032230
         H            0.865505751246     2.059148143401     0.403162564575     1.007825032230
         H            0.332470751246     1.588156143401    -1.203894435425     1.007825032230
         H            0.886508751246    -1.985813856599     0.075095564575     1.007825032230

  Basis Set: AUG-CC-PVTZ
    Blend: AUG-CC-PVTZ
  Basis Set: (AUG-CC-PVTZ AUX)
    Blend: AUG-CC-PVTZ-JKFIT
	 Reference Energy          =    -324.0325618402891905 [Eh]
	 Singles Energy            =      -0.0000000000000000 [Eh]
	 Same-Spin Energy          =      -0.3337779923139381 [Eh]
	 Opposite-Spin Energy      =      -1.0911768214591882 [Eh]
	 Correlation Energy        =      -1.4249548137731263 [Eh]
	 Total Energy              =    -325.4575166540623172 [Eh]

	 ================> DF-SCS-MP2 Energies <==================
	-----------------------------------------------------------
	 SCS Same-Spin Scale       =       0.3333333333333333 [-]
	 SCS Opposite-Spin Scale   =       1.2000000000000000 [-]
	 SCS Same-Spin Energy      =      -0.1112593307713127 [Eh]
	 SCS Opposite-Spin Energy  =      -1.3094121857510257 [Eh]
	 SCS Correlation Energy    =      -1.4206715165223385 [Eh]
	 SCS Total Energy          =    -325.4532333568115519 [Eh]
	-----------------------------------------------------------

  Dipole Moment: [D]
     X:    -4.2307      Y:    -0.6388      Z:     0.1591     Total:     4.2816

*** Psi4 exiting successfully. Buy a developer a beer!
