                               Psi4 1.3.2 release

  ==> Input File <==

--------------------------------------------------------------------------
#psi4
#
memory 32 gb

molecule  {
0 1
  O        2.3713340    -0.0431960     0.0348750
  N        0.3955610    -1.1626000    -0.0589710
  C       -1.7488560    -0.0105870    -0.3076690
  C       -1.0790680     1.2063820     0.3205530
  C       -1.0395357    -1.3266319     0.1464071
  C        0.3725010     1.2935890    -0.1457680
  C        1.1404240    -0.0102390    -0.0198870
  H       -2.8074580    -0.0696450    -0.0318610
  H       -1.6959720     0.0599610    -1.4006240
  H       -1.1144190     1.1154600     1.4138390
  H       -1.6138590     2.1267960     0.0620980
  H       -1.2653590    -1.4521000     1.2170140
  H       -1.4050610    -2.1469230    -0.4038060
  H        0.9414700     2.0498950     0.4019050
  H        0.4084350     1.5789030    -1.2051520
  H        0.9624730    -1.9950670     0.0738380
units angstrom
no_reorient  #important for SAPT in psi4, default
symmetry c1  #important for SAPT in psi4, default
}

set PROPERTIES_ORIGIN ["COM"]
properties('MP2/aug-cc-pvtz', properties = ['dipole'])
--------------------------------------------------------------------------

    Molecular point group: c1
  Charge       = 0
  Multiplicity = 1
  Basis Set: AUG-CC-PVTZ
    Blend: AUG-CC-PVTZ
  Basis Set: (AUG-CC-PVTZ AUX)
    Blend: AUG-CC-PVTZ-JKFIT

    Orbital Energies [Eh]
    ---------------------

    Doubly Occupied:

       1A    -20.510436     2A    -15.581490     3A    -11.347126
       4A    -11.277134     5A    -11.241583     6A    -11.239886
       7A    -11.238243     8A     -1.365579     9A     -1.230474
      10A     -1.085390    11A     -1.015966    12A     -0.899401
      13A     -0.843262    14A     -0.753289    15A     -0.691296
      16A     -0.657250    17A     -0.639876    18A     -0.613115
      19A     -0.592391    20A     -0.588717    21A     -0.569501
      22A     -0.507232    23A     -0.491480    24A     -0.487752
      25A     -0.482219    26A     -0.411254    27A     -0.387402

  @DF-RHF Final Energy:  -324.03008963599382

   => Energetics <=

    Nuclear Repulsion Energy =            312.8905958805564183
    One-Electron Energy =               -1060.3438877750782012
    Two-Electron Energy =                 423.4232022585279083
    Total Energy =                       -324.0300896359938179
  Basis Set: (AUG-CC-PVTZ AUX)
    Blend: AUG-CC-PVTZ-RI
    Molecular point group: c1

    Geometry (in Angstrom), charge = 0, multiplicity = 1:

       Center              X                  Y                   Z               Mass
    ------------   -----------------  -----------------  -----------------  -----------------
         O            2.294974663219    -0.024385398427     0.037056045179    15.994914619570
         N            0.319201663219    -1.143789398427    -0.056789954821    14.003074004430
         C           -1.825215336781     0.008223601573    -0.305487954821    12.000000000000
         C           -1.155427336781     1.225192601573     0.322734045179    12.000000000000
         C           -1.115895036781    -1.307821298427     0.148588145179    12.000000000000
         C            0.296141663219     1.312399601573    -0.143586954821    12.000000000000
         C            1.064064663219     0.008571601573    -0.017705954821    12.000000000000
         H           -2.883817336781    -0.050834398427    -0.029679954821     1.007825032230
         H           -1.772331336781     0.078771601573    -1.398442954821     1.007825032230
         H           -1.190778336781     1.134270601573     1.416020045179     1.007825032230
         H           -1.690218336781     2.145606601573     0.064279045179     1.007825032230
         H           -1.341718336781    -1.433289398427     1.219195045179     1.007825032230
         H           -1.481420336781    -2.128112398427    -0.401624954821     1.007825032230
         H            0.865110663219     2.068705601573     0.404086045179     1.007825032230
         H            0.332075663219     1.597713601573    -1.202970954821     1.007825032230
         H            0.886113663219    -1.976256398427     0.076019045179     1.007825032230

  Basis Set: AUG-CC-PVTZ
    Blend: AUG-CC-PVTZ
  Basis Set: (AUG-CC-PVTZ AUX)
    Blend: AUG-CC-PVTZ-JKFIT
	 Reference Energy          =    -324.0300896359938179 [Eh]
	 Singles Energy            =      -0.0000000000000000 [Eh]
	 Same-Spin Energy          =      -0.3335898264877110 [Eh]
	 Opposite-Spin Energy      =      -1.0911454755472416 [Eh]
	 Correlation Energy        =      -1.4247353020349527 [Eh]
	 Total Energy              =    -325.4548249380287643 [Eh]

	 ================> DF-SCS-MP2 Energies <==================
	-----------------------------------------------------------
	 SCS Same-Spin Scale       =       0.3333333333333333 [-]
	 SCS Opposite-Spin Scale   =       1.2000000000000000 [-]
	 SCS Same-Spin Energy      =      -0.1111966088292370 [Eh]
	 SCS Opposite-Spin Energy  =      -1.3093745706566899 [Eh]
	 SCS Correlation Energy    =      -1.4205711794859268 [Eh]
	 SCS Total Energy          =    -325.4506608154797505 [Eh]
	-----------------------------------------------------------

  Dipole Moment: [D]
     X:    -4.2296      Y:    -0.6107      Z:     0.1469     Total:     4.2760

*** Psi4 exiting successfully. Buy a developer a beer!
