                               Psi4 1.4a3.dev225

  ==> Input File <==

--------------------------------------------------------------------------
#psi4
#
memory 32 gb

molecule  {
0 1
  O        2.3713340    -0.0431960     0.0348750
  N        0.3955610    -1.1626000    -0.0589710
  C       -1.7488560    -0.0105870    -0.3076690
  C       -1.0790680     1.2063820     0.3205530
  C       -1.0433070    -1.2763970     0.1538630
  C        0.3725010     1.2935890    -0.1457680
  C        1.1295714    -0.0270288    -0.0204565
  H       -2.8074580    -0.0696450    -0.0318610
  H       -1.6959720     0.0599610    -1.4006240
  H       -1.1144190     1.1154600     1.4138390
  H       -1.6138590     2.1267960     0.0620980
  H       -1.2653590    -1.4521000     1.2170140
  H       -1.4050610    -2.1469230    -0.4038060
  H        0.9414700     2.0498950     0.4019050
  H        0.4084350     1.5789030    -1.2051520
  H        0.9624730    -1.9950670     0.0738380
units angstrom
no_reorient  #important for SAPT in psi4, default
symmetry c1  #important for SAPT in psi4, default
}

set PROPERTIES_ORIGIN ["COM"]
properties('MP2/aug-cc-pvtz', properties = ['dipole'])
--------------------------------------------------------------------------

    Molecular point group: c1
  Charge       = 0
  Multiplicity = 1
  Basis Set: AUG-CC-PVTZ
    Blend: AUG-CC-PVTZ
  Basis Set: (AUG-CC-PVTZ AUX)
    Blend: AUG-CC-PVTZ-JKFIT

    Orbital Energies [Eh]
    ---------------------

    Doubly Occupied:

       1A    -20.506425     2A    -15.585252     3A    -11.345049
       4A    -11.280521     5A    -11.241196     6A    -11.239436
       7A    -11.238249     8A     -1.359339     9A     -1.236652
      10A     -1.089266    11A     -1.019009    12A     -0.897818
      13A     -0.845678    14A     -0.757505    15A     -0.694925
      16A     -0.651737    17A     -0.637926    18A     -0.612638
      19A     -0.595775    20A     -0.587898    21A     -0.568407
      22A     -0.504284    23A     -0.496313    24A     -0.487221
      25A     -0.484324    26A     -0.408185    27A     -0.387679

  @DF-RHF Final Energy:  -324.03181148387273

   => Energetics <=

    Nuclear Repulsion Energy =            313.6065642940553175
    One-Electron Energy =               -1061.7593360556536481
    Two-Electron Energy =                 424.1209602777256578
    Total Energy =                       -324.0318114838727297
  Basis Set: (AUG-CC-PVTZ AUX)
    Blend: AUG-CC-PVTZ-RI
    Molecular point group: c1

    Geometry (in Angstrom), charge = 0, multiplicity = 1:

       Center              X                  Y                   Z               Mass
    ------------   -----------------  -----------------  -----------------  -----------------
         O            2.296746033054    -0.028436550395     0.036221906459    15.994914619570
         N            0.320973033054    -1.147840550395    -0.057624093541    14.003074004430
         C           -1.823443966946     0.004172449605    -0.306322093541    12.000000000000
         C           -1.153655966946     1.221141449605     0.321899906459    12.000000000000
         C           -1.117894966946    -1.261637550395     0.155209906459    12.000000000000
         C            0.297913033054     1.308348449605    -0.144421093541    12.000000000000
         C            1.054983433054    -0.012269350395    -0.019109593541    12.000000000000
         H           -2.882045966946    -0.054885550395    -0.030514093541     1.007825032230
         H           -1.770559966946     0.074720449605    -1.399277093541     1.007825032230
         H           -1.189006966946     1.130219449605     1.415185906459     1.007825032230
         H           -1.688446966946     2.141555449605     0.063444906459     1.007825032230
         H           -1.339946966946    -1.437340550395     1.218360906459     1.007825032230
         H           -1.479648966946    -2.132163550395    -0.402459093541     1.007825032230
         H            0.866882033054     2.064654449605     0.403251906459     1.007825032230
         H            0.333847033054     1.593662449605    -1.203805093541     1.007825032230
         H            0.887885033054    -1.980307550395     0.075184906459     1.007825032230

  Basis Set: AUG-CC-PVTZ
    Blend: AUG-CC-PVTZ
  Basis Set: (AUG-CC-PVTZ AUX)
    Blend: AUG-CC-PVTZ-JKFIT
	 Reference Energy          =    -324.0318114838727297 [Eh]
	 Singles Energy            =      -0.0000000000000000 [Eh]
	 Same-Spin Energy          =      -0.3338997892673592 [Eh]
	 Opposite-Spin Energy      =      -1.0913674131020259 [Eh]
	 Correlation Energy        =      -1.4252672023693851 [Eh]
	 Total Energy              =    -325.4570786862421414 [Eh]

	 ================> DF-SCS-MP2 Energies <==================
	-----------------------------------------------------------
	 SCS Same-Spin Scale       =       0.3333333333333333 [-]
	 SCS Opposite-Spin Scale   =       1.2000000000000000 [-]
	 SCS Same-Spin Energy      =      -0.1112999297557864 [Eh]
	 SCS Opposite-Spin Energy  =      -1.3096408957224310 [Eh]
	 SCS Correlation Energy    =      -1.4209408254782174 [Eh]
	 SCS Total Energy          =    -325.4527523093509558 [Eh]
	-----------------------------------------------------------

  Dipole Moment: [D]
     X:    -4.3656      Y:    -0.6919      Z:     0.1534     Total:     4.4228

*** Psi4 exiting successfully. Buy a developer a beer!
