                               Psi4 1.3.2 release

  ==> Input File <==

--------------------------------------------------------------------------
#psi4
#
memory 32 gb

molecule  {
0 1
  O        2.3713340    -0.0431960     0.0348750
  N        0.3955610    -1.1626000    -0.0589710
  C       -1.7488560    -0.0105870    -0.3076690
  C       -1.1140028     1.2375220     0.2952221
  C       -1.0433070    -1.2763970     0.1538630
  C        0.3725010     1.2935890    -0.1457680
  C        1.1404240    -0.0102390    -0.0198870
  H       -2.8074580    -0.0696450    -0.0318610
  H       -1.6959720     0.0599610    -1.4006240
  H       -1.1144190     1.1154600     1.4138390
  H       -1.6138590     2.1267960     0.0620980
  H       -1.2653590    -1.4521000     1.2170140
  H       -1.4050610    -2.1469230    -0.4038060
  H        0.9414700     2.0498950     0.4019050
  H        0.4084350     1.5789030    -1.2051520
  H        0.9624730    -1.9950670     0.0738380
units angstrom
no_reorient  #important for SAPT in psi4, default
symmetry c1  #important for SAPT in psi4, default
}

set PROPERTIES_ORIGIN ["COM"]
properties('MP2/aug-cc-pvtz', properties = ['dipole'])
--------------------------------------------------------------------------

    Molecular point group: c1
  Charge       = 0
  Multiplicity = 1
  Basis Set: AUG-CC-PVTZ
    Blend: AUG-CC-PVTZ
  Basis Set: (AUG-CC-PVTZ AUX)
    Blend: AUG-CC-PVTZ-JKFIT

    Orbital Energies [Eh]
    ---------------------

    Doubly Occupied:

       1A    -20.510570     2A    -15.581644     3A    -11.347033
       4A    -11.279295     5A    -11.240533     6A    -11.239744
       7A    -11.239124     8A     -1.365734     9A     -1.231468
      10A     -1.086076    11A     -1.017014    12A     -0.899561
      13A     -0.844793    14A     -0.752677    15A     -0.692382
      16A     -0.653811    17A     -0.640377    18A     -0.610479
      19A     -0.598569    20A     -0.587858    21A     -0.569649
      22A     -0.507178    23A     -0.498509    24A     -0.484136
      25A     -0.478419    26A     -0.413137    27A     -0.386802

  @DF-RHF Final Energy:  -324.02964594164769

   => Energetics <=

    Nuclear Repulsion Energy =            312.9585506030340980
    One-Electron Energy =               -1060.4632478660441848
    Two-Electron Energy =                 423.4750513213623435
    Total Energy =                       -324.0296459416476864
  Basis Set: (AUG-CC-PVTZ AUX)
    Blend: AUG-CC-PVTZ-RI
    Molecular point group: c1

    Geometry (in Angstrom), charge = 0, multiplicity = 1:

       Center              X                  Y                   Z               Mass
    ------------   -----------------  -----------------  -----------------  -----------------
         O            2.299663071781    -0.034242211123     0.039221215606    15.994914619570
         N            0.323890071781    -1.153646211123    -0.054624784394    14.003074004430
         C           -1.820526928219    -0.001633211123    -0.303322784394    12.000000000000
         C           -1.185673728219     1.246475788877     0.299568315606    12.000000000000
         C           -1.114977928219    -1.267443211123     0.158209215606    12.000000000000
         C            0.300830071781     1.302542788877    -0.141421784394    12.000000000000
         C            1.068753071781    -0.001285211123    -0.015540784394    12.000000000000
         H           -2.879128928219    -0.060691211123    -0.027514784394     1.007825032230
         H           -1.767642928219     0.068914788877    -1.396277784394     1.007825032230
         H           -1.186089928219     1.124413788877     1.418185215606     1.007825032230
         H           -1.685529928219     2.135749788877     0.066444215606     1.007825032230
         H           -1.337029928219    -1.443146211123     1.221360215606     1.007825032230
         H           -1.476731928219    -2.137969211123    -0.399459784394     1.007825032230
         H            0.869799071781     2.058848788877     0.406251215606     1.007825032230
         H            0.336764071781     1.587856788877    -1.200805784394     1.007825032230
         H            0.890802071781    -1.986113211123     0.078184215606     1.007825032230

  Basis Set: AUG-CC-PVTZ
    Blend: AUG-CC-PVTZ
  Basis Set: (AUG-CC-PVTZ AUX)
    Blend: AUG-CC-PVTZ-JKFIT
	 Reference Energy          =    -324.0296459416476864 [Eh]
	 Singles Energy            =      -0.0000000000000000 [Eh]
	 Same-Spin Energy          =      -0.3336673629744522 [Eh]
	 Opposite-Spin Energy      =      -1.0911909121591041 [Eh]
	 Correlation Energy        =      -1.4248582751335563 [Eh]
	 Total Energy              =    -325.4545042167812312 [Eh]

	 ================> DF-SCS-MP2 Energies <==================
	-----------------------------------------------------------
	 SCS Same-Spin Scale       =       0.3333333333333333 [-]
	 SCS Opposite-Spin Scale   =       1.2000000000000000 [-]
	 SCS Same-Spin Energy      =      -0.1112224543248174 [Eh]
	 SCS Opposite-Spin Energy  =      -1.3094290945909248 [Eh]
	 SCS Correlation Energy    =      -1.4206515489157423 [Eh]
	 SCS Total Energy          =    -325.4502974905634005 [Eh]
	-----------------------------------------------------------

  Dipole Moment: [D]
     X:    -4.2416      Y:    -0.5738      Z:     0.1427     Total:     4.2826

*** Psi4 exiting successfully. Buy a developer a beer!
