                               Psi4 1.3.2 release

  ==> Input File <==

--------------------------------------------------------------------------
#psi4
#
memory 32 gb

molecule  {
0 1
  O        2.3713340    -0.0431960     0.0348750
  N        0.3955610    -1.1626000    -0.0589710
  C       -1.7488560    -0.0105870    -0.3076690
  C       -1.0790680     1.2063820     0.3205530
  C       -1.0433070    -1.2763970     0.1538630
  C        0.3725010     1.2935890    -0.1457680
  C        1.2402895    -0.0129128    -0.0154441
  H       -2.8074580    -0.0696450    -0.0318610
  H       -1.6959720     0.0599610    -1.4006240
  H       -1.1144190     1.1154600     1.4138390
  H       -1.6138590     2.1267960     0.0620980
  H       -1.2653590    -1.4521000     1.2170140
  H       -1.4050610    -2.1469230    -0.4038060
  H        0.9414700     2.0498950     0.4019050
  H        0.4084350     1.5789030    -1.2051520
  H        0.9624730    -1.9950670     0.0738380
units angstrom
no_reorient  #important for SAPT in psi4, default
symmetry c1  #important for SAPT in psi4, default
}

set PROPERTIES_ORIGIN ["COM"]
properties('MP2/aug-cc-pvtz', properties = ['dipole'])
--------------------------------------------------------------------------

    Molecular point group: c1
  Charge       = 0
  Multiplicity = 1
  Basis Set: AUG-CC-PVTZ
    Blend: AUG-CC-PVTZ
  Basis Set: (AUG-CC-PVTZ AUX)
    Blend: AUG-CC-PVTZ-JKFIT

    Orbital Energies [Eh]
    ---------------------

    Doubly Occupied:

       1A    -20.530440     2A    -15.565809     3A    -11.342883
       4A    -11.271791     5A    -11.235871     6A    -11.234089
       7A    -11.233759     8A     -1.439129     9A     -1.217173
      10A     -1.077991    11A     -1.006699    12A     -0.886614
      13A     -0.831803    14A     -0.740207    15A     -0.691982
      16A     -0.656725    17A     -0.650267    18A     -0.610185
      19A     -0.607032    20A     -0.587861    21A     -0.571381
      22A     -0.518491    23A     -0.501238    24A     -0.487093
      25A     -0.481715    26A     -0.405032    27A     -0.384956

  @DF-RHF Final Energy:  -324.02114215399882

   => Energetics <=

    Nuclear Repulsion Energy =            313.3790151078655413
    One-Electron Energy =               -1061.2638817605475197
    Two-Electron Energy =                 423.8637244986830979
    Total Energy =                       -324.0211421539988237
  Basis Set: (AUG-CC-PVTZ AUX)
    Blend: AUG-CC-PVTZ-RI
    Molecular point group: c1

    Geometry (in Angstrom), charge = 0, multiplicity = 1:

       Center              X                  Y                   Z               Mass
    ------------   -----------------  -----------------  -----------------  -----------------
         O            2.283334925038    -0.030146399108     0.035614762389    15.994914619570
         N            0.307561925038    -1.149550399108    -0.058231237611    14.003074004430
         C           -1.836855074962     0.002462600892    -0.306929237611    12.000000000000
         C           -1.167067074962     1.219431600892     0.321292762389    12.000000000000
         C           -1.131306074962    -1.263347399108     0.154602762389    12.000000000000
         C            0.284501925038     1.306638600892    -0.145028237611    12.000000000000
         C            1.152290425038     0.000136800892    -0.014704337611    12.000000000000
         H           -2.895457074962    -0.056595399108    -0.031121237611     1.007825032230
         H           -1.783971074962     0.073010600892    -1.399884237611     1.007825032230
         H           -1.202418074962     1.128509600892     1.414578762389     1.007825032230
         H           -1.701858074962     2.139845600892     0.062837762389     1.007825032230
         H           -1.353358074962    -1.439050399108     1.217753762389     1.007825032230
         H           -1.493060074962    -2.133873399108    -0.403066237611     1.007825032230
         H            0.853470925038     2.062944600892     0.402644762389     1.007825032230
         H            0.320435925038     1.591952600892    -1.204412237611     1.007825032230
         H            0.874473925038    -1.982017399108     0.074577762389     1.007825032230

  Basis Set: AUG-CC-PVTZ
    Blend: AUG-CC-PVTZ
  Basis Set: (AUG-CC-PVTZ AUX)
    Blend: AUG-CC-PVTZ-JKFIT
	 Reference Energy          =    -324.0211421539988237 [Eh]
	 Singles Energy            =      -0.0000000000000000 [Eh]
	 Same-Spin Energy          =      -0.3317948826539662 [Eh]
	 Opposite-Spin Energy      =      -1.0874407045251244 [Eh]
	 Correlation Energy        =      -1.4192355871790907 [Eh]
	 Total Energy              =    -325.4403777411779402 [Eh]

	 ================> DF-SCS-MP2 Energies <==================
	-----------------------------------------------------------
	 SCS Same-Spin Scale       =       0.3333333333333333 [-]
	 SCS Opposite-Spin Scale   =       1.2000000000000000 [-]
	 SCS Same-Spin Energy      =      -0.1105982942179887 [Eh]
	 SCS Opposite-Spin Energy  =      -1.3049288454301493 [Eh]
	 SCS Correlation Energy    =      -1.4155271396481381 [Eh]
	 SCS Total Energy          =    -325.4366692936469576 [Eh]
	-----------------------------------------------------------

  Dipole Moment: [D]
     X:    -3.3586      Y:    -0.4205      Z:     0.2205     Total:     3.3920

*** Psi4 exiting successfully. Buy a developer a beer!
