                               Psi4 1.3.2 release

  ==> Input File <==

--------------------------------------------------------------------------
#psi4
#
memory 32 gb

molecule  {
0 1
  O        2.3713340    -0.0431960     0.0348750
  N        0.3955610    -1.1626000    -0.0589710
  C       -1.7488560    -0.0105870    -0.3076690
  C       -1.0790680     1.2063820     0.3205530
  C       -1.0416402    -1.3015356     0.1501669
  C        0.3725010     1.2935890    -0.1457680
  C        1.1404240    -0.0102390    -0.0198870
  H       -2.8074580    -0.0696450    -0.0318610
  H       -1.6959720     0.0599610    -1.4006240
  H       -1.1144190     1.1154600     1.4138390
  H       -1.6138590     2.1267960     0.0620980
  H       -1.2653590    -1.4521000     1.2170140
  H       -1.4050610    -2.1469230    -0.4038060
  H        0.9414700     2.0498950     0.4019050
  H        0.4084350     1.5789030    -1.2051520
  H        0.9624730    -1.9950670     0.0738380
units angstrom
no_reorient  #important for SAPT in psi4, default
symmetry c1  #important for SAPT in psi4, default
}

set PROPERTIES_ORIGIN ["COM"]
properties('MP2/aug-cc-pvtz', properties = ['dipole'])
--------------------------------------------------------------------------

    Molecular point group: c1
  Charge       = 0
  Multiplicity = 1
  Basis Set: AUG-CC-PVTZ
    Blend: AUG-CC-PVTZ
  Basis Set: (AUG-CC-PVTZ AUX)
    Blend: AUG-CC-PVTZ-JKFIT

    Orbital Energies [Eh]
    ---------------------

    Doubly Occupied:

       1A    -20.510281     2A    -15.581525     3A    -11.346603
       4A    -11.277630     5A    -11.240943     6A    -11.239793
       7A    -11.238359     8A     -1.365522     9A     -1.231106
      10A     -1.086707    11A     -1.017281    12A     -0.898147
      13A     -0.843504    14A     -0.754000    15A     -0.692020
      16A     -0.653898    17A     -0.639427    18A     -0.612930
      19A     -0.593289    20A     -0.588639    21A     -0.570352
      22A     -0.506001    23A     -0.493757    24A     -0.487677
      25A     -0.483805    26A     -0.411100    27A     -0.387135

  @DF-RHF Final Energy:  -324.03211322292066

   => Energetics <=

    Nuclear Repulsion Energy =            313.2027016755495197
    One-Electron Energy =               -1060.9667679473291173
    Two-Electron Energy =                 423.7319530488589407
    Total Energy =                       -324.0321132229206569
  Basis Set: (AUG-CC-PVTZ AUX)
    Blend: AUG-CC-PVTZ-RI
    Molecular point group: c1

    Geometry (in Angstrom), charge = 0, multiplicity = 1:

       Center              X                  Y                   Z               Mass
    ------------   -----------------  -----------------  -----------------  -----------------
         O            2.295229577970    -0.027425273480     0.036600626563    15.994914619570
         N            0.319456577970    -1.146829273480    -0.057245373437    14.003074004430
         C           -1.824960422030     0.005183726520    -0.305943373437    12.000000000000
         C           -1.155172422030     1.222152726520     0.322278626563    12.000000000000
         C           -1.117744622030    -1.285764873480     0.151892526563    12.000000000000
         C            0.296396577970     1.309359726520    -0.144042373437    12.000000000000
         C            1.064319577970     0.005531726520    -0.018161373437    12.000000000000
         H           -2.883562422030    -0.053874273480    -0.030135373437     1.007825032230
         H           -1.772076422030     0.075731726520    -1.398898373437     1.007825032230
         H           -1.190523422030     1.131230726520     1.415564626563     1.007825032230
         H           -1.689963422030     2.142566726520     0.063823626563     1.007825032230
         H           -1.341463422030    -1.436329273480     1.218739626563     1.007825032230
         H           -1.481165422030    -2.131152273480    -0.402080373437     1.007825032230
         H            0.865365577970     2.065665726520     0.403630626563     1.007825032230
         H            0.332330577970     1.594673726520    -1.203426373437     1.007825032230
         H            0.886368577970    -1.979296273480     0.075563626563     1.007825032230

  Basis Set: AUG-CC-PVTZ
    Blend: AUG-CC-PVTZ
  Basis Set: (AUG-CC-PVTZ AUX)
    Blend: AUG-CC-PVTZ-JKFIT
	 Reference Energy          =    -324.0321132229206569 [Eh]
	 Singles Energy            =      -0.0000000000000000 [Eh]
	 Same-Spin Energy          =      -0.3336595730778046 [Eh]
	 Opposite-Spin Energy      =      -1.0910990584337517 [Eh]
	 Correlation Energy        =      -1.4247586315115561 [Eh]
	 Total Energy              =    -325.4568718544322223 [Eh]

	 ================> DF-SCS-MP2 Energies <==================
	-----------------------------------------------------------
	 SCS Same-Spin Scale       =       0.3333333333333333 [-]
	 SCS Opposite-Spin Scale   =       1.2000000000000000 [-]
	 SCS Same-Spin Energy      =      -0.1112198576926015 [Eh]
	 SCS Opposite-Spin Energy  =      -1.3093188701205019 [Eh]
	 SCS Correlation Energy    =      -1.4205387278131034 [Eh]
	 SCS Total Energy          =    -325.4526519507337525 [Eh]
	-----------------------------------------------------------

  Dipole Moment: [D]
     X:    -4.2326      Y:    -0.5963      Z:     0.1526     Total:     4.2771

*** Psi4 exiting successfully. Buy a developer a beer!
