                               Psi4 1.3.2 release

  ==> Input File <==

--------------------------------------------------------------------------
#psi4
#
memory 32 gb

molecule  {
0 1
  O        2.3713340    -0.0431960     0.0348750
  N        0.3955610    -1.1626000    -0.0589710
  C       -1.7488560    -0.0105870    -0.3076690
  C       -1.0116881     1.1396937     0.3688887
  C       -1.0433070    -1.2763970     0.1538630
  C        0.3725010     1.2935890    -0.1457680
  C        1.1404240    -0.0102390    -0.0198870
  H       -2.8074580    -0.0696450    -0.0318610
  H       -1.6959720     0.0599610    -1.4006240
  H       -1.1144190     1.1154600     1.4138390
  H       -1.6138590     2.1267960     0.0620980
  H       -1.2653590    -1.4521000     1.2170140
  H       -1.4050610    -2.1469230    -0.4038060
  H        0.9414700     2.0498950     0.4019050
  H        0.4084350     1.5789030    -1.2051520
  H        0.9624730    -1.9950670     0.0738380
units angstrom
no_reorient  #important for SAPT in psi4, default
symmetry c1  #important for SAPT in psi4, default
}

set PROPERTIES_ORIGIN ["COM"]
properties('MP2/aug-cc-pvtz', properties = ['dipole'])
--------------------------------------------------------------------------

    Molecular point group: c1
  Charge       = 0
  Multiplicity = 1
  Basis Set: AUG-CC-PVTZ
    Blend: AUG-CC-PVTZ
  Basis Set: (AUG-CC-PVTZ AUX)
    Blend: AUG-CC-PVTZ-JKFIT

    Orbital Energies [Eh]
    ---------------------

    Doubly Occupied:

       1A    -20.509637     2A    -15.582052     3A    -11.344632
       4A    -11.276941     5A    -11.242395     6A    -11.240957
       7A    -11.238192     8A     -1.365400     9A     -1.233250
      10A     -1.093509    11A     -1.022551    12A     -0.893489
      13A     -0.843388    14A     -0.759854    15A     -0.695556
      16A     -0.649219    17A     -0.636523    18A     -0.617251
      19A     -0.596665    20A     -0.583507    21A     -0.572629
      22A     -0.511039    23A     -0.499713    24A     -0.495156
      25A     -0.470487    26A     -0.404368    27A     -0.386983

  @DF-RHF Final Energy:  -324.02031553986103

   => Energetics <=

    Nuclear Repulsion Energy =            314.6630489349245181
    One-Electron Energy =               -1063.8360415290394485
    Two-Electron Energy =                 425.1526770542538998
    Total Energy =                       -324.0203155398610306
  Basis Set: (AUG-CC-PVTZ AUX)
    Blend: AUG-CC-PVTZ-RI
    Molecular point group: c1

    Geometry (in Angstrom), charge = 0, multiplicity = 1:

       Center              X                  Y                   Z               Mass
    ------------   -----------------  -----------------  -----------------  -----------------
         O            2.287269854292    -0.022392424156     0.030298097075    15.994914619570
         N            0.311496854292    -1.141796424156    -0.063547902925    14.003074004430
         C           -1.832920145708     0.010216575844    -0.312245902925    12.000000000000
         C           -1.095752245708     1.160497275844     0.364311797075    12.000000000000
         C           -1.127371145708    -1.255593424156     0.149286097075    12.000000000000
         C            0.288436854292     1.314392575844    -0.150344902925    12.000000000000
         C            1.056359854292     0.010564575844    -0.024463902925    12.000000000000
         H           -2.891522145708    -0.048841424156    -0.036437902925     1.007825032230
         H           -1.780036145708     0.080764575844    -1.405200902925     1.007825032230
         H           -1.198483145708     1.136263575844     1.409262097075     1.007825032230
         H           -1.697923145708     2.147599575844     0.057521097075     1.007825032230
         H           -1.349423145708    -1.431296424156     1.212437097075     1.007825032230
         H           -1.489125145708    -2.126119424156    -0.408382902925     1.007825032230
         H            0.857405854292     2.070698575844     0.397328097075     1.007825032230
         H            0.324370854292     1.599706575844    -1.209728902925     1.007825032230
         H            0.878408854292    -1.974263424156     0.069261097075     1.007825032230

  Basis Set: AUG-CC-PVTZ
    Blend: AUG-CC-PVTZ
  Basis Set: (AUG-CC-PVTZ AUX)
    Blend: AUG-CC-PVTZ-JKFIT
	 Reference Energy          =    -324.0203155398610306 [Eh]
	 Singles Energy            =      -0.0000000000000000 [Eh]
	 Same-Spin Energy          =      -0.3343902060976058 [Eh]
	 Opposite-Spin Energy      =      -1.0921672236464184 [Eh]
	 Correlation Energy        =      -1.4265574297440242 [Eh]
	 Total Energy              =    -325.4468729696050673 [Eh]

	 ================> DF-SCS-MP2 Energies <==================
	-----------------------------------------------------------
	 SCS Same-Spin Scale       =       0.3333333333333333 [-]
	 SCS Opposite-Spin Scale   =       1.2000000000000000 [-]
	 SCS Same-Spin Energy      =      -0.1114634020325353 [Eh]
	 SCS Opposite-Spin Energy  =      -1.3106006683757021 [Eh]
	 SCS Correlation Energy    =      -1.4220640704082375 [Eh]
	 SCS Total Energy          =    -325.4423796102692563 [Eh]
	-----------------------------------------------------------

  Dipole Moment: [D]
     X:    -4.1947      Y:    -0.6233      Z:     0.1759     Total:     4.2444

*** Psi4 exiting successfully. Buy a developer a beer!
