                               Psi4 1.3.2 release

  ==> Input File <==

--------------------------------------------------------------------------
#psi4
#
memory 32 gb

molecule  {
0 1
  O        2.3708987     0.0426147     0.0287235
  N        0.3955610    -1.1626000    -0.0589710
  C       -1.7488560    -0.0105870    -0.3076690
  C       -1.0790680     1.2063820     0.3205530
  C       -1.0433070    -1.2763970     0.1538630
  C        0.3725010     1.2935890    -0.1457680
  C        1.1404240    -0.0102390    -0.0198870
  H       -2.8074580    -0.0696450    -0.0318610
  H       -1.6959720     0.0599610    -1.4006240
  H       -1.1144190     1.1154600     1.4138390
  H       -1.6138590     2.1267960     0.0620980
  H       -1.2653590    -1.4521000     1.2170140
  H       -1.4050610    -2.1469230    -0.4038060
  H        0.9414700     2.0498950     0.4019050
  H        0.4084350     1.5789030    -1.2051520
  H        0.9624730    -1.9950670     0.0738380
units angstrom
no_reorient  #important for SAPT in psi4, default
symmetry c1  #important for SAPT in psi4, default
}

set PROPERTIES_ORIGIN ["COM"]
properties('MP2/aug-cc-pvtz', properties = ['dipole'])
--------------------------------------------------------------------------

    Molecular point group: c1
  Charge       = 0
  Multiplicity = 1
  Basis Set: AUG-CC-PVTZ
    Blend: AUG-CC-PVTZ
  Basis Set: (AUG-CC-PVTZ AUX)
    Blend: AUG-CC-PVTZ-JKFIT

    Orbital Energies [Eh]
    ---------------------

    Doubly Occupied:

       1A    -20.511055     2A    -15.585997     3A    -11.346265
       4A    -11.280457     5A    -11.240150     6A    -11.237552
       7A    -11.234262     8A     -1.364793     9A     -1.236189
      10A     -1.087328    11A     -1.017796    12A     -0.896400
      13A     -0.843750    14A     -0.755274    15A     -0.694177
      16A     -0.651292    17A     -0.639782    18A     -0.612255
      19A     -0.594633    20A     -0.588192    21A     -0.569610
      22A     -0.505159    23A     -0.497702    24A     -0.485493
      25A     -0.482424    26A     -0.408351    27A     -0.390258

  @DF-RHF Final Energy:  -324.03125189202052

   => Energetics <=

    Nuclear Repulsion Energy =            313.5095571622381954
    One-Electron Energy =               -1061.5684280540733653
    Two-Electron Energy =                 424.0276189998145924
    Total Energy =                       -324.0312518920205207
  Basis Set: (AUG-CC-PVTZ AUX)
    Blend: AUG-CC-PVTZ-RI
    Molecular point group: c1

    Geometry (in Angstrom), charge = 0, multiplicity = 1:

       Center              X                  Y                   Z               Mass
    ------------   -----------------  -----------------  -----------------  -----------------
         O            2.295066455400     0.041486013743     0.030994603321    15.994914619570
         N            0.319728755400    -1.163728686257    -0.056699896679    14.003074004430
         C           -1.824688244600    -0.011715686257    -0.305397896679    12.000000000000
         C           -1.154900244600     1.205253313743     0.322824103321    12.000000000000
         C           -1.119139244600    -1.277525686257     0.156134103321    12.000000000000
         C            0.296668755400     1.292460313743    -0.143496896679    12.000000000000
         C            1.064591755400    -0.011367686257    -0.017615896679    12.000000000000
         H           -2.883290244600    -0.070773686257    -0.029589896679     1.007825032230
         H           -1.771804244600     0.058832313743    -1.398352896679     1.007825032230
         H           -1.190251244600     1.114331313743     1.416110103321     1.007825032230
         H           -1.689691244600     2.125667313743     0.064369103321     1.007825032230
         H           -1.341191244600    -1.453228686257     1.219285103321     1.007825032230
         H           -1.480893244600    -2.148051686257    -0.401534896679     1.007825032230
         H            0.865637755400     2.048766313743     0.404176103321     1.007825032230
         H            0.332602755400     1.577774313743    -1.202880896679     1.007825032230
         H            0.886640755400    -1.996195686257     0.076109103321     1.007825032230

  Basis Set: AUG-CC-PVTZ
    Blend: AUG-CC-PVTZ
  Basis Set: (AUG-CC-PVTZ AUX)
    Blend: AUG-CC-PVTZ-JKFIT
	 Reference Energy          =    -324.0312518920205207 [Eh]
	 Singles Energy            =      -0.0000000000000000 [Eh]
	 Same-Spin Energy          =      -0.3338195739039205 [Eh]
	 Opposite-Spin Energy      =      -1.0913216027737629 [Eh]
	 Correlation Energy        =      -1.4251411766776834 [Eh]
	 Total Energy              =    -325.4563930686982189 [Eh]

	 ================> DF-SCS-MP2 Energies <==================
	-----------------------------------------------------------
	 SCS Same-Spin Scale       =       0.3333333333333333 [-]
	 SCS Opposite-Spin Scale   =       1.2000000000000000 [-]
	 SCS Same-Spin Energy      =      -0.1112731913013068 [Eh]
	 SCS Opposite-Spin Energy  =      -1.3095859233285154 [Eh]
	 SCS Correlation Energy    =      -1.4208591146298222 [Eh]
	 SCS Total Energy          =    -325.4521110066503411 [Eh]
	-----------------------------------------------------------

  Dipole Moment: [D]
     X:    -4.2131      Y:    -0.8184      Z:     0.1733     Total:     4.2954

*** Psi4 exiting successfully. Buy a developer a beer!
