                               Psi4 1.3.2 release

  ==> Input File <==

--------------------------------------------------------------------------
#psi4
#
memory 32 gb

molecule  {
0 1
  O        2.3713340    -0.0431960     0.0348750
  N        0.3955610    -1.1626000    -0.0589710
  C       -1.7488560    -0.0105870    -0.3076690
  C       -1.0790680     1.2063820     0.3205530
  C       -1.1419293    -1.2841968     0.1684510
  C        0.3725010     1.2935890    -0.1457680
  C        1.1404240    -0.0102390    -0.0198870
  H       -2.8074580    -0.0696450    -0.0318610
  H       -1.6959720     0.0599610    -1.4006240
  H       -1.1144190     1.1154600     1.4138390
  H       -1.6138590     2.1267960     0.0620980
  H       -1.2653590    -1.4521000     1.2170140
  H       -1.4050610    -2.1469230    -0.4038060
  H        0.9414700     2.0498950     0.4019050
  H        0.4084350     1.5789030    -1.2051520
  H        0.9624730    -1.9950670     0.0738380
units angstrom
no_reorient  #important for SAPT in psi4, default
symmetry c1  #important for SAPT in psi4, default
}

set PROPERTIES_ORIGIN ["COM"]
properties('MP2/aug-cc-pvtz', properties = ['dipole'])
--------------------------------------------------------------------------

    Molecular point group: c1
  Charge       = 0
  Multiplicity = 1
  Basis Set: AUG-CC-PVTZ
    Blend: AUG-CC-PVTZ
  Basis Set: (AUG-CC-PVTZ AUX)
    Blend: AUG-CC-PVTZ-JKFIT

    Orbital Energies [Eh]
    ---------------------

    Doubly Occupied:

       1A    -20.505193     2A    -15.576081     3A    -11.341323
       4A    -11.281871     5A    -11.241529     6A    -11.240842
       7A    -11.236859     8A     -1.359640     9A     -1.211591
      10A     -1.088800    11A     -1.024256    12A     -0.899115
      13A     -0.839523    14A     -0.751513    15A     -0.682129
      16A     -0.653496    17A     -0.636022    18A     -0.617560
      19A     -0.590357    20A     -0.583274    21A     -0.569169
      22A     -0.508955    23A     -0.498585    24A     -0.486383
      25A     -0.485261    26A     -0.406888    27A     -0.385727

  @DF-RHF Final Energy:  -324.02432472410675

   => Energetics <=

    Nuclear Repulsion Energy =            312.3620039338580341
    One-Electron Energy =               -1059.3687750022163527
    Two-Electron Energy =                 422.9824463442516276
    Total Energy =                       -324.0243247241067479
  Basis Set: (AUG-CC-PVTZ AUX)
    Blend: AUG-CC-PVTZ-RI
    Molecular point group: c1

    Geometry (in Angstrom), charge = 0, multiplicity = 1:

       Center              X                  Y                   Z               Mass
    ------------   -----------------  -----------------  -----------------  -----------------
         O            2.307377437741    -0.029525494850     0.034385902502    15.994914619570
         N            0.331604437741    -1.148929494850    -0.059460097498    14.003074004430
         C           -1.812812562259     0.003083505150    -0.308158097498    12.000000000000
         C           -1.143024562259     1.220052505150     0.320063902502    12.000000000000
         C           -1.205885862259    -1.270526294850     0.167961902502    12.000000000000
         C            0.308544437741     1.307259505150    -0.146257097498    12.000000000000
         C            1.076467437741     0.003431505150    -0.020376097498    12.000000000000
         H           -2.871414562259    -0.055974494850    -0.032350097498     1.007825032230
         H           -1.759928562259     0.073631505150    -1.401113097498     1.007825032230
         H           -1.178375562259     1.129130505150     1.413349902502     1.007825032230
         H           -1.677815562259     2.140466505150     0.061608902502     1.007825032230
         H           -1.329315562259    -1.438429494850     1.216524902502     1.007825032230
         H           -1.469017562259    -2.133252494850    -0.404295097498     1.007825032230
         H            0.877513437741     2.063565505150     0.401415902502     1.007825032230
         H            0.344478437741     1.592573505150    -1.205641097498     1.007825032230
         H            0.898516437741    -1.981396494850     0.073348902502     1.007825032230

  Basis Set: AUG-CC-PVTZ
    Blend: AUG-CC-PVTZ
  Basis Set: (AUG-CC-PVTZ AUX)
    Blend: AUG-CC-PVTZ-JKFIT
	 Reference Energy          =    -324.0243247241067479 [Eh]
	 Singles Energy            =      -0.0000000000000000 [Eh]
	 Same-Spin Energy          =      -0.3338490909173365 [Eh]
	 Opposite-Spin Energy      =      -1.0918790191840486 [Eh]
	 Correlation Energy        =      -1.4257281101013852 [Eh]
	 Total Energy              =    -325.4500528342081225 [Eh]

	 ================> DF-SCS-MP2 Energies <==================
	-----------------------------------------------------------
	 SCS Same-Spin Scale       =       0.3333333333333333 [-]
	 SCS Opposite-Spin Scale   =       1.2000000000000000 [-]
	 SCS Same-Spin Energy      =      -0.1112830303057788 [Eh]
	 SCS Opposite-Spin Energy  =      -1.3102548230208584 [Eh]
	 SCS Correlation Energy    =      -1.4215378533266372 [Eh]
	 SCS Total Energy          =    -325.4458625774333882 [Eh]
	-----------------------------------------------------------

  Dipole Moment: [D]
     X:    -4.5292      Y:    -0.6348      Z:     0.2162     Total:     4.5786

*** Psi4 exiting successfully. Buy a developer a beer!
