                               Psi4 1.3.2 release

  ==> Input File <==

--------------------------------------------------------------------------
#psi4
#
memory 32 gb

molecule  {
0 1
  O        2.3713340    -0.0431960     0.0348750
  N        0.3955610    -1.1626000    -0.0589710
  C       -1.7488560    -0.0105870    -0.3076690
  C       -1.0790680     1.2063820     0.3205530
  C       -1.0445355    -1.2512237     0.1574943
  C        0.3725010     1.2935890    -0.1457680
  C        1.1404240    -0.0102390    -0.0198870
  H       -2.8074580    -0.0696450    -0.0318610
  H       -1.6959720     0.0599610    -1.4006240
  H       -1.1144190     1.1154600     1.4138390
  H       -1.6138590     2.1267960     0.0620980
  H       -1.2653590    -1.4521000     1.2170140
  H       -1.4050610    -2.1469230    -0.4038060
  H        0.9414700     2.0498950     0.4019050
  H        0.4084350     1.5789030    -1.2051520
  H        0.9624730    -1.9950670     0.0738380
units angstrom
no_reorient  #important for SAPT in psi4, default
symmetry c1  #important for SAPT in psi4, default
}

set PROPERTIES_ORIGIN ["COM"]
properties('MP2/aug-cc-pvtz', properties = ['dipole'])
--------------------------------------------------------------------------

    Molecular point group: c1
  Charge       = 0
  Multiplicity = 1
  Basis Set: AUG-CC-PVTZ
    Blend: AUG-CC-PVTZ
  Basis Set: (AUG-CC-PVTZ AUX)
    Blend: AUG-CC-PVTZ-JKFIT

    Orbital Energies [Eh]
    ---------------------

    Doubly Occupied:

       1A    -20.510047     2A    -15.581815     3A    -11.345660
       4A    -11.279139     5A    -11.240039     6A    -11.239368
       7A    -11.238667     8A     -1.365503     9A     -1.232623
      10A     -1.089932    11A     -1.020129    12A     -0.895936
      13A     -0.843857    14A     -0.755644    15A     -0.694201
      16A     -0.648410    17A     -0.638252    18A     -0.612741
      19A     -0.596171    20A     -0.588804    21A     -0.570912
      22A     -0.503721    23A     -0.500382    24A     -0.487568
      25A     -0.482797    26A     -0.410794    27A     -0.386160

  @DF-RHF Final Energy:  -324.03171743871235

   => Energetics <=

    Nuclear Repulsion Energy =            313.8446617450783833
    One-Electron Energy =               -1062.2342109628484650
    Two-Electron Energy =                 424.3578317790577330
    Total Energy =                       -324.0317174387123487
  Basis Set: (AUG-CC-PVTZ AUX)
    Blend: AUG-CC-PVTZ-RI
    Molecular point group: c1

    Geometry (in Angstrom), charge = 0, multiplicity = 1:

       Center              X                  Y                   Z               Mass
    ------------   -----------------  -----------------  -----------------  -----------------
         O            2.295580281071    -0.033519474206     0.035713070211    15.994914619570
         N            0.319807281071    -1.152923474206    -0.058132929789    14.003074004430
         C           -1.824609718929    -0.000910474206    -0.306830929789    12.000000000000
         C           -1.154821718929     1.216058525794     0.321391070211    12.000000000000
         C           -1.120289218929    -1.241547174206     0.158332370211    12.000000000000
         C            0.296747281071     1.303265525794    -0.144929929789    12.000000000000
         C            1.064670281071    -0.000562474206    -0.019048929789    12.000000000000
         H           -2.883211718929    -0.059968474206    -0.031022929789     1.007825032230
         H           -1.771725718929     0.069637525794    -1.399785929789     1.007825032230
         H           -1.190172718929     1.125136525794     1.414677070211     1.007825032230
         H           -1.689612718929     2.136472525794     0.062936070211     1.007825032230
         H           -1.341112718929    -1.442423474206     1.217852070211     1.007825032230
         H           -1.480814718929    -2.137246474206    -0.402967929789     1.007825032230
         H            0.865716281071     2.059571525794     0.402743070211     1.007825032230
         H            0.332681281071     1.588579525794    -1.204313929789     1.007825032230
         H            0.886719281071    -1.985390474206     0.074676070211     1.007825032230

  Basis Set: AUG-CC-PVTZ
    Blend: AUG-CC-PVTZ
  Basis Set: (AUG-CC-PVTZ AUX)
    Blend: AUG-CC-PVTZ-JKFIT
	 Reference Energy          =    -324.0317174387123487 [Eh]
	 Singles Energy            =      -0.0000000000000000 [Eh]
	 Same-Spin Energy          =      -0.3339434608791685 [Eh]
	 Opposite-Spin Energy      =      -1.0913129429504098 [Eh]
	 Correlation Energy        =      -1.4252564038295783 [Eh]
	 Total Energy              =    -325.4569738425419132 [Eh]

	 ================> DF-SCS-MP2 Energies <==================
	-----------------------------------------------------------
	 SCS Same-Spin Scale       =       0.3333333333333333 [-]
	 SCS Opposite-Spin Scale   =       1.2000000000000000 [-]
	 SCS Same-Spin Energy      =      -0.1113144869597228 [Eh]
	 SCS Opposite-Spin Energy  =      -1.3095755315404918 [Eh]
	 SCS Correlation Energy    =      -1.4208900185002147 [Eh]
	 SCS Total Energy          =    -325.4526074572125367 [Eh]
	-----------------------------------------------------------

  Dipole Moment: [D]
     X:    -4.2340      Y:    -0.5580      Z:     0.1639     Total:     4.2737

*** Psi4 exiting successfully. Buy a developer a beer!
