                               Psi4 1.3.2 release

  ==> Input File <==

--------------------------------------------------------------------------
#psi4
#
memory 32 gb

molecule  {
0 1
  O        2.3713340    -0.0431960     0.0348750
  N        0.3955610    -1.1626000    -0.0589710
  C       -1.7488560    -0.0105870    -0.3076690
  C       -1.0790680     1.2063820     0.3205530
  C       -1.0433070    -1.2763970     0.1538630
  C        0.3725010     1.2935890    -0.1457680
  C        1.1404240    -0.0102390    -0.0198870
  H       -2.8074580    -0.0696450    -0.0318610
  H       -1.6959720     0.0599610    -1.4006240
  H       -1.1144190     1.1154600     1.4138390
  H       -1.6138590     2.1267960     0.0620980
  H       -1.2653590    -1.4521000     1.2170140
  H       -1.4050610    -2.1469230    -0.4038060
  H        0.9414700     2.0498950     0.4019050
  H        0.4084350     1.5789030    -1.2051520
  H        0.9066684    -1.9131223     0.0607648
units angstrom
no_reorient  #important for SAPT in psi4, default
symmetry c1  #important for SAPT in psi4, default
}

set PROPERTIES_ORIGIN ["COM"]
properties('MP2/aug-cc-pvtz', properties = ['dipole'])
--------------------------------------------------------------------------

    Molecular point group: c1
  Charge       = 0
  Multiplicity = 1
  Basis Set: AUG-CC-PVTZ
    Blend: AUG-CC-PVTZ
  Basis Set: (AUG-CC-PVTZ AUX)
    Blend: AUG-CC-PVTZ-JKFIT

    Orbital Energies [Eh]
    ---------------------

    Doubly Occupied:

       1A    -20.511277     2A    -15.571940     3A    -11.346695
       4A    -11.278663     5A    -11.240630     6A    -11.239924
       7A    -11.238466     8A     -1.368052     9A     -1.242609
      10A     -1.092671    11A     -1.019281    12A     -0.901428
      13A     -0.847895    14A     -0.770504    15A     -0.697222
      16A     -0.653482    17A     -0.639730    18A     -0.613307
      19A     -0.598421    20A     -0.590317    21A     -0.571779
      22A     -0.505845    23A     -0.498713    24A     -0.488022
      25A     -0.484905    26A     -0.411551    27A     -0.388802

  @DF-RHF Final Energy:  -324.02638145570455

   => Energetics <=

    Nuclear Repulsion Energy =            314.1652956051580077
    One-Electron Energy =               -1062.7590914041754786
    Two-Electron Energy =                 424.5674143433129188
    Total Energy =                       -324.0263814557045521
  Basis Set: (AUG-CC-PVTZ AUX)
    Blend: AUG-CC-PVTZ-RI
    Molecular point group: c1

    Geometry (in Angstrom), charge = 0, multiplicity = 1:

       Center              X                  Y                   Z               Mass
    ------------   -----------------  -----------------  -----------------  -----------------
         O            2.295999176167    -0.031303897400     0.036285917761    15.994914619570
         N            0.320226176167    -1.150707897400    -0.057560082239    14.003074004430
         C           -1.824190823833     0.001305102600    -0.306258082239    12.000000000000
         C           -1.154402823833     1.218274102600     0.321963917761    12.000000000000
         C           -1.118641823833    -1.264504897400     0.155273917761    12.000000000000
         C            0.297166176167     1.305481102600    -0.144357082239    12.000000000000
         C            1.065089176167     0.001653102600    -0.018476082239    12.000000000000
         H           -2.882792823833    -0.057752897400    -0.030450082239     1.007825032230
         H           -1.771306823833     0.071853102600    -1.399213082239     1.007825032230
         H           -1.189753823833     1.127352102600     1.415249917761     1.007825032230
         H           -1.689193823833     2.138688102600     0.063508917761     1.007825032230
         H           -1.340693823833    -1.440207897400     1.218424917761     1.007825032230
         H           -1.480395823833    -2.135030897400    -0.402395082239     1.007825032230
         H            0.866135176167     2.061787102600     0.403315917761     1.007825032230
         H            0.333100176167     1.590795102600    -1.203741082239     1.007825032230
         H            0.831333576167    -1.901230197400     0.062175717761     1.007825032230

  Basis Set: AUG-CC-PVTZ
    Blend: AUG-CC-PVTZ
  Basis Set: (AUG-CC-PVTZ AUX)
    Blend: AUG-CC-PVTZ-JKFIT
	 Reference Energy          =    -324.0263814557045521 [Eh]
	 Singles Energy            =      -0.0000000000000000 [Eh]
	 Same-Spin Energy          =      -0.3330420161419780 [Eh]
	 Opposite-Spin Energy      =      -1.0895501540208574 [Eh]
	 Correlation Energy        =      -1.4225921701628355 [Eh]
	 Total Energy              =    -325.4489736258673815 [Eh]

	 ================> DF-SCS-MP2 Energies <==================
	-----------------------------------------------------------
	 SCS Same-Spin Scale       =       0.3333333333333333 [-]
	 SCS Opposite-Spin Scale   =       1.2000000000000000 [-]
	 SCS Same-Spin Energy      =      -0.1110140053806593 [Eh]
	 SCS Opposite-Spin Energy  =      -1.3074601848250289 [Eh]
	 SCS Correlation Energy    =      -1.4184741902056883 [Eh]
	 SCS Total Energy          =    -325.4448556459102520 [Eh]
	-----------------------------------------------------------

  Dipole Moment: [D]
     X:    -4.2643      Y:    -0.5074      Z:     0.1494     Total:     4.2969

*** Psi4 exiting successfully. Buy a developer a beer!
