                               Psi4 1.3.2 release

  ==> Input File <==

--------------------------------------------------------------------------
#psi4
#
memory 32 gb

molecule  {
0 1
  O        2.3713340    -0.0431960     0.0348750
  N        0.3955610    -1.1626000    -0.0589710
  C       -1.7488560    -0.0105870    -0.3076690
  C       -1.0790680     1.2063820     0.3205530
  C       -1.0433070    -1.2763970     0.1538630
  C        0.3725010     1.2935890    -0.1457680
  C        1.1909987    -0.0961079    -0.0115966
  H       -2.8074580    -0.0696450    -0.0318610
  H       -1.6959720     0.0599610    -1.4006240
  H       -1.1144190     1.1154600     1.4138390
  H       -1.6138590     2.1267960     0.0620980
  H       -1.2653590    -1.4521000     1.2170140
  H       -1.4050610    -2.1469230    -0.4038060
  H        0.9414700     2.0498950     0.4019050
  H        0.4084350     1.5789030    -1.2051520
  H        0.9624730    -1.9950670     0.0738380
units angstrom
no_reorient  #important for SAPT in psi4, default
symmetry c1  #important for SAPT in psi4, default
}

set PROPERTIES_ORIGIN ["COM"]
properties('MP2/aug-cc-pvtz', properties = ['dipole'])
--------------------------------------------------------------------------

    Molecular point group: c1
  Charge       = 0
  Multiplicity = 1
  Basis Set: AUG-CC-PVTZ
    Blend: AUG-CC-PVTZ
  Basis Set: (AUG-CC-PVTZ AUX)
    Blend: AUG-CC-PVTZ-JKFIT

    Orbital Energies [Eh]
    ---------------------

    Doubly Occupied:

       1A    -20.513911     2A    -15.584131     3A    -11.340272
       4A    -11.282924     5A    -11.238608     6A    -11.233800
       7A    -11.230810     8A     -1.397098     9A     -1.248759
      10A     -1.084233    11A     -1.009838    12A     -0.890878
      13A     -0.839259    14A     -0.751919    15A     -0.698861
      16A     -0.650128    17A     -0.647976    18A     -0.610564
      19A     -0.597717    20A     -0.590746    21A     -0.565002
      22A     -0.512449    23A     -0.500318    24A     -0.486244
      25A     -0.481158    26A     -0.399034    27A     -0.393426

  @DF-RHF Final Energy:  -324.02566935702089

   => Energetics <=

    Nuclear Repulsion Energy =            313.6383963654272975
    One-Electron Energy =               -1061.7680022492731950
    Two-Electron Energy =                 424.1039365268250094
    Total Energy =                       -324.0256693570208881
  Basis Set: (AUG-CC-PVTZ AUX)
    Blend: AUG-CC-PVTZ-RI
    Molecular point group: c1

    Geometry (in Angstrom), charge = 0, multiplicity = 1:

       Center              X                  Y                   Z               Mass
    ------------   -----------------  -----------------  -----------------  -----------------
         O            2.289305441539    -0.020069108470     0.035148720811    15.994914619570
         N            0.313532441539    -1.139473108470    -0.058697279189    14.003074004430
         C           -1.830884558461     0.012539891530    -0.307395279189    12.000000000000
         C           -1.161096558461     1.229508891530     0.320826720811    12.000000000000
         C           -1.125335558461    -1.253270108470     0.154136720811    12.000000000000
         C            0.290472441539     1.316715891530    -0.145494279189    12.000000000000
         C            1.108970141539    -0.072981008470    -0.011322879189    12.000000000000
         H           -2.889486558461    -0.046518108470    -0.031587279189     1.007825032230
         H           -1.778000558461     0.083087891530    -1.400350279189     1.007825032230
         H           -1.196447558461     1.138586891530     1.414112720811     1.007825032230
         H           -1.695887558461     2.149922891530     0.062371720811     1.007825032230
         H           -1.347387558461    -1.428973108470     1.217287720811     1.007825032230
         H           -1.487089558461    -2.123796108470    -0.403532279189     1.007825032230
         H            0.859441441539     2.073021891530     0.402178720811     1.007825032230
         H            0.326406441539     1.602029891530    -1.204878279189     1.007825032230
         H            0.880444441539    -1.971940108470     0.074111720811     1.007825032230

  Basis Set: AUG-CC-PVTZ
    Blend: AUG-CC-PVTZ
  Basis Set: (AUG-CC-PVTZ AUX)
    Blend: AUG-CC-PVTZ-JKFIT
	 Reference Energy          =    -324.0256693570208881 [Eh]
	 Singles Energy            =      -0.0000000000000000 [Eh]
	 Same-Spin Energy          =      -0.3326321048707643 [Eh]
	 Opposite-Spin Energy      =      -1.0889785881674245 [Eh]
	 Correlation Energy        =      -1.4216106930381889 [Eh]
	 Total Energy              =    -325.4472800500590779 [Eh]

	 ================> DF-SCS-MP2 Energies <==================
	-----------------------------------------------------------
	 SCS Same-Spin Scale       =       0.3333333333333333 [-]
	 SCS Opposite-Spin Scale   =       1.2000000000000000 [-]
	 SCS Same-Spin Energy      =      -0.1108773682902548 [Eh]
	 SCS Opposite-Spin Energy  =      -1.3067743058009094 [Eh]
	 SCS Correlation Energy    =      -1.4176516740911642 [Eh]
	 SCS Total Energy          =    -325.4433210311120774 [Eh]
	-----------------------------------------------------------

  Dipole Moment: [D]
     X:    -4.0037      Y:    -1.0062      Z:     0.2041     Total:     4.1333

*** Psi4 exiting successfully. Buy a developer a beer!
