                               Psi4 1.3.2 release

  ==> Input File <==

--------------------------------------------------------------------------
#psi4
#
memory 32 gb

molecule  {
0 1
  O        2.3713340    -0.0431960     0.0348750
  N        0.2800623    -1.0784748    -0.0740580
  C       -1.7488560    -0.0105870    -0.3076690
  C       -1.0790680     1.2063820     0.3205530
  C       -1.0433070    -1.2763970     0.1538630
  C        0.3725010     1.2935890    -0.1457680
  C        1.1404240    -0.0102390    -0.0198870
  H       -2.8074580    -0.0696450    -0.0318610
  H       -1.6959720     0.0599610    -1.4006240
  H       -1.1144190     1.1154600     1.4138390
  H       -1.6138590     2.1267960     0.0620980
  H       -1.2653590    -1.4521000     1.2170140
  H       -1.4050610    -2.1469230    -0.4038060
  H        0.9414700     2.0498950     0.4019050
  H        0.4084350     1.5789030    -1.2051520
  H        0.9624730    -1.9950670     0.0738380
units angstrom
no_reorient  #important for SAPT in psi4, default
symmetry c1  #important for SAPT in psi4, default
}

set PROPERTIES_ORIGIN ["COM"]
properties('MP2/aug-cc-pvtz', properties = ['dipole'])
--------------------------------------------------------------------------

    Molecular point group: c1
  Charge       = 0
  Multiplicity = 1
  Basis Set: AUG-CC-PVTZ
    Blend: AUG-CC-PVTZ
  Basis Set: (AUG-CC-PVTZ AUX)
    Blend: AUG-CC-PVTZ-JKFIT

    Orbital Energies [Eh]
    ---------------------

    Doubly Occupied:

       1A    -20.520235     2A    -15.593197     3A    -11.353361
       4A    -11.272713     5A    -11.238173     6A    -11.236096
       7A    -11.233816     8A     -1.370139     9A     -1.257579
      10A     -1.080724    11A     -1.026843    12A     -0.895262
      13A     -0.848112    14A     -0.737328    15A     -0.708371
      16A     -0.650125    17A     -0.647267    18A     -0.615222
      19A     -0.593468    20A     -0.578518    21A     -0.574934
      22A     -0.505342    23A     -0.493830    24A     -0.485831
      25A     -0.475508    26A     -0.411746    27A     -0.388050

  @DF-RHF Final Energy:  -324.00033888642542

   => Energetics <=

    Nuclear Repulsion Energy =            315.4828753857956940
    One-Electron Energy =               -1065.3828519844987568
    Two-Electron Energy =                 425.8996377122775812
    Total Energy =                       -324.0003388864254248
  Basis Set: (AUG-CC-PVTZ AUX)
    Blend: AUG-CC-PVTZ-RI
    Molecular point group: c1

    Geometry (in Angstrom), charge = 0, multiplicity = 1:

       Center              X                  Y                   Z               Mass
    ------------   -----------------  -----------------  -----------------  -----------------
         O            2.311756928907    -0.042361160134     0.038285433767    15.994914619570
         N            0.220485228907    -1.077639960134    -0.070647566233    14.003074004430
         C           -1.808433071093    -0.009752160134    -0.304258566233    12.000000000000
         C           -1.138645071093     1.207216839866     0.323963433767    12.000000000000
         C           -1.102884071093    -1.275562160134     0.157273433767    12.000000000000
         C            0.312923928907     1.294423839866    -0.142357566233    12.000000000000
         C            1.080846928907    -0.009404160134    -0.016476566233    12.000000000000
         H           -2.867035071093    -0.068810160134    -0.028450566233     1.007825032230
         H           -1.755549071093     0.060795839866    -1.397213566233     1.007825032230
         H           -1.173996071093     1.116294839866     1.417249433767     1.007825032230
         H           -1.673436071093     2.127630839866     0.065508433767     1.007825032230
         H           -1.324936071093    -1.451265160134     1.220424433767     1.007825032230
         H           -1.464638071093    -2.146088160134    -0.400395566233     1.007825032230
         H            0.881892928907     2.050729839866     0.405315433767     1.007825032230
         H            0.348857928907     1.579737839866    -1.201741566233     1.007825032230
         H            0.902895928907    -1.994232160134     0.077248433767     1.007825032230

  Basis Set: AUG-CC-PVTZ
    Blend: AUG-CC-PVTZ
  Basis Set: (AUG-CC-PVTZ AUX)
    Blend: AUG-CC-PVTZ-JKFIT
	 Reference Energy          =    -324.0003388864254248 [Eh]
	 Singles Energy            =      -0.0000000000000000 [Eh]
	 Same-Spin Energy          =      -0.3366153484920370 [Eh]
	 Opposite-Spin Energy      =      -1.0958392996162070 [Eh]
	 Correlation Energy        =      -1.4324546481082439 [Eh]
	 Total Energy              =    -325.4327935345336869 [Eh]

	 ================> DF-SCS-MP2 Energies <==================
	-----------------------------------------------------------
	 SCS Same-Spin Scale       =       0.3333333333333333 [-]
	 SCS Opposite-Spin Scale   =       1.2000000000000000 [-]
	 SCS Same-Spin Energy      =      -0.1122051161640123 [Eh]
	 SCS Opposite-Spin Energy  =      -1.3150071595394484 [Eh]
	 SCS Correlation Energy    =      -1.4272122757034607 [Eh]
	 SCS Total Energy          =    -325.4275511621289070 [Eh]
	-----------------------------------------------------------

  Dipole Moment: [D]
     X:    -3.9911      Y:    -0.6703      Z:     0.1591     Total:     4.0501

*** Psi4 exiting successfully. Buy a developer a beer!
