                               Psi4 1.3.2 release

  ==> Input File <==

--------------------------------------------------------------------------
#psi4
#
memory 32 gb

molecule  {
0 1
  O        2.3713340    -0.0431960     0.0348750
  N        0.3955610    -1.1626000    -0.0589710
  C       -1.7488560    -0.0105870    -0.3076690
  C       -1.0984047     1.0911950     0.2114239
  C       -1.0433070    -1.2763970     0.1538630
  C        0.3725010     1.2935890    -0.1457680
  C        1.1404240    -0.0102390    -0.0198870
  H       -2.8074580    -0.0696450    -0.0318610
  H       -1.6959720     0.0599610    -1.4006240
  H       -1.1144190     1.1154600     1.4138390
  H       -1.6138590     2.1267960     0.0620980
  H       -1.2653590    -1.4521000     1.2170140
  H       -1.4050610    -2.1469230    -0.4038060
  H        0.9414700     2.0498950     0.4019050
  H        0.4084350     1.5789030    -1.2051520
  H        0.9624730    -1.9950670     0.0738380
units angstrom
no_reorient  #important for SAPT in psi4, default
symmetry c1  #important for SAPT in psi4, default
}

set PROPERTIES_ORIGIN ["COM"]
properties('MP2/aug-cc-pvtz', properties = ['dipole'])
--------------------------------------------------------------------------

    Molecular point group: c1
  Charge       = 0
  Multiplicity = 1
  Basis Set: AUG-CC-PVTZ
    Blend: AUG-CC-PVTZ
  Basis Set: (AUG-CC-PVTZ AUX)
    Blend: AUG-CC-PVTZ-JKFIT

    Orbital Energies [Eh]
    ---------------------

    Doubly Occupied:

       1A    -20.509992     2A    -15.582927     3A    -11.345616
       4A    -11.279725     5A    -11.248746     6A    -11.241237
       7A    -11.235538     8A     -1.365847     9A     -1.235956
      10A     -1.109884    11A     -1.023088    12A     -0.907091
      13A     -0.832798    14A     -0.754313    15A     -0.699875
      16A     -0.656204    17A     -0.637574    18A     -0.618834
      19A     -0.598653    20A     -0.587407    21A     -0.574589
      22A     -0.524588    23A     -0.504098    24A     -0.480440
      25A     -0.453546    26A     -0.406350    27A     -0.387712

  @DF-RHF Final Energy:  -324.00236660356512

   => Energetics <=

    Nuclear Repulsion Energy =            315.5079795264168183
    One-Electron Energy =               -1065.4154337544478039
    Two-Electron Energy =                 425.9050876244658070
    Total Energy =                       -324.0023666035651217
  Basis Set: (AUG-CC-PVTZ AUX)
    Blend: AUG-CC-PVTZ-RI
    Molecular point group: c1

    Geometry (in Angstrom), charge = 0, multiplicity = 1:

       Center              X                  Y                   Z               Mass
    ------------   -----------------  -----------------  -----------------  -----------------
         O            2.297773698644    -0.016517853473     0.049371558790    15.994914619570
         N            0.322000698644    -1.135921853473    -0.044474441210    14.003074004430
         C           -1.822416301356     0.016091146527    -0.293172441210    12.000000000000
         C           -1.171965001356     1.117873146527     0.225920458790    12.000000000000
         C           -1.116867301356    -1.249718853473     0.168359558790    12.000000000000
         C            0.298940698644     1.320267146527    -0.131271441210    12.000000000000
         C            1.066863698644     0.016439146527    -0.005390441210    12.000000000000
         H           -2.881018301356    -0.042966853473    -0.017364441210     1.007825032230
         H           -1.769532301356     0.086639146527    -1.386127441210     1.007825032230
         H           -1.187979301356     1.142138146527     1.428335558790     1.007825032230
         H           -1.687419301356     2.153474146527     0.076594558790     1.007825032230
         H           -1.338919301356    -1.425421853473     1.231510558790     1.007825032230
         H           -1.478621301356    -2.120244853473    -0.389309441210     1.007825032230
         H            0.867909698644     2.076573146527     0.416401558790     1.007825032230
         H            0.334874698644     1.605581146527    -1.190655441210     1.007825032230
         H            0.888912698644    -1.968388853473     0.088334558790     1.007825032230

  Basis Set: AUG-CC-PVTZ
    Blend: AUG-CC-PVTZ
  Basis Set: (AUG-CC-PVTZ AUX)
    Blend: AUG-CC-PVTZ-JKFIT
	 Reference Energy          =    -324.0023666035651217 [Eh]
	 Singles Energy            =      -0.0000000000000000 [Eh]
	 Same-Spin Energy          =      -0.3356149097605300 [Eh]
	 Opposite-Spin Energy      =      -1.0936729286666291 [Eh]
	 Correlation Energy        =      -1.4292878384271592 [Eh]
	 Total Energy              =    -325.4316544419922934 [Eh]

	 ================> DF-SCS-MP2 Energies <==================
	-----------------------------------------------------------
	 SCS Same-Spin Scale       =       0.3333333333333333 [-]
	 SCS Opposite-Spin Scale   =       1.2000000000000000 [-]
	 SCS Same-Spin Energy      =      -0.1118716365868433 [Eh]
	 SCS Opposite-Spin Energy  =      -1.3124075143999550 [Eh]
	 SCS Correlation Energy    =      -1.4242791509867982 [Eh]
	 SCS Total Energy          =    -325.4266457545519415 [Eh]
	-----------------------------------------------------------

  Dipole Moment: [D]
     X:    -4.2153      Y:    -0.6343      Z:     0.0742     Total:     4.2634

*** Psi4 exiting successfully. Buy a developer a beer!
