                               Psi4 1.3.2 release

  ==> Input File <==

--------------------------------------------------------------------------
#psi4
#
memory 32 gb

molecule  {
0 1
  O        2.3713340    -0.0431960     0.0348750
  N        0.3955610    -1.1626000    -0.0589710
  C       -1.7488560    -0.0105870    -0.3076690
  C       -1.0790680     1.2063820     0.3205530
  C       -1.0440949    -1.1251060     0.1746401
  C        0.3725010     1.2935890    -0.1457680
  C        1.1404240    -0.0102390    -0.0198870
  H       -2.8074580    -0.0696450    -0.0318610
  H       -1.6959720     0.0599610    -1.4006240
  H       -1.1144190     1.1154600     1.4138390
  H       -1.6138590     2.1267960     0.0620980
  H       -1.2653590    -1.4521000     1.2170140
  H       -1.4050610    -2.1469230    -0.4038060
  H        0.9414700     2.0498950     0.4019050
  H        0.4084350     1.5789030    -1.2051520
  H        0.9624730    -1.9950670     0.0738380
units angstrom
no_reorient  #important for SAPT in psi4, default
symmetry c1  #important for SAPT in psi4, default
}

set PROPERTIES_ORIGIN ["COM"]
properties('MP2/aug-cc-pvtz', properties = ['dipole'])
--------------------------------------------------------------------------

    Molecular point group: c1
  Charge       = 0
  Multiplicity = 1
  Basis Set: AUG-CC-PVTZ
    Blend: AUG-CC-PVTZ
  Basis Set: (AUG-CC-PVTZ AUX)
    Blend: AUG-CC-PVTZ-JKFIT

    Orbital Energies [Eh]
    ---------------------

    Doubly Occupied:

       1A    -20.509970     2A    -15.583855     3A    -11.343991
       4A    -11.285900     5A    -11.240654     6A    -11.240004
       7A    -11.236545     8A     -1.366081     9A     -1.238051
      10A     -1.102101    11A     -1.027764    12A     -0.892287
      13A     -0.843584    14A     -0.761094    15A     -0.701305
      16A     -0.643459    17A     -0.636362    18A     -0.615095
      19A     -0.607866    20A     -0.590244    21A     -0.566404
      22A     -0.515401    23A     -0.499568    24A     -0.489249
      25A     -0.467558    26A     -0.410152    27A     -0.380345

  @DF-RHF Final Energy:  -324.00548331996379

   => Energetics <=

    Nuclear Repulsion Energy =            315.5474647798801584
    One-Electron Energy =               -1065.5161115999808317
    Two-Electron Energy =                 425.9631635001369432
    Total Energy =                       -324.0054833199637869
  Basis Set: (AUG-CC-PVTZ AUX)
    Blend: AUG-CC-PVTZ-RI
    Molecular point group: c1

    Geometry (in Angstrom), charge = 0, multiplicity = 1:

       Center              X                  Y                   Z               Mass
    ------------   -----------------  -----------------  -----------------  -----------------
         O            2.295526911891    -0.048795911369     0.033636226625    15.994914619570
         N            0.319753911891    -1.168199911369    -0.060209773375    14.003074004430
         C           -1.824663088109    -0.016186911369    -0.308907773375    12.000000000000
         C           -1.154875088109     1.200782088631     0.319314226625    12.000000000000
         C           -1.119901988109    -1.130705911369     0.173401326625    12.000000000000
         C            0.296693911891     1.287989088631    -0.147006773375    12.000000000000
         C            1.064616911891    -0.015838911369    -0.021125773375    12.000000000000
         H           -2.883265088109    -0.075244911369    -0.033099773375     1.007825032230
         H           -1.771779088109     0.054361088631    -1.401862773375     1.007825032230
         H           -1.190226088109     1.109860088631     1.412600226625     1.007825032230
         H           -1.689666088109     2.121196088631     0.060859226625     1.007825032230
         H           -1.341166088109    -1.457699911369     1.215775226625     1.007825032230
         H           -1.480868088109    -2.152522911369    -0.405044773375     1.007825032230
         H            0.865662911891     2.044295088631     0.400666226625     1.007825032230
         H            0.332627911891     1.573303088631    -1.206390773375     1.007825032230
         H            0.886665911891    -2.000666911369     0.072599226625     1.007825032230

  Basis Set: AUG-CC-PVTZ
    Blend: AUG-CC-PVTZ
  Basis Set: (AUG-CC-PVTZ AUX)
    Blend: AUG-CC-PVTZ-JKFIT
	 Reference Energy          =    -324.0054833199637869 [Eh]
	 Singles Energy            =      -0.0000000000000000 [Eh]
	 Same-Spin Energy          =      -0.3355059892947048 [Eh]
	 Opposite-Spin Energy      =      -1.0936122880839394 [Eh]
	 Correlation Energy        =      -1.4291182773786442 [Eh]
	 Total Energy              =    -325.4346015973424073 [Eh]

	 ================> DF-SCS-MP2 Energies <==================
	-----------------------------------------------------------
	 SCS Same-Spin Scale       =       0.3333333333333333 [-]
	 SCS Opposite-Spin Scale   =       1.2000000000000000 [-]
	 SCS Same-Spin Energy      =      -0.1118353297649016 [Eh]
	 SCS Opposite-Spin Energy  =      -1.3123347457007273 [Eh]
	 SCS Correlation Energy    =      -1.4241700754656288 [Eh]
	 SCS Total Energy          =    -325.4296533954293977 [Eh]
	-----------------------------------------------------------

  Dipole Moment: [D]
     X:    -4.2083      Y:    -0.4024      Z:     0.1931     Total:     4.2319

*** Psi4 exiting successfully. Buy a developer a beer!
