                               Psi4 1.4a3.dev225

  ==> Input File <==

--------------------------------------------------------------------------
#psi4
#
memory 32 gb

molecule  {
0 1
  O        2.3713340    -0.0431960     0.0348750
  N        0.3955610    -1.1626000    -0.0589710
  C       -1.7488560    -0.0105870    -0.3076690
  C       -1.0790680     1.2063820     0.3205530
  C       -1.0433070    -1.2763970     0.1538630
  C        0.3725010     1.2935890    -0.1457680
  C        1.1404240    -0.0102390    -0.0198870
  H       -2.8074580    -0.0696450    -0.0318610
  H       -1.6959720     0.0599610    -1.4006240
  H       -1.1144190     1.1154600     1.4138390
  H       -1.6138590     2.1267960     0.0620980
  H       -1.2653590    -1.4521000     1.2170140
  H       -1.4050610    -2.1469230    -0.4038060
  H        0.9414700     2.0498950     0.4019050
  H        0.4084350     1.5789030    -1.2051520
  H        0.9513121    -1.9786781     0.0712234
units angstrom
no_reorient  #important for SAPT in psi4, default
symmetry c1  #important for SAPT in psi4, default
}

set PROPERTIES_ORIGIN ["COM"]
properties('MP2/aug-cc-pvtz', properties = ['dipole'])
--------------------------------------------------------------------------

    Molecular point group: c1
  Charge       = 0
  Multiplicity = 1
  Basis Set: AUG-CC-PVTZ
    Blend: AUG-CC-PVTZ
  Basis Set: (AUG-CC-PVTZ AUX)
    Blend: AUG-CC-PVTZ-JKFIT

    Orbital Energies [Eh]
    ---------------------

    Doubly Occupied:

       1A    -20.510369     2A    -15.579816     3A    -11.346220
       4A    -11.278366     5A    -11.240415     6A    -11.239717
       7A    -11.238483     8A     -1.365950     9A     -1.233688
      10A     -1.089025    11A     -1.018784    12A     -0.897739
      13A     -0.844430    14A     -0.757779    15A     -0.693952
      16A     -0.651453    17A     -0.639044    18A     -0.612896
      19A     -0.595307    20A     -0.589084    21A     -0.571054
      22A     -0.504983    23A     -0.497370    24A     -0.487605
      25A     -0.484114    26A     -0.411064    27A     -0.387118

  @DF-RHF Final Energy:  -324.03307881521334

   => Energetics <=

    Nuclear Repulsion Energy =            313.6425884181243759
    One-Electron Energy =               -1061.8196808089712704
    Two-Electron Energy =                 424.1440135756334939
    Total Energy =                       -324.0330788152133437
  Basis Set: (AUG-CC-PVTZ AUX)
    Blend: AUG-CC-PVTZ-RI
    Molecular point group: c1

    Geometry (in Angstrom), charge = 0, multiplicity = 1:

       Center              X                  Y                   Z               Mass
    ------------   -----------------  -----------------  -----------------  -----------------
         O            2.295545014880    -0.030636996885     0.036179522206    15.994914619570
         N            0.319772014880    -1.150040996885    -0.057666477794    14.003074004430
         C           -1.824644985120     0.001972003115    -0.306364477794    12.000000000000
         C           -1.154856985120     1.218941003115     0.321857522206    12.000000000000
         C           -1.119095985120    -1.263837996885     0.155167522206    12.000000000000
         C            0.296712014880     1.306148003115    -0.144463477794    12.000000000000
         C            1.064635014880     0.002320003115    -0.018582477794    12.000000000000
         H           -2.883246985120    -0.057085996885    -0.030556477794     1.007825032230
         H           -1.771760985120     0.072520003115    -1.399319477794     1.007825032230
         H           -1.190207985120     1.128019003115     1.415143522206     1.007825032230
         H           -1.689647985120     2.139355003115     0.063402522206     1.007825032230
         H           -1.341147985120    -1.439540996885     1.218318522206     1.007825032230
         H           -1.480849985120    -2.134363996885    -0.402501477794     1.007825032230
         H            0.865681014880     2.062454003115     0.403209522206     1.007825032230
         H            0.332646014880     1.591462003115    -1.203847477794     1.007825032230
         H            0.875523114880    -1.966119096885     0.072527922206     1.007825032230

  Basis Set: AUG-CC-PVTZ
    Blend: AUG-CC-PVTZ
  Basis Set: (AUG-CC-PVTZ AUX)
    Blend: AUG-CC-PVTZ-JKFIT
	 Reference Energy          =    -324.0330788152133437 [Eh]
	 Singles Energy            =      -0.0000000000000000 [Eh]
	 Same-Spin Energy          =      -0.3336228441419815 [Eh]
	 Opposite-Spin Energy      =      -1.0907997857448071 [Eh]
	 Correlation Energy        =      -1.4244226298867886 [Eh]
	 Total Energy              =    -325.4575014451001493 [Eh]

	 ================> DF-SCS-MP2 Energies <==================
	-----------------------------------------------------------
	 SCS Same-Spin Scale       =       0.3333333333333333 [-]
	 SCS Opposite-Spin Scale   =       1.2000000000000000 [-]
	 SCS Same-Spin Energy      =      -0.1112076147139938 [Eh]
	 SCS Opposite-Spin Energy  =      -1.3089597428937685 [Eh]
	 SCS Correlation Energy    =      -1.4201673576077622 [Eh]
	 SCS Total Energy          =    -325.4532461728210819 [Eh]
	-----------------------------------------------------------

  Dipole Moment: [D]
     X:    -4.2400      Y:    -0.5651      Z:     0.1565     Total:     4.2804

*** Psi4 exiting successfully. Buy a developer a beer!
