                               Psi4 1.3.2 release

  ==> Input File <==

--------------------------------------------------------------------------
#psi4
#
memory 32 gb

molecule  {
0 1
  O        2.3713340    -0.0431960     0.0348750
  N        0.3955610    -1.1626000    -0.0589710
  C       -1.7488560    -0.0105870    -0.3076690
  C       -1.0690728     1.2450528     0.3558516
  C       -1.0433070    -1.2763970     0.1538630
  C        0.3725010     1.2935890    -0.1457680
  C        1.1404240    -0.0102390    -0.0198870
  H       -2.8074580    -0.0696450    -0.0318610
  H       -1.6959720     0.0599610    -1.4006240
  H       -1.1144190     1.1154600     1.4138390
  H       -1.6138590     2.1267960     0.0620980
  H       -1.2653590    -1.4521000     1.2170140
  H       -1.4050610    -2.1469230    -0.4038060
  H        0.9414700     2.0498950     0.4019050
  H        0.4084350     1.5789030    -1.2051520
  H        0.9624730    -1.9950670     0.0738380
units angstrom
no_reorient  #important for SAPT in psi4, default
symmetry c1  #important for SAPT in psi4, default
}

set PROPERTIES_ORIGIN ["COM"]
properties('MP2/aug-cc-pvtz', properties = ['dipole'])
--------------------------------------------------------------------------

    Molecular point group: c1
  Charge       = 0
  Multiplicity = 1
  Basis Set: AUG-CC-PVTZ
    Blend: AUG-CC-PVTZ
  Basis Set: (AUG-CC-PVTZ AUX)
    Blend: AUG-CC-PVTZ-JKFIT

    Orbital Energies [Eh]
    ---------------------

    Doubly Occupied:

       1A    -20.510346     2A    -15.581367     3A    -11.346437
       4A    -11.278028     5A    -11.241505     6A    -11.238668
       7A    -11.238017     8A     -1.365539     9A     -1.230939
      10A     -1.083225    11A     -1.017525    12A     -0.895197
      13A     -0.846415    14A     -0.755370    15A     -0.691372
      16A     -0.650903    17A     -0.639609    18A     -0.613318
      19A     -0.591545    20A     -0.590083    21A     -0.570017
      22A     -0.505533    23A     -0.503901    24A     -0.492456
      25A     -0.469723    26A     -0.411835    27A     -0.386441

  @DF-RHF Final Energy:  -324.03038382293562

   => Energetics <=

    Nuclear Repulsion Energy =            312.9076024197386801
    One-Electron Energy =               -1060.3853479097515446
    Two-Electron Energy =                 423.4473616670773026
    Total Energy =                       -324.0303838229356188
  Basis Set: (AUG-CC-PVTZ AUX)
    Blend: AUG-CC-PVTZ-RI
    Molecular point group: c1

    Geometry (in Angstrom), charge = 0, multiplicity = 1:

       Center              X                  Y                   Z               Mass
    ------------   -----------------  -----------------  -----------------  -----------------
         O            2.294220772074    -0.035154404994     0.031877260340    15.994914619570
         N            0.318447772074    -1.154558404994    -0.061968739660    14.003074004430
         C           -1.825969227926    -0.002545404994    -0.310666739660    12.000000000000
         C           -1.146186027926     1.253094395006     0.352853860340    12.000000000000
         C           -1.120420227926    -1.268355404994     0.150865260340    12.000000000000
         C            0.295387772074     1.301630595006    -0.148765739660    12.000000000000
         C            1.063310772074    -0.002197404994    -0.022884739660    12.000000000000
         H           -2.884571227926    -0.061603404994    -0.034858739660     1.007825032230
         H           -1.773085227926     0.068002595006    -1.403621739660     1.007825032230
         H           -1.191532227926     1.123501595006     1.410841260340     1.007825032230
         H           -1.690972227926     2.134837595006     0.059100260340     1.007825032230
         H           -1.342472227926    -1.444058404994     1.214016260340     1.007825032230
         H           -1.482174227926    -2.138881404994    -0.406803739660     1.007825032230
         H            0.864356772074     2.057936595006     0.398907260340     1.007825032230
         H            0.331321772074     1.586944595006    -1.208149739660     1.007825032230
         H            0.885359772074    -1.987025404994     0.070840260340     1.007825032230

  Basis Set: AUG-CC-PVTZ
    Blend: AUG-CC-PVTZ
  Basis Set: (AUG-CC-PVTZ AUX)
    Blend: AUG-CC-PVTZ-JKFIT
	 Reference Energy          =    -324.0303838229356188 [Eh]
	 Singles Energy            =      -0.0000000000000000 [Eh]
	 Same-Spin Energy          =      -0.3335706098502895 [Eh]
	 Opposite-Spin Energy      =      -1.0911104273669272 [Eh]
	 Correlation Energy        =      -1.4246810372172167 [Eh]
	 Total Energy              =    -325.4550648601528451 [Eh]

	 ================> DF-SCS-MP2 Energies <==================
	-----------------------------------------------------------
	 SCS Same-Spin Scale       =       0.3333333333333333 [-]
	 SCS Opposite-Spin Scale   =       1.2000000000000000 [-]
	 SCS Same-Spin Energy      =      -0.1111902032834298 [Eh]
	 SCS Opposite-Spin Energy  =      -1.3093325128403126 [Eh]
	 SCS Correlation Energy    =      -1.4205227161237424 [Eh]
	 SCS Total Energy          =    -325.4509065390593605 [Eh]
	-----------------------------------------------------------

  Dipole Moment: [D]
     X:    -4.2323      Y:    -0.5711      Z:     0.1751     Total:     4.2743

*** Psi4 exiting successfully. Buy a developer a beer!
