                               Psi4 1.3.2 release

  ==> Input File <==

--------------------------------------------------------------------------
#psi4
#
memory 32 gb

molecule  {
0 1
  O        2.3713340    -0.0431960     0.0348750
  N        0.3955610    -1.1626000    -0.0589710
  C       -1.7488560    -0.0105870    -0.3076690
  C       -1.0790680     1.2063820     0.3205530
  C       -1.0509817    -1.1775890     0.1304460
  C        0.3725010     1.2935890    -0.1457680
  C        1.1404240    -0.0102390    -0.0198870
  H       -2.8074580    -0.0696450    -0.0318610
  H       -1.6959720     0.0599610    -1.4006240
  H       -1.1144190     1.1154600     1.4138390
  H       -1.6138590     2.1267960     0.0620980
  H       -1.2653590    -1.4521000     1.2170140
  H       -1.4050610    -2.1469230    -0.4038060
  H        0.9414700     2.0498950     0.4019050
  H        0.4084350     1.5789030    -1.2051520
  H        0.9624730    -1.9950670     0.0738380
units angstrom
no_reorient  #important for SAPT in psi4, default
symmetry c1  #important for SAPT in psi4, default
}

set PROPERTIES_ORIGIN ["COM"]
properties('MP2/aug-cc-pvtz', properties = ['dipole'])
--------------------------------------------------------------------------

    Molecular point group: c1
  Charge       = 0
  Multiplicity = 1
  Basis Set: AUG-CC-PVTZ
    Blend: AUG-CC-PVTZ
  Basis Set: (AUG-CC-PVTZ AUX)
    Blend: AUG-CC-PVTZ-JKFIT

    Orbital Energies [Eh]
    ---------------------

    Doubly Occupied:

       1A    -20.509573     2A    -15.582952     3A    -11.344581
       4A    -11.283532     5A    -11.240624     6A    -11.239499
       7A    -11.237139     8A     -1.365529     9A     -1.235804
      10A     -1.097556    11A     -1.026271    12A     -0.893539
      13A     -0.844281    14A     -0.757692    15A     -0.696661
      16A     -0.644652    17A     -0.638712    18A     -0.612509
      19A     -0.603801    20A     -0.588280    21A     -0.570533
      22A     -0.512178    23A     -0.496896    24A     -0.488597
      25A     -0.478167    26A     -0.410253    27A     -0.381599

  @DF-RHF Final Energy:  -324.01969041371865

   => Energetics <=

    Nuclear Repulsion Energy =            314.9134943119092895
    One-Electron Energy =               -1064.3035460210767269
    Two-Electron Energy =                 425.3703612954487880
    Total Energy =                       -324.0196904137186493
  Basis Set: (AUG-CC-PVTZ AUX)
    Blend: AUG-CC-PVTZ-RI
    Molecular point group: c1

    Geometry (in Angstrom), charge = 0, multiplicity = 1:

       Center              X                  Y                   Z               Mass
    ------------   -----------------  -----------------  -----------------  -----------------
         O            2.296361099063    -0.042438728740     0.038989387931    15.994914619570
         N            0.320588099063    -1.161842728740    -0.054856612069    14.003074004430
         C           -1.823828900937    -0.009829728740    -0.303554612069    12.000000000000
         C           -1.154040900937     1.207139271260     0.324667387931    12.000000000000
         C           -1.125954600937    -1.176831728740     0.134560387931    12.000000000000
         C            0.297528099063     1.294346271260    -0.141653612069    12.000000000000
         C            1.065451099063    -0.009481728740    -0.015772612069    12.000000000000
         H           -2.882430900937    -0.068887728740    -0.027746612069     1.007825032230
         H           -1.770944900937     0.060718271260    -1.396509612069     1.007825032230
         H           -1.189391900937     1.116217271260     1.417953387931     1.007825032230
         H           -1.688831900937     2.127553271260     0.066212387931     1.007825032230
         H           -1.340331900937    -1.451342728740     1.221128387931     1.007825032230
         H           -1.480033900937    -2.146165728740    -0.399691612069     1.007825032230
         H            0.866497099063     2.050652271260     0.406019387931     1.007825032230
         H            0.333462099063     1.579660271260    -1.201037612069     1.007825032230
         H            0.887500099063    -1.994309728740     0.077952387931     1.007825032230

  Basis Set: AUG-CC-PVTZ
    Blend: AUG-CC-PVTZ
  Basis Set: (AUG-CC-PVTZ AUX)
    Blend: AUG-CC-PVTZ-JKFIT
	 Reference Energy          =    -324.0196904137186493 [Eh]
	 Singles Energy            =      -0.0000000000000000 [Eh]
	 Same-Spin Energy          =      -0.3348583048132294 [Eh]
	 Opposite-Spin Energy      =      -1.0924725688888928 [Eh]
	 Correlation Energy        =      -1.4273308737021222 [Eh]
	 Total Energy              =    -325.4470212874207959 [Eh]

	 ================> DF-SCS-MP2 Energies <==================
	-----------------------------------------------------------
	 SCS Same-Spin Scale       =       0.3333333333333333 [-]
	 SCS Opposite-Spin Scale   =       1.2000000000000000 [-]
	 SCS Same-Spin Energy      =      -0.1116194349377431 [Eh]
	 SCS Opposite-Spin Energy  =      -1.3109670826666713 [Eh]
	 SCS Correlation Energy    =      -1.4225865176044143 [Eh]
	 SCS Total Energy          =    -325.4422769313230788 [Eh]
	-----------------------------------------------------------

  Dipole Moment: [D]
     X:    -4.2397      Y:    -0.4880      Z:     0.1217     Total:     4.2694

*** Psi4 exiting successfully. Buy a developer a beer!
