                               Psi4 1.3.2 release

  ==> Input File <==

--------------------------------------------------------------------------
#psi4
#
memory 32 gb

molecule  {
0 1
  O        2.3684317     0.0854496     0.0255570
  N        0.3955610    -1.1626000    -0.0589710
  C       -1.7488560    -0.0105870    -0.3076690
  C       -1.0790680     1.2063820     0.3205530
  C       -1.0433070    -1.2763970     0.1538630
  C        0.3725010     1.2935890    -0.1457680
  C        1.1404240    -0.0102390    -0.0198870
  H       -2.8074580    -0.0696450    -0.0318610
  H       -1.6959720     0.0599610    -1.4006240
  H       -1.1144190     1.1154600     1.4138390
  H       -1.6138590     2.1267960     0.0620980
  H       -1.2653590    -1.4521000     1.2170140
  H       -1.4050610    -2.1469230    -0.4038060
  H        0.9414700     2.0498950     0.4019050
  H        0.4084350     1.5789030    -1.2051520
  H        0.9624730    -1.9950670     0.0738380
units angstrom
no_reorient  #important for SAPT in psi4, default
symmetry c1  #important for SAPT in psi4, default
}

set PROPERTIES_ORIGIN ["COM"]
properties('MP2/aug-cc-pvtz', properties = ['dipole'])
--------------------------------------------------------------------------

    Molecular point group: c1
  Charge       = 0
  Multiplicity = 1
  Basis Set: AUG-CC-PVTZ
    Blend: AUG-CC-PVTZ
  Basis Set: (AUG-CC-PVTZ AUX)
    Blend: AUG-CC-PVTZ-JKFIT

    Orbital Energies [Eh]
    ---------------------

    Doubly Occupied:

       1A    -20.511424     2A    -15.588114     3A    -11.346378
       4A    -11.281446     5A    -11.240040     6A    -11.236369
       7A    -11.232111     8A     -1.364648     9A     -1.238252
      10A     -1.086836    11A     -1.017263    12A     -0.896049
      13A     -0.843706    14A     -0.755508    15A     -0.694703
      16A     -0.651504    17A     -0.640245    18A     -0.611962
      19A     -0.594618    20A     -0.587972    21A     -0.568872
      22A     -0.505391    23A     -0.497997    24A     -0.484443
      25A     -0.481591    26A     -0.406641    27A     -0.391897

  @DF-RHF Final Energy:  -324.02952585337755

   => Energetics <=

    Nuclear Repulsion Energy =            313.5358445356078505
    One-Electron Energy =               -1061.6187812631740144
    Two-Electron Energy =                 424.0534108741886712
    Total Energy =                       -324.0295258533775495
  Basis Set: (AUG-CC-PVTZ AUX)
    Blend: AUG-CC-PVTZ-RI
    Molecular point group: c1

    Geometry (in Angstrom), charge = 0, multiplicity = 1:

       Center              X                  Y                   Z               Mass
    ------------   -----------------  -----------------  -----------------  -----------------
         O            2.292997760499     0.077405081126     0.028339344948    15.994914619570
         N            0.320127060499    -1.170644518874    -0.056188655052    14.003074004430
         C           -1.824289939501    -0.018631518874    -0.304886655052    12.000000000000
         C           -1.154501939501     1.198337481126     0.323335344948    12.000000000000
         C           -1.118740939501    -1.284441518874     0.156645344948    12.000000000000
         C            0.297067060499     1.285544481126    -0.142985655052    12.000000000000
         C            1.064990060499    -0.018283518874    -0.017104655052    12.000000000000
         H           -2.882891939501    -0.077689518874    -0.029078655052     1.007825032230
         H           -1.771405939501     0.051916481126    -1.397841655052     1.007825032230
         H           -1.189852939501     1.107415481126     1.416621344948     1.007825032230
         H           -1.689292939501     2.118751481126     0.064880344948     1.007825032230
         H           -1.340792939501    -1.460144518874     1.219796344948     1.007825032230
         H           -1.480494939501    -2.154967518874    -0.401023655052     1.007825032230
         H            0.866036060499     2.041850481126     0.404687344948     1.007825032230
         H            0.333001060499     1.570858481126    -1.202369655052     1.007825032230
         H            0.887039060499    -2.003111518874     0.076620344948     1.007825032230

  Basis Set: AUG-CC-PVTZ
    Blend: AUG-CC-PVTZ
  Basis Set: (AUG-CC-PVTZ AUX)
    Blend: AUG-CC-PVTZ-JKFIT
	 Reference Energy          =    -324.0295258533775495 [Eh]
	 Singles Energy            =      -0.0000000000000000 [Eh]
	 Same-Spin Energy          =      -0.3338786134723882 [Eh]
	 Opposite-Spin Energy      =      -1.0914774537867813 [Eh]
	 Correlation Energy        =      -1.4253560672591696 [Eh]
	 Total Energy              =    -325.4548819206366943 [Eh]

	 ================> DF-SCS-MP2 Energies <==================
	-----------------------------------------------------------
	 SCS Same-Spin Scale       =       0.3333333333333333 [-]
	 SCS Opposite-Spin Scale   =       1.2000000000000000 [-]
	 SCS Same-Spin Energy      =      -0.1112928711574627 [Eh]
	 SCS Opposite-Spin Energy  =      -1.3097729445441375 [Eh]
	 SCS Correlation Energy    =      -1.4210658157016003 [Eh]
	 SCS Total Energy          =    -325.4505916690791310 [Eh]
	-----------------------------------------------------------

  Dipole Moment: [D]
     X:    -4.1947      Y:    -0.9372      Z:     0.1807     Total:     4.3019

*** Psi4 exiting successfully. Buy a developer a beer!
