                               Psi4 1.3.2 release

  ==> Input File <==

--------------------------------------------------------------------------
#psi4
#
memory 32 gb

molecule  {
0 1
  O        2.3713340    -0.0431960     0.0348750
  N        0.3955610    -1.1626000    -0.0589710
  C       -1.7488560    -0.0105870    -0.3076690
  C       -1.0790680     1.2063820     0.3205530
  C       -1.0433070    -1.2763970     0.1538630
  C        0.3725010     1.2935890    -0.1457680
  C        1.1003257     0.0149333    -0.0272485
  H       -2.8074580    -0.0696450    -0.0318610
  H       -1.6959720     0.0599610    -1.4006240
  H       -1.1144190     1.1154600     1.4138390
  H       -1.6138590     2.1267960     0.0620980
  H       -1.2653590    -1.4521000     1.2170140
  H       -1.4050610    -2.1469230    -0.4038060
  H        0.9414700     2.0498950     0.4019050
  H        0.4084350     1.5789030    -1.2051520
  H        0.9624730    -1.9950670     0.0738380
units angstrom
no_reorient  #important for SAPT in psi4, default
symmetry c1  #important for SAPT in psi4, default
}

set PROPERTIES_ORIGIN ["COM"]
properties('MP2/aug-cc-pvtz', properties = ['dipole'])
--------------------------------------------------------------------------

    Molecular point group: c1
  Charge       = 0
  Multiplicity = 1
  Basis Set: AUG-CC-PVTZ
    Blend: AUG-CC-PVTZ
  Basis Set: (AUG-CC-PVTZ AUX)
    Blend: AUG-CC-PVTZ-JKFIT

    Orbital Energies [Eh]
    ---------------------

    Doubly Occupied:

       1A    -20.504219     2A    -15.585230     3A    -11.349090
       4A    -11.278603     5A    -11.242632     6A    -11.241947
       7A    -11.240826     8A     -1.343138     9A     -1.228177
      10A     -1.093023    11A     -1.024477    12A     -0.901931
      13A     -0.847250    14A     -0.759432    15A     -0.693088
      16A     -0.652931    17A     -0.635942    18A     -0.615160
      19A     -0.596587    20A     -0.586049    21A     -0.569398
      22A     -0.501843    23A     -0.496632    24A     -0.485606
      25A     -0.482425    26A     -0.411046    27A     -0.382311

  @DF-RHF Final Energy:  -324.02559316622228

   => Energetics <=

    Nuclear Repulsion Energy =            313.5908256135185752
    One-Electron Energy =               -1061.7348476776442112
    Two-Electron Energy =                 424.1184288979034136
    Total Energy =                       -324.0255931662222793
  Basis Set: (AUG-CC-PVTZ AUX)
    Blend: AUG-CC-PVTZ-RI
    Molecular point group: c1

    Geometry (in Angstrom), charge = 0, multiplicity = 1:

       Center              X                  Y                   Z               Mass
    ------------   -----------------  -----------------  -----------------  -----------------
         O            2.300288518354    -0.033519353078     0.037044610657    15.994914619570
         N            0.324515518354    -1.152923353078    -0.056801389343    14.003074004430
         C           -1.819901481646    -0.000910353078    -0.305499389343    12.000000000000
         C           -1.150113481646     1.216058646922     0.322722610657    12.000000000000
         C           -1.114352481646    -1.266720353078     0.156032610657    12.000000000000
         C            0.301455518354     1.303265646922    -0.143598389343    12.000000000000
         C            1.029280218354     0.024609946922    -0.025078889343    12.000000000000
         H           -2.878503481646    -0.059968353078    -0.029691389343     1.007825032230
         H           -1.767017481646     0.069637646922    -1.398454389343     1.007825032230
         H           -1.185464481646     1.125136646922     1.416008610657     1.007825032230
         H           -1.684904481646     2.136472646922     0.064267610657     1.007825032230
         H           -1.336404481646    -1.442423353078     1.219183610657     1.007825032230
         H           -1.476106481646    -2.137246353078    -0.401636389343     1.007825032230
         H            0.870424518354     2.059571646922     0.404074610657     1.007825032230
         H            0.337389518354     1.588579646922    -1.202982389343     1.007825032230
         H            0.891427518354    -1.985390353078     0.076007610657     1.007825032230

  Basis Set: AUG-CC-PVTZ
    Blend: AUG-CC-PVTZ
  Basis Set: (AUG-CC-PVTZ AUX)
    Blend: AUG-CC-PVTZ-JKFIT
	 Reference Energy          =    -324.0255931662222793 [Eh]
	 Singles Energy            =      -0.0000000000000000 [Eh]
	 Same-Spin Energy          =      -0.3349388280010407 [Eh]
	 Opposite-Spin Energy      =      -1.0932873839977262 [Eh]
	 Correlation Energy        =      -1.4282262119987670 [Eh]
	 Total Energy              =    -325.4538193782210556 [Eh]

	 ================> DF-SCS-MP2 Energies <==================
	-----------------------------------------------------------
	 SCS Same-Spin Scale       =       0.3333333333333333 [-]
	 SCS Opposite-Spin Scale   =       1.2000000000000000 [-]
	 SCS Same-Spin Energy      =      -0.1116462760003469 [Eh]
	 SCS Opposite-Spin Energy  =      -1.3119448607972715 [Eh]
	 SCS Correlation Energy    =      -1.4235911367976184 [Eh]
	 SCS Total Energy          =    -325.4491843030198766 [Eh]
	-----------------------------------------------------------

  Dipole Moment: [D]
     X:    -4.4890      Y:    -0.5054      Z:     0.1276     Total:     4.5192

*** Psi4 exiting successfully. Buy a developer a beer!
