                               Psi4 1.4a3.dev225

  ==> Input File <==

--------------------------------------------------------------------------
#psi4
#
memory 32 gb

molecule  {
0 1
  O        2.3713340    -0.0431960     0.0348750
  N        0.3955610    -1.1626000    -0.0589710
  C       -1.7488560    -0.0105870    -0.3076690
  C       -1.0790680     1.2063820     0.3205530
  C       -1.0630315    -1.2779570     0.1567806
  C        0.3725010     1.2935890    -0.1457680
  C        1.1404240    -0.0102390    -0.0198870
  H       -2.8074580    -0.0696450    -0.0318610
  H       -1.6959720     0.0599610    -1.4006240
  H       -1.1144190     1.1154600     1.4138390
  H       -1.6138590     2.1267960     0.0620980
  H       -1.2653590    -1.4521000     1.2170140
  H       -1.4050610    -2.1469230    -0.4038060
  H        0.9414700     2.0498950     0.4019050
  H        0.4084350     1.5789030    -1.2051520
  H        0.9624730    -1.9950670     0.0738380
units angstrom
no_reorient  #important for SAPT in psi4, default
symmetry c1  #important for SAPT in psi4, default
}

set PROPERTIES_ORIGIN ["COM"]
properties('MP2/aug-cc-pvtz', properties = ['dipole'])
--------------------------------------------------------------------------

    Molecular point group: c1
  Charge       = 0
  Multiplicity = 1
  Basis Set: AUG-CC-PVTZ
    Blend: AUG-CC-PVTZ
  Basis Set: (AUG-CC-PVTZ AUX)
    Blend: AUG-CC-PVTZ-JKFIT

    Orbital Energies [Eh]
    ---------------------

    Doubly Occupied:

       1A    -20.509146     2A    -15.580691     3A    -11.345167
       4A    -11.278741     5A    -11.240494     6A    -11.239863
       7A    -11.238174     8A     -1.364270     9A     -1.227344
      10A     -1.088267    11A     -1.019802    12A     -0.897348
      13A     -0.842628    14A     -0.754074    15A     -0.690580
      16A     -0.650799    17A     -0.638471    18A     -0.613790
      19A     -0.593517    20A     -0.587406    21A     -0.570916
      22A     -0.505180    23A     -0.497162    24A     -0.487462
      25A     -0.485176    26A     -0.410231    27A     -0.386859

  @DF-RHF Final Energy:  -324.03228113525472

   => Energetics <=

    Nuclear Repulsion Energy =            313.2832247449368310
    One-Electron Energy =               -1061.1438935502558252
    Two-Electron Energy =                 423.8283876700642168
    Total Energy =                       -324.0322811352547205
  Basis Set: (AUG-CC-PVTZ AUX)
    Blend: AUG-CC-PVTZ-RI
    Molecular point group: c1

    Geometry (in Angstrom), charge = 0, multiplicity = 1:

       Center              X                  Y                   Z               Mass
    ------------   -----------------  -----------------  -----------------  -----------------
         O            2.297820672243    -0.030281311937     0.035799519561    15.994914619570
         N            0.322047672243    -1.149685311937    -0.058046480439    14.003074004430
         C           -1.822369327757     0.002327688063    -0.306744480439    12.000000000000
         C           -1.152581327757     1.219296688063     0.321477519561    12.000000000000
         C           -1.136544827757    -1.265042311937     0.157705119561    12.000000000000
         C            0.298987672243     1.306503688063    -0.144843480439    12.000000000000
         C            1.066910672243     0.002675688063    -0.018962480439    12.000000000000
         H           -2.880971327757    -0.056730311937    -0.030936480439     1.007825032230
         H           -1.769485327757     0.072875688063    -1.399699480439     1.007825032230
         H           -1.187932327757     1.128374688063     1.414763519561     1.007825032230
         H           -1.687372327757     2.139710688063     0.063022519561     1.007825032230
         H           -1.338872327757    -1.439185311937     1.217938519561     1.007825032230
         H           -1.478574327757    -2.134008311937    -0.402881480439     1.007825032230
         H            0.867956672243     2.062809688063     0.402829519561     1.007825032230
         H            0.334921672243     1.591817688063    -1.204227480439     1.007825032230
         H            0.888959672243    -1.982152311937     0.074762519561     1.007825032230

  Basis Set: AUG-CC-PVTZ
    Blend: AUG-CC-PVTZ
  Basis Set: (AUG-CC-PVTZ AUX)
    Blend: AUG-CC-PVTZ-JKFIT
	 Reference Energy          =    -324.0322811352547205 [Eh]
	 Singles Energy            =      -0.0000000000000000 [Eh]
	 Same-Spin Energy          =      -0.3337381884215224 [Eh]
	 Opposite-Spin Energy      =      -1.0912104894517154 [Eh]
	 Correlation Energy        =      -1.4249486778732376 [Eh]
	 Total Energy              =    -325.4572298131279808 [Eh]

	 ================> DF-SCS-MP2 Energies <==================
	-----------------------------------------------------------
	 SCS Same-Spin Scale       =       0.3333333333333333 [-]
	 SCS Opposite-Spin Scale   =       1.2000000000000000 [-]
	 SCS Same-Spin Energy      =      -0.1112460628071741 [Eh]
	 SCS Opposite-Spin Energy  =      -1.3094525873420584 [Eh]
	 SCS Correlation Energy    =      -1.4206986501492325 [Eh]
	 SCS Total Energy          =    -325.4529797854039543 [Eh]
	-----------------------------------------------------------

  Dipole Moment: [D]
     X:    -4.2947      Y:    -0.5923      Z:     0.1715     Total:     4.3388

*** Psi4 exiting successfully. Buy a developer a beer!
