                               Psi4 1.3.2 release

  ==> Input File <==

--------------------------------------------------------------------------
#psi4
#
memory 32 gb

molecule  {
0 1
  O        2.3713340    -0.0431960     0.0348750
  N        0.3955610    -1.1626000    -0.0589710
  C       -1.7488560    -0.0105870    -0.3076690
  C       -1.0790680     1.2063820     0.3205530
  C       -1.0433070    -1.2763970     0.1538630
  C        0.3725010     1.2935890    -0.1457680
  C        1.1404240    -0.0102390    -0.0198870
  H       -2.8074580    -0.0696450    -0.0318610
  H       -1.6959720     0.0599610    -1.4006240
  H       -1.1144190     1.1154600     1.4138390
  H       -1.6138590     2.1267960     0.0620980
  H       -1.2653590    -1.4521000     1.2170140
  H       -1.4050610    -2.1469230    -0.4038060
  H        0.9414700     2.0498950     0.4019050
  H        0.4084350     1.5789030    -1.2051520
  H        1.0182776    -2.0770117     0.0869112
units angstrom
no_reorient  #important for SAPT in psi4, default
symmetry c1  #important for SAPT in psi4, default
}

set PROPERTIES_ORIGIN ["COM"]
properties('MP2/aug-cc-pvtz', properties = ['dipole'])
--------------------------------------------------------------------------

    Molecular point group: c1
  Charge       = 0
  Multiplicity = 1
  Basis Set: AUG-CC-PVTZ
    Blend: AUG-CC-PVTZ
  Basis Set: (AUG-CC-PVTZ AUX)
    Blend: AUG-CC-PVTZ-JKFIT

    Orbital Energies [Eh]
    ---------------------

    Doubly Occupied:

       1A    -20.509133     2A    -15.589758     3A    -11.345659
       4A    -11.278002     5A    -11.240216     6A    -11.239527
       7A    -11.238666     8A     -1.363543     9A     -1.224245
      10A     -1.084744    11A     -1.018209    12A     -0.894027
      13A     -0.840793    14A     -0.741865    15A     -0.687804
      16A     -0.647974    17A     -0.638102    18A     -0.612355
      19A     -0.591454    20A     -0.585105    21A     -0.569578
      22A     -0.503861    23A     -0.495026    24A     -0.487091
      25A     -0.482477    26A     -0.410360    27A     -0.384918

  @DF-RHF Final Energy:  -324.02218888660042

   => Energetics <=

    Nuclear Repulsion Energy =            312.9560030523550154
    One-Electron Energy =               -1060.5473970680639013
    Two-Electron Energy =                 423.5692051291084113
    Total Energy =                       -324.0221888866004178
  Basis Set: (AUG-CC-PVTZ AUX)
    Blend: AUG-CC-PVTZ-RI
    Molecular point group: c1

    Geometry (in Angstrom), charge = 0, multiplicity = 1:

       Center              X                  Y                   Z               Mass
    ------------   -----------------  -----------------  -----------------  -----------------
         O            2.294863773458    -0.029636647130     0.036019929891    15.994914619570
         N            0.319090773458    -1.149040647130    -0.057826070109    14.003074004430
         C           -1.825326226542     0.002972352870    -0.306524070109    12.000000000000
         C           -1.155538226542     1.219941352870     0.321697929891    12.000000000000
         C           -1.119777226542    -1.262837647130     0.155007929891    12.000000000000
         C            0.296030773458     1.307148352870    -0.144623070109    12.000000000000
         C            1.063953773458     0.003320352870    -0.018742070109    12.000000000000
         H           -2.883928226542    -0.056085647130    -0.030716070109     1.007825032230
         H           -1.772442226542     0.073520352870    -1.399479070109     1.007825032230
         H           -1.190889226542     1.129019352870     1.414983929891     1.007825032230
         H           -1.690329226542     2.140355352870     0.063242929891     1.007825032230
         H           -1.341829226542    -1.438540647130     1.218158929891     1.007825032230
         H           -1.481531226542    -2.133363647130    -0.402661070109     1.007825032230
         H            0.864999773458     2.063454352870     0.403049929891     1.007825032230
         H            0.331964773458     1.592462352870    -1.204007070109     1.007825032230
         H            0.941807373458    -2.063452347130     0.088056129891     1.007825032230

  Basis Set: AUG-CC-PVTZ
    Blend: AUG-CC-PVTZ
  Basis Set: (AUG-CC-PVTZ AUX)
    Blend: AUG-CC-PVTZ-JKFIT
	 Reference Energy          =    -324.0221888866004178 [Eh]
	 Singles Energy            =      -0.0000000000000000 [Eh]
	 Same-Spin Energy          =      -0.3345826581471443 [Eh]
	 Opposite-Spin Energy      =      -1.0931462875503986 [Eh]
	 Correlation Energy        =      -1.4277289456975428 [Eh]
	 Total Energy              =    -325.4499178322979560 [Eh]

	 ================> DF-SCS-MP2 Energies <==================
	-----------------------------------------------------------
	 SCS Same-Spin Scale       =       0.3333333333333333 [-]
	 SCS Opposite-Spin Scale   =       1.2000000000000000 [-]
	 SCS Same-Spin Energy      =      -0.1115275527157148 [Eh]
	 SCS Opposite-Spin Energy  =      -1.3117755450604782 [Eh]
	 SCS Correlation Energy    =      -1.4233030977761929 [Eh]
	 SCS Total Energy          =    -325.4454919843765879 [Eh]
	-----------------------------------------------------------

  Dipole Moment: [D]
     X:    -4.2056      Y:    -0.6414      Z:     0.1673     Total:     4.2575

*** Psi4 exiting successfully. Buy a developer a beer!
