                               Psi4 1.3.2 release

  ==> Input File <==

--------------------------------------------------------------------------
#psi4
#
memory 32 gb

molecule  {
0 1
  O        2.3713340    -0.0431960     0.0348750
  N        0.3955610    -1.1626000    -0.0589710
  C       -1.7488560    -0.0105870    -0.3076690
  C       -1.0790680     1.2063820     0.3205530
  C       -1.0433070    -1.2763970     0.1538630
  C        0.3725010     1.2935890    -0.1457680
  C        1.1204853     0.0025246    -0.0235624
  H       -2.8074580    -0.0696450    -0.0318610
  H       -1.6959720     0.0599610    -1.4006240
  H       -1.1144190     1.1154600     1.4138390
  H       -1.6138590     2.1267960     0.0620980
  H       -1.2653590    -1.4521000     1.2170140
  H       -1.4050610    -2.1469230    -0.4038060
  H        0.9414700     2.0498950     0.4019050
  H        0.4084350     1.5789030    -1.2051520
  H        0.9624730    -1.9950670     0.0738380
units angstrom
no_reorient  #important for SAPT in psi4, default
symmetry c1  #important for SAPT in psi4, default
}

set PROPERTIES_ORIGIN ["COM"]
properties('MP2/aug-cc-pvtz', properties = ['dipole'])
--------------------------------------------------------------------------

    Molecular point group: c1
  Charge       = 0
  Multiplicity = 1
  Basis Set: AUG-CC-PVTZ
    Blend: AUG-CC-PVTZ
  Basis Set: (AUG-CC-PVTZ AUX)
    Blend: AUG-CC-PVTZ-JKFIT

    Orbital Energies [Eh]
    ---------------------

    Doubly Occupied:

       1A    -20.507201     2A    -15.583372     3A    -11.347595
       4A    -11.278437     5A    -11.241469     6A    -11.240863
       7A    -11.239756     8A     -1.353840     9A     -1.230253
      10A     -1.090509    11A     -1.021586    12A     -0.899443
      13A     -0.845531    14A     -0.757097    15A     -0.692968
      16A     -0.651839    17A     -0.637038    18A     -0.613838
      19A     -0.594990    20A     -0.587595    21A     -0.570526
      22A     -0.503106    23A     -0.496569    24A     -0.485720
      25A     -0.484457    26A     -0.411460    27A     -0.384617

  @DF-RHF Final Energy:  -324.02997719533653

   => Energetics <=

    Nuclear Repulsion Energy =            313.5497798843857140
    One-Electron Energy =               -1061.6561629706552594
    Two-Electron Energy =                 424.0764058909329606
    Total Energy =                       -324.0299771953365280
  Basis Set: (AUG-CC-PVTZ AUX)
    Blend: AUG-CC-PVTZ-RI
    Molecular point group: c1

    Geometry (in Angstrom), charge = 0, multiplicity = 1:

       Center              X                  Y                   Z               Mass
    ------------   -----------------  -----------------  -----------------  -----------------
         O            2.297846617950    -0.032016306909     0.036598119205    15.994914619570
         N            0.322073617950    -1.151420306909    -0.057247880795    14.003074004430
         C           -1.822343382050     0.000592693091    -0.305945880795    12.000000000000
         C           -1.152555382050     1.217561693091     0.322276119205    12.000000000000
         C           -1.116794382050    -1.265217306909     0.155586119205    12.000000000000
         C            0.299013617950     1.304768693091    -0.144044880795    12.000000000000
         C            1.046997917950     0.013704293091    -0.021839280795    12.000000000000
         H           -2.880945382050    -0.058465306909    -0.030137880795     1.007825032230
         H           -1.769459382050     0.071140693091    -1.398900880795     1.007825032230
         H           -1.187906382050     1.126639693091     1.415562119205     1.007825032230
         H           -1.687346382050     2.137975693091     0.063821119205     1.007825032230
         H           -1.338846382050    -1.440920306909     1.218737119205     1.007825032230
         H           -1.478548382050    -2.135743306909    -0.402082880795     1.007825032230
         H            0.867982617950     2.061074693091     0.403628119205     1.007825032230
         H            0.334947617950     1.590082693091    -1.203428880795     1.007825032230
         H            0.888985617950    -1.983887306909     0.075561119205     1.007825032230

  Basis Set: AUG-CC-PVTZ
    Blend: AUG-CC-PVTZ
  Basis Set: (AUG-CC-PVTZ AUX)
    Blend: AUG-CC-PVTZ-JKFIT
	 Reference Energy          =    -324.0299771953365280 [Eh]
	 Singles Energy            =      -0.0000000000000000 [Eh]
	 Same-Spin Energy          =      -0.3343328173061514 [Eh]
	 Opposite-Spin Energy      =      -1.0921776376879886 [Eh]
	 Correlation Energy        =      -1.4265104549941401 [Eh]
	 Total Energy              =    -325.4564876503306436 [Eh]

	 ================> DF-SCS-MP2 Energies <==================
	-----------------------------------------------------------
	 SCS Same-Spin Scale       =       0.3333333333333333 [-]
	 SCS Opposite-Spin Scale   =       1.2000000000000000 [-]
	 SCS Same-Spin Energy      =      -0.1114442724353838 [Eh]
	 SCS Opposite-Spin Energy  =      -1.3106131652255864 [Eh]
	 SCS Correlation Energy    =      -1.4220574376609703 [Eh]
	 SCS Total Energy          =    -325.4520346329974814 [Eh]
	-----------------------------------------------------------

  Dipole Moment: [D]
     X:    -4.3633      Y:    -0.5402      Z:     0.1428     Total:     4.3989

*** Psi4 exiting successfully. Buy a developer a beer!
