                               Psi4 1.3.2 release

  ==> Input File <==

--------------------------------------------------------------------------
#psi4
#
memory 32 gb

molecule  {
0 1
  O        2.3713340    -0.0431960     0.0348750
  N        0.3955610    -1.1626000    -0.0589710
  C       -1.7488560    -0.0105870    -0.3076690
  C       -1.0742907     1.2257070     0.3382760
  C       -1.0433070    -1.2763970     0.1538630
  C        0.3725010     1.2935890    -0.1457680
  C        1.1404240    -0.0102390    -0.0198870
  H       -2.8074580    -0.0696450    -0.0318610
  H       -1.6959720     0.0599610    -1.4006240
  H       -1.1144190     1.1154600     1.4138390
  H       -1.6138590     2.1267960     0.0620980
  H       -1.2653590    -1.4521000     1.2170140
  H       -1.4050610    -2.1469230    -0.4038060
  H        0.9414700     2.0498950     0.4019050
  H        0.4084350     1.5789030    -1.2051520
  H        0.9624730    -1.9950670     0.0738380
units angstrom
no_reorient  #important for SAPT in psi4, default
symmetry c1  #important for SAPT in psi4, default
}

set PROPERTIES_ORIGIN ["COM"]
properties('MP2/aug-cc-pvtz', properties = ['dipole'])
--------------------------------------------------------------------------

    Molecular point group: c1
  Charge       = 0
  Multiplicity = 1
  Basis Set: AUG-CC-PVTZ
    Blend: AUG-CC-PVTZ
  Basis Set: (AUG-CC-PVTZ AUX)
    Blend: AUG-CC-PVTZ-JKFIT

    Orbital Energies [Eh]
    ---------------------

    Doubly Occupied:

       1A    -20.510241     2A    -15.581492     3A    -11.346267
       4A    -11.278155     5A    -11.240903     6A    -11.239037
       7A    -11.238304     8A     -1.365509     9A     -1.231357
      10A     -1.085591    11A     -1.018082    12A     -0.895983
      13A     -0.845137    14A     -0.755055    15A     -0.692160
      16A     -0.650782    17A     -0.639235    18A     -0.612895
      19A     -0.593122    20A     -0.589333    21A     -0.570413
      22A     -0.505044    23A     -0.500320    24A     -0.490369
      25A     -0.476996    26A     -0.411421    27A     -0.386582

  @DF-RHF Final Energy:  -324.03219747403261

   => Energetics <=

    Nuclear Repulsion Energy =            313.2113592145827283
    One-Electron Energy =               -1060.9875408459374739
    Two-Electron Energy =                 423.7439841573221884
    Total Energy =                       -324.0321974740326141
  Basis Set: (AUG-CC-PVTZ AUX)
    Blend: AUG-CC-PVTZ-RI
    Molecular point group: c1

    Geometry (in Angstrom), charge = 0, multiplicity = 1:

       Center              X                  Y                   Z               Mass
    ------------   -----------------  -----------------  -----------------  -----------------
         O            2.294852808033    -0.032811078894     0.034006164919    15.994914619570
         N            0.319079808033    -1.152215078894    -0.059839835081    14.003074004430
         C           -1.825337191967    -0.000202078894    -0.308537835081    12.000000000000
         C           -1.150771891967     1.236091921106     0.337407164919    12.000000000000
         C           -1.119788191967    -1.266012078894     0.152994164919    12.000000000000
         C            0.296019808033     1.303973921106    -0.146636835081    12.000000000000
         C            1.063942808033     0.000145921106    -0.020755835081    12.000000000000
         H           -2.883939191967    -0.059260078894    -0.032729835081     1.007825032230
         H           -1.772453191967     0.070345921106    -1.401492835081     1.007825032230
         H           -1.190900191967     1.125844921106     1.412970164919     1.007825032230
         H           -1.690340191967     2.137180921106     0.061229164919     1.007825032230
         H           -1.341840191967    -1.441715078894     1.216145164919     1.007825032230
         H           -1.481542191967    -2.136538078894    -0.404674835081     1.007825032230
         H            0.864988808033     2.060279921106     0.401036164919     1.007825032230
         H            0.331953808033     1.589287921106    -1.206020835081     1.007825032230
         H            0.885991808033    -1.984682078894     0.072969164919     1.007825032230

  Basis Set: AUG-CC-PVTZ
    Blend: AUG-CC-PVTZ
  Basis Set: (AUG-CC-PVTZ AUX)
    Blend: AUG-CC-PVTZ-JKFIT
	 Reference Energy          =    -324.0321974740326141 [Eh]
	 Singles Energy            =      -0.0000000000000000 [Eh]
	 Same-Spin Energy          =      -0.3336496253375562 [Eh]
	 Opposite-Spin Energy      =      -1.0910837821907948 [Eh]
	 Correlation Energy        =      -1.4247334075283511 [Eh]
	 Total Energy              =    -325.4569308815609929 [Eh]

	 ================> DF-SCS-MP2 Energies <==================
	-----------------------------------------------------------
	 SCS Same-Spin Scale       =       0.3333333333333333 [-]
	 SCS Opposite-Spin Scale   =       1.2000000000000000 [-]
	 SCS Same-Spin Energy      =      -0.1112165417791854 [Eh]
	 SCS Opposite-Spin Energy  =      -1.3093005386289538 [Eh]
	 SCS Correlation Energy    =      -1.4205170804081393 [Eh]
	 SCS Total Energy          =    -325.4527145544407745 [Eh]
	-----------------------------------------------------------

  Dipole Moment: [D]
     X:    -4.2336      Y:    -0.5744      Z:     0.1672     Total:     4.2757

*** Psi4 exiting successfully. Buy a developer a beer!
