                               Psi4 1.3.2 release

  ==> Input File <==

--------------------------------------------------------------------------
#psi4
#
memory 32 gb

molecule  {
0 1
  O        2.3713340    -0.0431960     0.0348750
  N        0.3955610    -1.1626000    -0.0589710
  C       -1.7488560    -0.0105870    -0.3076690
  C       -1.0616022     1.1037764     0.3435500
  C       -1.0433070    -1.2763970     0.1538630
  C        0.3725010     1.2935890    -0.1457680
  C        1.1404240    -0.0102390    -0.0198870
  H       -2.8074580    -0.0696450    -0.0318610
  H       -1.6959720     0.0599610    -1.4006240
  H       -1.1144190     1.1154600     1.4138390
  H       -1.6138590     2.1267960     0.0620980
  H       -1.2653590    -1.4521000     1.2170140
  H       -1.4050610    -2.1469230    -0.4038060
  H        0.9414700     2.0498950     0.4019050
  H        0.4084350     1.5789030    -1.2051520
  H        0.9624730    -1.9950670     0.0738380
units angstrom
no_reorient  #important for SAPT in psi4, default
symmetry c1  #important for SAPT in psi4, default
}

set PROPERTIES_ORIGIN ["COM"]
properties('MP2/aug-cc-pvtz', properties = ['dipole'])
--------------------------------------------------------------------------

    Molecular point group: c1
  Charge       = 0
  Multiplicity = 1
  Basis Set: AUG-CC-PVTZ
    Blend: AUG-CC-PVTZ
  Basis Set: (AUG-CC-PVTZ AUX)
    Blend: AUG-CC-PVTZ-JKFIT

    Orbital Energies [Eh]
    ---------------------

    Doubly Occupied:

       1A    -20.509240     2A    -15.582043     3A    -11.344214
       4A    -11.277624     5A    -11.243276     6A    -11.239803
       7A    -11.238616     8A     -1.365058     9A     -1.233888
      10A     -1.096766    11A     -1.021003    12A     -0.898548
      13A     -0.839408    14A     -0.759136    15A     -0.696764
      16A     -0.648707    17A     -0.636378    18A     -0.618318
      19A     -0.594302    20A     -0.584933    21A     -0.573709
      22A     -0.510763    23A     -0.500913    24A     -0.490942
      25A     -0.473777    26A     -0.403877    27A     -0.387121

  @DF-RHF Final Energy:  -324.02013029595673

   => Energetics <=

    Nuclear Repulsion Energy =            314.8421645048755977
    One-Electron Energy =               -1064.1863337141130614
    Two-Electron Energy =                 425.3240389132806740
    Total Energy =                       -324.0201302959567329
  Basis Set: (AUG-CC-PVTZ AUX)
    Blend: AUG-CC-PVTZ-RI
    Molecular point group: c1

    Geometry (in Angstrom), charge = 0, multiplicity = 1:

       Center              X                  Y                   Z               Mass
    ------------   -----------------  -----------------  -----------------  -----------------
         O            2.293315870134    -0.018041818519     0.033367333656    15.994914619570
         N            0.317542870134    -1.137445818519    -0.060478666344    14.003074004430
         C           -1.826874129866     0.014567181481    -0.309176666344    12.000000000000
         C           -1.139620329866     1.128930581481     0.342042333656    12.000000000000
         C           -1.121325129866    -1.251242818519     0.152355333656    12.000000000000
         C            0.294482870134     1.318743181481    -0.147275666344    12.000000000000
         C            1.062405870134     0.014915181481    -0.021394666344    12.000000000000
         H           -2.885476129866    -0.044490818519    -0.033368666344     1.007825032230
         H           -1.773990129866     0.085115181481    -1.402131666344     1.007825032230
         H           -1.192437129866     1.140614181481     1.412331333656     1.007825032230
         H           -1.691877129866     2.151950181481     0.060590333656     1.007825032230
         H           -1.343377129866    -1.426945818519     1.215506333656     1.007825032230
         H           -1.483079129866    -2.121768818519    -0.405313666344     1.007825032230
         H            0.863451870134     2.075049181481     0.400397333656     1.007825032230
         H            0.330416870134     1.604057181481    -1.206659666344     1.007825032230
         H            0.884454870134    -1.969912818519     0.072330333656     1.007825032230

  Basis Set: AUG-CC-PVTZ
    Blend: AUG-CC-PVTZ
  Basis Set: (AUG-CC-PVTZ AUX)
    Blend: AUG-CC-PVTZ-JKFIT
	 Reference Energy          =    -324.0201302959567329 [Eh]
	 Singles Energy            =      -0.0000000000000000 [Eh]
	 Same-Spin Energy          =      -0.3345526687556245 [Eh]
	 Opposite-Spin Energy      =      -1.0922323330057901 [Eh]
	 Correlation Energy        =      -1.4267850017614148 [Eh]
	 Total Energy              =    -325.4469152977181352 [Eh]

	 ================> DF-SCS-MP2 Energies <==================
	-----------------------------------------------------------
	 SCS Same-Spin Scale       =       0.3333333333333333 [-]
	 SCS Opposite-Spin Scale   =       1.2000000000000000 [-]
	 SCS Same-Spin Energy      =      -0.1115175562518748 [Eh]
	 SCS Opposite-Spin Energy  =      -1.3106787996069482 [Eh]
	 SCS Correlation Energy    =      -1.4221963558588231 [Eh]
	 SCS Total Energy          =    -325.4423266518155629 [Eh]
	-----------------------------------------------------------

  Dipole Moment: [D]
     X:    -4.2094      Y:    -0.6300      Z:     0.1665     Total:     4.2596

*** Psi4 exiting successfully. Buy a developer a beer!
