                               Psi4 1.3.2 release

  ==> Input File <==

--------------------------------------------------------------------------
#psi4
#
memory 32 gb

molecule  {
0 1
  O        2.3713340    -0.0431960     0.0348750
  N        0.3955610    -1.1626000    -0.0589710
  C       -1.7488560    -0.0105870    -0.3076690
  C       -1.0790680     1.2063820     0.3205530
  C       -1.0453253    -1.2260235     0.1610596
  C        0.3725010     1.2935890    -0.1457680
  C        1.1404240    -0.0102390    -0.0198870
  H       -2.8074580    -0.0696450    -0.0318610
  H       -1.6959720     0.0599610    -1.4006240
  H       -1.1144190     1.1154600     1.4138390
  H       -1.6138590     2.1267960     0.0620980
  H       -1.2653590    -1.4521000     1.2170140
  H       -1.4050610    -2.1469230    -0.4038060
  H        0.9414700     2.0498950     0.4019050
  H        0.4084350     1.5789030    -1.2051520
  H        0.9624730    -1.9950670     0.0738380
units angstrom
no_reorient  #important for SAPT in psi4, default
symmetry c1  #important for SAPT in psi4, default
}

set PROPERTIES_ORIGIN ["COM"]
properties('MP2/aug-cc-pvtz', properties = ['dipole'])
--------------------------------------------------------------------------

    Molecular point group: c1
  Charge       = 0
  Multiplicity = 1
  Basis Set: AUG-CC-PVTZ
    Blend: AUG-CC-PVTZ
  Basis Set: (AUG-CC-PVTZ AUX)
    Blend: AUG-CC-PVTZ-JKFIT

    Orbital Energies [Eh]
    ---------------------

    Doubly Occupied:

       1A    -20.509971     2A    -15.582072     3A    -11.345244
       4A    -11.280151     5A    -11.239985     6A    -11.238954
       7A    -11.238746     8A     -1.365544     9A     -1.233515
      10A     -1.091871    11A     -1.021628    12A     -0.894985
      13A     -0.843951    14A     -0.756576    15A     -0.695500
      16A     -0.646454    17A     -0.637595    18A     -0.612784
      19A     -0.598238    20A     -0.589034    21A     -0.570530
      22A     -0.504415    23A     -0.502028    24A     -0.487800
      25A     -0.480847    26A     -0.410647    27A     -0.385427

  @DF-RHF Final Energy:  -324.02932538774297

   => Energetics <=

    Nuclear Repulsion Energy =            314.1743284095928175
    One-Electron Energy =               -1062.8783227642804832
    Two-Electron Energy =                 424.6746689669446937
    Total Energy =                       -324.0293253877429720
  Basis Set: (AUG-CC-PVTZ AUX)
    Blend: AUG-CC-PVTZ-RI
    Molecular point group: c1

    Geometry (in Angstrom), charge = 0, multiplicity = 1:

       Center              X                  Y                   Z               Mass
    ------------   -----------------  -----------------  -----------------  -----------------
         O            2.295675948294    -0.036571934501     0.035281211072    15.994914619570
         N            0.319902948294    -1.155975934501    -0.058564788928    14.003074004430
         C           -1.824514051706    -0.003962934501    -0.307262788928    12.000000000000
         C           -1.154726051706     1.213006065499     0.320959211072    12.000000000000
         C           -1.120983351706    -1.219399434501     0.161465811072    12.000000000000
         C            0.296842948294     1.300213065499    -0.145361788928    12.000000000000
         C            1.064765948294    -0.003614934501    -0.019480788928    12.000000000000
         H           -2.883116051706    -0.063020934501    -0.031454788928     1.007825032230
         H           -1.771630051706     0.066585065499    -1.400217788928     1.007825032230
         H           -1.190077051706     1.122084065499     1.414245211072     1.007825032230
         H           -1.689517051706     2.133420065499     0.062504211072     1.007825032230
         H           -1.341017051706    -1.445475934501     1.217420211072     1.007825032230
         H           -1.480719051706    -2.140298934501    -0.403399788928     1.007825032230
         H            0.865811948294     2.056519065499     0.402311211072     1.007825032230
         H            0.332776948294     1.585527065499    -1.204745788928     1.007825032230
         H            0.886814948294    -1.988442934501     0.074244211072     1.007825032230

  Basis Set: AUG-CC-PVTZ
    Blend: AUG-CC-PVTZ
  Basis Set: (AUG-CC-PVTZ AUX)
    Blend: AUG-CC-PVTZ-JKFIT
	 Reference Energy          =    -324.0293253877429720 [Eh]
	 Singles Energy            =      -0.0000000000000000 [Eh]
	 Same-Spin Energy          =      -0.3341581506850924 [Eh]
	 Opposite-Spin Energy      =      -1.0915728128939788 [Eh]
	 Correlation Energy        =      -1.4257309635790711 [Eh]
	 Total Energy              =    -325.4550563513220709 [Eh]

	 ================> DF-SCS-MP2 Energies <==================
	-----------------------------------------------------------
	 SCS Same-Spin Scale       =       0.3333333333333333 [-]
	 SCS Opposite-Spin Scale   =       1.2000000000000000 [-]
	 SCS Same-Spin Energy      =      -0.1113860502283641 [Eh]
	 SCS Opposite-Spin Energy  =      -1.3098873754727745 [Eh]
	 SCS Correlation Energy    =      -1.4212734257011386 [Eh]
	 SCS Total Energy          =    -325.4505988134441168 [Eh]
	-----------------------------------------------------------

  Dipole Moment: [D]
     X:    -4.2322      Y:    -0.5340      Z:     0.1695     Total:     4.2692

*** Psi4 exiting successfully. Buy a developer a beer!
