                               Psi4 1.3.2 release

  ==> Input File <==

--------------------------------------------------------------------------
#psi4
#
memory 32 gb

molecule  {
0 1
  O        2.3713340    -0.0431960     0.0348750
  N        0.3955610    -1.1626000    -0.0589710
  C       -1.7488560    -0.0105870    -0.3076690
  C       -1.0790680     1.2063820     0.3205530
  C       -1.0340160    -1.3766669     0.1387010
  C        0.3725010     1.2935890    -0.1457680
  C        1.1404240    -0.0102390    -0.0198870
  H       -2.8074580    -0.0696450    -0.0318610
  H       -1.6959720     0.0599610    -1.4006240
  H       -1.1144190     1.1154600     1.4138390
  H       -1.6138590     2.1267960     0.0620980
  H       -1.2653590    -1.4521000     1.2170140
  H       -1.4050610    -2.1469230    -0.4038060
  H        0.9414700     2.0498950     0.4019050
  H        0.4084350     1.5789030    -1.2051520
  H        0.9624730    -1.9950670     0.0738380
units angstrom
no_reorient  #important for SAPT in psi4, default
symmetry c1  #important for SAPT in psi4, default
}

set PROPERTIES_ORIGIN ["COM"]
properties('MP2/aug-cc-pvtz', properties = ['dipole'])
--------------------------------------------------------------------------

    Molecular point group: c1
  Charge       = 0
  Multiplicity = 1
  Basis Set: AUG-CC-PVTZ
    Blend: AUG-CC-PVTZ
  Basis Set: (AUG-CC-PVTZ AUX)
    Blend: AUG-CC-PVTZ-JKFIT

    Orbital Energies [Eh]
    ---------------------

    Doubly Occupied:

       1A    -20.510817     2A    -15.581635     3A    -11.348268
       4A    -11.276659     5A    -11.242922     6A    -11.240120
       7A    -11.238093     8A     -1.365780     9A     -1.229443
      10A     -1.083272    11A     -1.013633    12A     -0.902188
      13A     -0.842694    14A     -0.752113    15A     -0.691364
      16A     -0.664029    17A     -0.640466    18A     -0.613584
      19A     -0.591293    20A     -0.588999    21A     -0.567253
      22A     -0.509463    23A     -0.490710    24A     -0.487084
      25A     -0.474733    26A     -0.411540    27A     -0.387517

  @DF-RHF Final Energy:  -324.02154093398173

   => Energetics <=

    Nuclear Repulsion Energy =            312.2844048448214949
    One-Electron Energy =               -1059.1205460303608561
    Two-Electron Energy =                 422.8146002515576924
    Total Energy =                       -324.0215409339817256
  Basis Set: (AUG-CC-PVTZ AUX)
    Blend: AUG-CC-PVTZ-RI
    Molecular point group: c1

    Geometry (in Angstrom), charge = 0, multiplicity = 1:

       Center              X                  Y                   Z               Mass
    ------------   -----------------  -----------------  -----------------  -----------------
         O            2.294306070705    -0.018324738159     0.037989472862    15.994914619570
         N            0.318533070705    -1.137728738159    -0.055856527138    14.003074004430
         C           -1.825883929295     0.014284261841    -0.304554527138    12.000000000000
         C           -1.156095929295     1.231253261841     0.323667472862    12.000000000000
         C           -1.111043929295    -1.351795638159     0.141815472862    12.000000000000
         C            0.295473070705     1.318460261841    -0.142653527138    12.000000000000
         C            1.063396070705     0.014632261841    -0.016772527138    12.000000000000
         H           -2.884485929295    -0.044773738159    -0.028746527138     1.007825032230
         H           -1.772999929295     0.084832261841    -1.397509527138     1.007825032230
         H           -1.191446929295     1.140331261841     1.416953472862     1.007825032230
         H           -1.690886929295     2.151667261841     0.065212472862     1.007825032230
         H           -1.342386929295    -1.427228738159     1.220128472862     1.007825032230
         H           -1.482088929295    -2.122051738159    -0.400691527138     1.007825032230
         H            0.864442070705     2.074766261841     0.405019472862     1.007825032230
         H            0.331407070705     1.603774261841    -1.202037527138     1.007825032230
         H            0.885445070705    -1.970195738159     0.076952472862     1.007825032230

  Basis Set: AUG-CC-PVTZ
    Blend: AUG-CC-PVTZ
  Basis Set: (AUG-CC-PVTZ AUX)
    Blend: AUG-CC-PVTZ-JKFIT
	 Reference Energy          =    -324.0215409339817256 [Eh]
	 Singles Energy            =      -0.0000000000000000 [Eh]
	 Same-Spin Energy          =      -0.3335931457583703 [Eh]
	 Opposite-Spin Energy      =      -1.0915446321113973 [Eh]
	 Correlation Energy        =      -1.4251377778697676 [Eh]
	 Total Energy              =    -325.4466787118515185 [Eh]

	 ================> DF-SCS-MP2 Energies <==================
	-----------------------------------------------------------
	 SCS Same-Spin Scale       =       0.3333333333333333 [-]
	 SCS Opposite-Spin Scale   =       1.2000000000000000 [-]
	 SCS Same-Spin Energy      =      -0.1111977152527901 [Eh]
	 SCS Opposite-Spin Energy  =      -1.3098535585336768 [Eh]
	 SCS Correlation Energy    =      -1.4210512737864669 [Eh]
	 SCS Total Energy          =    -325.4425922077682003 [Eh]
	-----------------------------------------------------------

  Dipole Moment: [D]
     X:    -4.2194      Y:    -0.6299      Z:     0.1350     Total:     4.2683

*** Psi4 exiting successfully. Buy a developer a beer!
