                               Psi4 1.3.2 release

  ==> Input File <==

--------------------------------------------------------------------------
#psi4
#
memory 32 gb

molecule  {
0 1
  O        2.3657724    -0.1288461     0.0407597
  N        0.3955610    -1.1626000    -0.0589710
  C       -1.7488560    -0.0105870    -0.3076690
  C       -1.0790680     1.2063820     0.3205530
  C       -1.0433070    -1.2763970     0.1538630
  C        0.3725010     1.2935890    -0.1457680
  C        1.1404240    -0.0102390    -0.0198870
  H       -2.8074580    -0.0696450    -0.0318610
  H       -1.6959720     0.0599610    -1.4006240
  H       -1.1144190     1.1154600     1.4138390
  H       -1.6138590     2.1267960     0.0620980
  H       -1.2653590    -1.4521000     1.2170140
  H       -1.4050610    -2.1469230    -0.4038060
  H        0.9414700     2.0498950     0.4019050
  H        0.4084350     1.5789030    -1.2051520
  H        0.9624730    -1.9950670     0.0738380
units angstrom
no_reorient  #important for SAPT in psi4, default
symmetry c1  #important for SAPT in psi4, default
}

set PROPERTIES_ORIGIN ["COM"]
properties('MP2/aug-cc-pvtz', properties = ['dipole'])
--------------------------------------------------------------------------

    Molecular point group: c1
  Charge       = 0
  Multiplicity = 1
  Basis Set: AUG-CC-PVTZ
    Blend: AUG-CC-PVTZ
  Basis Set: (AUG-CC-PVTZ AUX)
    Blend: AUG-CC-PVTZ-JKFIT

    Orbital Energies [Eh]
    ---------------------

    Doubly Occupied:

       1A    -20.509022     2A    -15.577093     3A    -11.346072
       4A    -11.275886     5A    -11.242900     6A    -11.241758
       7A    -11.240054     8A     -1.366767     9A     -1.227124
      10A     -1.088969    11A     -1.019298    12A     -0.897434
      13A     -0.843480    14A     -0.754288    15A     -0.691723
      16A     -0.650580    17A     -0.638019    18A     -0.613262
      19A     -0.594192    20A     -0.589164    21A     -0.571814
      22A     -0.504494    23A     -0.496258    24A     -0.489408
      25A     -0.485028    26A     -0.412405    27A     -0.382862

  @DF-RHF Final Energy:  -324.03128490011198

   => Energetics <=

    Nuclear Repulsion Energy =            313.6172185422494749
    One-Electron Energy =               -1061.7982923613105868
    Two-Electron Energy =                 424.1497889189491275
    Total Energy =                       -324.0312849001119844
  Basis Set: (AUG-CC-PVTZ AUX)
    Blend: AUG-CC-PVTZ-RI
    Molecular point group: c1

    Geometry (in Angstrom), charge = 0, multiplicity = 1:

       Center              X                  Y                   Z               Mass
    ------------   -----------------  -----------------  -----------------  -----------------
         O            2.290767813052    -0.102291887660     0.041087520051    15.994914619570
         N            0.320556413052    -1.136045787660    -0.058643179949    14.003074004430
         C           -1.823860586948     0.015967212340    -0.307341179949    12.000000000000
         C           -1.154072586948     1.232936212340     0.320880820051    12.000000000000
         C           -1.118311586948    -1.249842787660     0.154190820051    12.000000000000
         C            0.297496413052     1.320143212340    -0.145440179949    12.000000000000
         C            1.065419413052     0.016315212340    -0.019559179949    12.000000000000
         H           -2.882462586948    -0.043090787660    -0.031533179949     1.007825032230
         H           -1.770976586948     0.086515212340    -1.400296179949     1.007825032230
         H           -1.189423586948     1.142014212340     1.414166820051     1.007825032230
         H           -1.688863586948     2.153350212340     0.062425820051     1.007825032230
         H           -1.340363586948    -1.425545787660     1.217341820051     1.007825032230
         H           -1.480065586948    -2.120368787660    -0.403478179949     1.007825032230
         H            0.866465413052     2.076449212340     0.402232820051     1.007825032230
         H            0.333430413052     1.605457212340    -1.204824179949     1.007825032230
         H            0.887468413052    -1.968512787660     0.074165820051     1.007825032230

  Basis Set: AUG-CC-PVTZ
    Blend: AUG-CC-PVTZ
  Basis Set: (AUG-CC-PVTZ AUX)
    Blend: AUG-CC-PVTZ-JKFIT
	 Reference Energy          =    -324.0312849001119844 [Eh]
	 Singles Energy            =      -0.0000000000000000 [Eh]
	 Same-Spin Energy          =      -0.3338357411209144 [Eh]
	 Opposite-Spin Energy      =      -1.0911875129154358 [Eh]
	 Correlation Energy        =      -1.4250232540363501 [Eh]
	 Total Energy              =    -325.4563081541483598 [Eh]

	 ================> DF-SCS-MP2 Energies <==================
	-----------------------------------------------------------
	 SCS Same-Spin Scale       =       0.3333333333333333 [-]
	 SCS Opposite-Spin Scale   =       1.2000000000000000 [-]
	 SCS Same-Spin Energy      =      -0.1112785803736381 [Eh]
	 SCS Opposite-Spin Energy  =      -1.3094250154985230 [Eh]
	 SCS Correlation Energy    =      -1.4207035958721610 [Eh]
	 SCS Total Energy          =    -325.4519884959841534 [Eh]
	-----------------------------------------------------------

  Dipole Moment: [D]
     X:    -4.2337      Y:    -0.3378      Z:     0.1431     Total:     4.2495

*** Psi4 exiting successfully. Buy a developer a beer!
