                               Psi4 1.3.2 release

  ==> Input File <==

--------------------------------------------------------------------------
#psi4
#
memory 32 gb

molecule  {
0 1
  O        2.3705768    -0.0646943     0.0347322
  N        0.3955610    -1.1626000    -0.0589710
  C       -1.7488560    -0.0105870    -0.3076690
  C       -1.0790680     1.2063820     0.3205530
  C       -1.0433070    -1.2763970     0.1538630
  C        0.3725010     1.2935890    -0.1457680
  C        1.1404240    -0.0102390    -0.0198870
  H       -2.8074580    -0.0696450    -0.0318610
  H       -1.6959720     0.0599610    -1.4006240
  H       -1.1144190     1.1154600     1.4138390
  H       -1.6138590     2.1267960     0.0620980
  H       -1.2653590    -1.4521000     1.2170140
  H       -1.4050610    -2.1469230    -0.4038060
  H        0.9414700     2.0498950     0.4019050
  H        0.4084350     1.5789030    -1.2051520
  H        0.9624730    -1.9950670     0.0738380
units angstrom
no_reorient  #important for SAPT in psi4, default
symmetry c1  #important for SAPT in psi4, default
}

set PROPERTIES_ORIGIN ["COM"]
properties('MP2/aug-cc-pvtz', properties = ['dipole'])
--------------------------------------------------------------------------

    Molecular point group: c1
  Charge       = 0
  Multiplicity = 1
  Basis Set: AUG-CC-PVTZ
    Blend: AUG-CC-PVTZ
  Basis Set: (AUG-CC-PVTZ AUX)
    Blend: AUG-CC-PVTZ-JKFIT

    Orbital Energies [Eh]
    ---------------------

    Doubly Occupied:

       1A    -20.509881     2A    -15.580523     3A    -11.346089
       4A    -11.277718     5A    -11.240615     6A    -11.240010
       7A    -11.239498     8A     -1.365756     9A     -1.230680
      10A     -1.088416    11A     -1.018852    12A     -0.897117
      13A     -0.843663    14A     -0.754662    15A     -0.692711
      16A     -0.650824    17A     -0.638656    18A     -0.612929
      19A     -0.594462    20A     -0.588769    21A     -0.571128
      22A     -0.504685    23A     -0.496822    24A     -0.487995
      25A     -0.484211    26A     -0.411411    27A     -0.385793

  @DF-RHF Final Energy:  -324.03256824265117

   => Energetics <=

    Nuclear Repulsion Energy =            313.5365865497278719
    One-Electron Energy =               -1061.6305557299333486
    Two-Electron Energy =                 424.0614009375543105
    Total Energy =                       -324.0325682426511662
  Basis Set: (AUG-CC-PVTZ AUX)
    Blend: AUG-CC-PVTZ-RI
    Molecular point group: c1

    Geometry (in Angstrom), charge = 0, multiplicity = 1:

       Center              X                  Y                   Z               Mass
    ------------   -----------------  -----------------  -----------------  -----------------
         O            2.294796527192    -0.048497602464     0.036033179346    15.994914619570
         N            0.319780727192    -1.146403302464    -0.057670020654    14.003074004430
         C           -1.824636272808     0.005609697536    -0.306368020654    12.000000000000
         C           -1.154848272808     1.222578697536     0.321853979346    12.000000000000
         C           -1.119087272808    -1.260200302464     0.155163979346    12.000000000000
         C            0.296720727192     1.309785697536    -0.144467020654    12.000000000000
         C            1.064643727192     0.005957697536    -0.018586020654    12.000000000000
         H           -2.883238272808    -0.053448302464    -0.030560020654     1.007825032230
         H           -1.771752272808     0.076157697536    -1.399323020654     1.007825032230
         H           -1.190199272808     1.131656697536     1.415139979346     1.007825032230
         H           -1.689639272808     2.142992697536     0.063398979346     1.007825032230
         H           -1.341139272808    -1.435903302464     1.218314979346     1.007825032230
         H           -1.480841272808    -2.130726302464    -0.402505020654     1.007825032230
         H            0.865689727192     2.066091697536     0.403205979346     1.007825032230
         H            0.332654727192     1.595099697536    -1.203851020654     1.007825032230
         H            0.886692727192    -1.978870302464     0.075138979346     1.007825032230

  Basis Set: AUG-CC-PVTZ
    Blend: AUG-CC-PVTZ
  Basis Set: (AUG-CC-PVTZ AUX)
    Blend: AUG-CC-PVTZ-JKFIT
	 Reference Energy          =    -324.0325682426511662 [Eh]
	 Singles Energy            =      -0.0000000000000000 [Eh]
	 Same-Spin Energy          =      -0.3337829942219055 [Eh]
	 Opposite-Spin Energy      =      -1.0911455454041947 [Eh]
	 Correlation Energy        =      -1.4249285396261002 [Eh]
	 Total Energy              =    -325.4574967822772464 [Eh]

	 ================> DF-SCS-MP2 Energies <==================
	-----------------------------------------------------------
	 SCS Same-Spin Scale       =       0.3333333333333333 [-]
	 SCS Opposite-Spin Scale   =       1.2000000000000000 [-]
	 SCS Same-Spin Energy      =      -0.1112609980739685 [Eh]
	 SCS Opposite-Spin Energy  =      -1.3093746544850335 [Eh]
	 SCS Correlation Energy    =      -1.4206356525590020 [Eh]
	 SCS Total Energy          =    -325.4532038952101516 [Eh]
	-----------------------------------------------------------

  Dipole Moment: [D]
     X:    -4.2361      Y:    -0.5187      Z:     0.1574     Total:     4.2706

*** Psi4 exiting successfully. Buy a developer a beer!
