                               Psi4 1.3.2 release

  ==> Input File <==

--------------------------------------------------------------------------
#psi4
#
memory 32 gb

molecule  {
0 1
  O        2.3718665    -0.0002846     0.0318307
  N        0.3955610    -1.1626000    -0.0589710
  C       -1.7488560    -0.0105870    -0.3076690
  C       -1.0790680     1.2063820     0.3205530
  C       -1.0433070    -1.2763970     0.1538630
  C        0.3725010     1.2935890    -0.1457680
  C        1.1404240    -0.0102390    -0.0198870
  H       -2.8074580    -0.0696450    -0.0318610
  H       -1.6959720     0.0599610    -1.4006240
  H       -1.1144190     1.1154600     1.4138390
  H       -1.6138590     2.1267960     0.0620980
  H       -1.2653590    -1.4521000     1.2170140
  H       -1.4050610    -2.1469230    -0.4038060
  H        0.9414700     2.0498950     0.4019050
  H        0.4084350     1.5789030    -1.2051520
  H        0.9624730    -1.9950670     0.0738380
units angstrom
no_reorient  #important for SAPT in psi4, default
symmetry c1  #important for SAPT in psi4, default
}

set PROPERTIES_ORIGIN ["COM"]
properties('MP2/aug-cc-pvtz', properties = ['dipole'])
--------------------------------------------------------------------------

    Molecular point group: c1
  Charge       = 0
  Multiplicity = 1
  Basis Set: AUG-CC-PVTZ
    Blend: AUG-CC-PVTZ
  Basis Set: (AUG-CC-PVTZ AUX)
    Blend: AUG-CC-PVTZ-JKFIT

    Orbital Energies [Eh]
    ---------------------

    Doubly Occupied:

       1A    -20.510630     2A    -15.583837     3A    -11.346177
       4A    -11.279408     5A    -11.240236     6A    -11.238672
       7A    -11.236399     8A     -1.365076     9A     -1.234046
      10A     -1.087788    11A     -1.018267    12A     -0.896714
      13A     -0.843750    14A     -0.755033    15A     -0.693616
      16A     -0.651093    17A     -0.639326    18A     -0.612535
      19A     -0.594604    20A     -0.588423    21A     -0.570268
      22A     -0.504956    23A     -0.497367    24A     -0.486516
      25A     -0.483191    26A     -0.409787    27A     -0.388532

  @DF-RHF Final Energy:  -324.03229390601962

   => Energetics <=

    Nuclear Repulsion Energy =            313.5045261277858799
    One-Electron Energy =               -1061.5611430610551906
    Two-Electron Energy =                 424.0243230272496930
    Total Energy =                       -324.0322939060196177
  Basis Set: (AUG-CC-PVTZ AUX)
    Blend: AUG-CC-PVTZ-RI
    Molecular point group: c1

    Geometry (in Angstrom), charge = 0, multiplicity = 1:

       Center              X                  Y                   Z               Mass
    ------------   -----------------  -----------------  -----------------  -----------------
         O            2.295878000972     0.005512943947     0.033600135870    15.994914619570
         N            0.319572500972    -1.156802456053    -0.057201564130    14.003074004430
         C           -1.824844499028    -0.004789456053    -0.305899564130    12.000000000000
         C           -1.155056499028     1.212179543947     0.322322435870    12.000000000000
         C           -1.119295499028    -1.270599456053     0.155632435870    12.000000000000
         C            0.296512500972     1.299386543947    -0.143998564130    12.000000000000
         C            1.064435500972    -0.004441456053    -0.018117564130    12.000000000000
         H           -2.883446499028    -0.063847456053    -0.030091564130     1.007825032230
         H           -1.771960499028     0.065758543947    -1.398854564130     1.007825032230
         H           -1.190407499028     1.121257543947     1.415608435870     1.007825032230
         H           -1.689847499028     2.132593543947     0.063867435870     1.007825032230
         H           -1.341347499028    -1.446302456053     1.218783435870     1.007825032230
         H           -1.481049499028    -2.141125456053    -0.402036564130     1.007825032230
         H            0.865481500972     2.055692543947     0.403674435870     1.007825032230
         H            0.332446500972     1.584700543947    -1.203382564130     1.007825032230
         H            0.886484500972    -1.989269456053     0.075607435870     1.007825032230

  Basis Set: AUG-CC-PVTZ
    Blend: AUG-CC-PVTZ
  Basis Set: (AUG-CC-PVTZ AUX)
    Blend: AUG-CC-PVTZ-JKFIT
	 Reference Energy          =    -324.0322939060196177 [Eh]
	 Singles Energy            =      -0.0000000000000000 [Eh]
	 Same-Spin Energy          =      -0.3337859000371294 [Eh]
	 Opposite-Spin Energy      =      -1.0912137221746918 [Eh]
	 Correlation Energy        =      -1.4249996222118213 [Eh]
	 Total Energy              =    -325.4572935282314461 [Eh]

	 ================> DF-SCS-MP2 Energies <==================
	-----------------------------------------------------------
	 SCS Same-Spin Scale       =       0.3333333333333333 [-]
	 SCS Opposite-Spin Scale   =       1.2000000000000000 [-]
	 SCS Same-Spin Energy      =      -0.1112619666790431 [Eh]
	 SCS Opposite-Spin Energy  =      -1.3094564666096302 [Eh]
	 SCS Correlation Energy    =      -1.4207184332886733 [Eh]
	 SCS Total Energy          =    -325.4530123393083159 [Eh]
	-----------------------------------------------------------

  Dipole Moment: [D]
     X:    -4.2262      Y:    -0.6989      Z:     0.1658     Total:     4.2868

*** Psi4 exiting successfully. Buy a developer a beer!
