                               Psi4 1.3.2 release

  ==> Input File <==

--------------------------------------------------------------------------
#psi4
#
memory 32 gb

molecule  {
0 1
  O        2.3713340    -0.0431960     0.0348750
  N        0.4156398    -1.1754163    -0.0564103
  C       -1.7488560    -0.0105870    -0.3076690
  C       -1.0790680     1.2063820     0.3205530
  C       -1.0433070    -1.2763970     0.1538630
  C        0.3725010     1.2935890    -0.1457680
  C        1.1404240    -0.0102390    -0.0198870
  H       -2.8074580    -0.0696450    -0.0318610
  H       -1.6959720     0.0599610    -1.4006240
  H       -1.1144190     1.1154600     1.4138390
  H       -1.6138590     2.1267960     0.0620980
  H       -1.2653590    -1.4521000     1.2170140
  H       -1.4050610    -2.1469230    -0.4038060
  H        0.9414700     2.0498950     0.4019050
  H        0.4084350     1.5789030    -1.2051520
  H        0.9624730    -1.9950670     0.0738380
units angstrom
no_reorient  #important for SAPT in psi4, default
symmetry c1  #important for SAPT in psi4, default
}

set PROPERTIES_ORIGIN ["COM"]
properties('MP2/aug-cc-pvtz', properties = ['dipole'])
--------------------------------------------------------------------------

    Molecular point group: c1
  Charge       = 0
  Multiplicity = 1
  Basis Set: AUG-CC-PVTZ
    Blend: AUG-CC-PVTZ
  Basis Set: (AUG-CC-PVTZ AUX)
    Blend: AUG-CC-PVTZ-JKFIT

    Orbital Energies [Eh]
    ---------------------

    Doubly Occupied:

       1A    -20.508607     2A    -15.579605     3A    -11.345323
       4A    -11.279330     5A    -11.241054     6A    -11.240159
       7A    -11.239371     8A     -1.364985     9A     -1.228328
      10A     -1.089681    11A     -1.017759    12A     -0.897707
      13A     -0.843010    14A     -0.759105    15A     -0.690417
      16A     -0.651410    17A     -0.637632    18A     -0.612693
      19A     -0.596127    20A     -0.588272    21A     -0.569532
      22A     -0.504670    23A     -0.497472    24A     -0.487866
      25A     -0.484718    26A     -0.410444    27A     -0.386434

  @DF-RHF Final Energy:  -324.03275674876340

   => Energetics <=

    Nuclear Repulsion Energy =            313.2215682216588561
    One-Electron Energy =               -1061.0052328009869598
    Two-Electron Energy =                 423.7509078305647563
    Total Energy =                       -324.0327567487634042
  Basis Set: (AUG-CC-PVTZ AUX)
    Blend: AUG-CC-PVTZ-RI
    Molecular point group: c1

    Geometry (in Angstrom), charge = 0, multiplicity = 1:

       Center              X                  Y                   Z               Mass
    ------------   -----------------  -----------------  -----------------  -----------------
         O            2.292593386352    -0.028658720124     0.035790975248    15.994914619570
         N            0.336899186352    -1.160879020124    -0.055494324752    14.003074004430
         C           -1.827596613648     0.003950279876    -0.306753024752    12.000000000000
         C           -1.157808613648     1.220919279876     0.321468975248    12.000000000000
         C           -1.122047613648    -1.261859720124     0.154778975248    12.000000000000
         C            0.293760386352     1.308126279876    -0.144852024752    12.000000000000
         C            1.061683386352     0.004298279876    -0.018971024752    12.000000000000
         H           -2.886198613648    -0.055107720124    -0.030945024752     1.007825032230
         H           -1.774712613648     0.074498279876    -1.399708024752     1.007825032230
         H           -1.193159613648     1.129997279876     1.414754975248     1.007825032230
         H           -1.692599613648     2.141333279876     0.063013975248     1.007825032230
         H           -1.344099613648    -1.437562720124     1.217929975248     1.007825032230
         H           -1.483801613648    -2.132385720124    -0.402890024752     1.007825032230
         H            0.862729386352     2.064432279876     0.402820975248     1.007825032230
         H            0.329694386352     1.593440279876    -1.204236024752     1.007825032230
         H            0.883732386352    -1.980529720124     0.074753975248     1.007825032230

  Basis Set: AUG-CC-PVTZ
    Blend: AUG-CC-PVTZ
  Basis Set: (AUG-CC-PVTZ AUX)
    Blend: AUG-CC-PVTZ-JKFIT
	 Reference Energy          =    -324.0327567487634042 [Eh]
	 Singles Energy            =      -0.0000000000000000 [Eh]
	 Same-Spin Energy          =      -0.3334451297906760 [Eh]
	 Opposite-Spin Energy      =      -1.0907291963722847 [Eh]
	 Correlation Energy        =      -1.4241743261629607 [Eh]
	 Total Energy              =    -325.4569310749263877 [Eh]

	 ================> DF-SCS-MP2 Energies <==================
	-----------------------------------------------------------
	 SCS Same-Spin Scale       =       0.3333333333333333 [-]
	 SCS Opposite-Spin Scale   =       1.2000000000000000 [-]
	 SCS Same-Spin Energy      =      -0.1111483765968920 [Eh]
	 SCS Opposite-Spin Energy  =      -1.3088750356467416 [Eh]
	 SCS Correlation Energy    =      -1.4200234122436335 [Eh]
	 SCS Total Energy          =    -325.4527801610070128 [Eh]
	-----------------------------------------------------------

  Dipole Moment: [D]
     X:    -4.2768      Y:    -0.5533      Z:     0.1569     Total:     4.3153

*** Psi4 exiting successfully. Buy a developer a beer!
