                               Psi4 1.4a3.dev225

  ==> Input File <==

--------------------------------------------------------------------------
#psi4
#
memory 32 gb

molecule  {
0 1
  O        2.3713340    -0.0431960     0.0348750
  N        0.3955610    -1.1626000    -0.0589710
  C       -1.7488560    -0.0105870    -0.3076690
  C       -1.0790680     1.2063820     0.3205530
  C       -1.0433070    -1.2763970     0.1538630
  C        0.3725010     1.2935890    -0.1457680
  C        1.1404240    -0.0102390    -0.0198870
  H       -2.8074580    -0.0696450    -0.0318610
  H       -1.6959720     0.0599610    -1.4006240
  H       -1.1144190     1.1154600     1.4138390
  H       -1.6138590     2.1267960     0.0620980
  H       -1.2653590    -1.4521000     1.2170140
  H       -1.4050610    -2.1469230    -0.4038060
  H        0.9414700     2.0498950     0.4019050
  H        0.4084350     1.5789030    -1.2051520
  H        0.9736339    -2.0114559     0.0764526
units angstrom
no_reorient  #important for SAPT in psi4, default
symmetry c1  #important for SAPT in psi4, default
}

set PROPERTIES_ORIGIN ["COM"]
properties('MP2/aug-cc-pvtz', properties = ['dipole'])
--------------------------------------------------------------------------

    Molecular point group: c1
  Charge       = 0
  Multiplicity = 1
  Basis Set: AUG-CC-PVTZ
    Blend: AUG-CC-PVTZ
  Basis Set: (AUG-CC-PVTZ AUX)
    Blend: AUG-CC-PVTZ-JKFIT

    Orbital Energies [Eh]
    ---------------------

    Doubly Occupied:

       1A    -20.509938     2A    -15.583386     3A    -11.346012
       4A    -11.278234     5A    -11.240331     6A    -11.239636
       7A    -11.238524     8A     -1.365066     9A     -1.230083
      10A     -1.087445    11A     -1.018569    12A     -0.896302
      13A     -0.843032    14A     -0.751911    15A     -0.692045
      16A     -0.650347    17A     -0.638717    18A     -0.612704
      19A     -0.593776    20A     -0.588167    21A     -0.570637
      22A     -0.504583    23A     -0.496627    24A     -0.487418
      25A     -0.483647    26A     -0.410827    27A     -0.386341

  @DF-RHF Final Energy:  -324.03157374792630

   => Energetics <=

    Nuclear Repulsion Energy =            313.4020772731532816
    One-Electron Energy =               -1061.3786906446487137
    Two-Electron Energy =                 423.9450396235691301
    Total Energy =                       -324.0315737479263021
  Basis Set: (AUG-CC-PVTZ AUX)
    Blend: AUG-CC-PVTZ-RI
    Molecular point group: c1

    Geometry (in Angstrom), charge = 0, multiplicity = 1:

       Center              X                  Y                   Z               Mass
    ------------   -----------------  -----------------  -----------------  -----------------
         O            2.295317934745    -0.030303547645     0.036126325446    15.994914619570
         N            0.319544934745    -1.149707547645    -0.057719674554    14.003074004430
         C           -1.824872065255     0.002305452355    -0.306417674554    12.000000000000
         C           -1.155084065255     1.219274452355     0.321804325446    12.000000000000
         C           -1.119323065255    -1.263504547645     0.155114325446    12.000000000000
         C            0.296484934745     1.306481452355    -0.144516674554    12.000000000000
         C            1.064407934745     0.002653452355    -0.018635674554    12.000000000000
         H           -2.883474065255    -0.056752547645    -0.030609674554     1.007825032230
         H           -1.771988065255     0.072853452355    -1.399372674554     1.007825032230
         H           -1.190435065255     1.128352452355     1.415090325446     1.007825032230
         H           -1.689875065255     2.139688452355     0.063349325446     1.007825032230
         H           -1.341375065255    -1.439207547645     1.218265325446     1.007825032230
         H           -1.481077065255    -2.134030547645    -0.402554674554     1.007825032230
         H            0.865453934745     2.062787452355     0.403156325446     1.007825032230
         H            0.332418934745     1.591795452355    -1.203900674554     1.007825032230
         H            0.897617834745    -1.998563447645     0.077703925446     1.007825032230

  Basis Set: AUG-CC-PVTZ
    Blend: AUG-CC-PVTZ
  Basis Set: (AUG-CC-PVTZ AUX)
    Blend: AUG-CC-PVTZ-JKFIT
	 Reference Energy          =    -324.0315737479263021 [Eh]
	 Singles Energy            =      -0.0000000000000000 [Eh]
	 Same-Spin Energy          =      -0.3339345561259632 [Eh]
	 Opposite-Spin Energy      =      -1.0915254056630874 [Eh]
	 Correlation Energy        =      -1.4254599617890507 [Eh]
	 Total Energy              =    -325.4570337097153470 [Eh]

	 ================> DF-SCS-MP2 Energies <==================
	-----------------------------------------------------------
	 SCS Same-Spin Scale       =       0.3333333333333333 [-]
	 SCS Opposite-Spin Scale   =       1.2000000000000000 [-]
	 SCS Same-Spin Energy      =      -0.1113115187086544 [Eh]
	 SCS Opposite-Spin Energy  =      -1.3098304867957049 [Eh]
	 SCS Correlation Energy    =      -1.4211420055043593 [Eh]
	 SCS Total Energy          =    -325.4527157534306525 [Eh]
	-----------------------------------------------------------

  Dipole Moment: [D]
     X:    -4.2282      Y:    -0.5921      Z:     0.1601     Total:     4.2724

*** Psi4 exiting successfully. Buy a developer a beer!
