                               Psi4 1.3.2 release

  ==> Input File <==

--------------------------------------------------------------------------
#psi4
#
memory 32 gb

molecule  {
0 1
  O        2.3713340    -0.0431960     0.0348750
  N        0.3955610    -1.1626000    -0.0589710
  C       -1.7488560    -0.0105870    -0.3076690
  C       -1.0964360     1.2221398     0.3079813
  C       -1.0433070    -1.2763970     0.1538630
  C        0.3725010     1.2935890    -0.1457680
  C        1.1404240    -0.0102390    -0.0198870
  H       -2.8074580    -0.0696450    -0.0318610
  H       -1.6959720     0.0599610    -1.4006240
  H       -1.1144190     1.1154600     1.4138390
  H       -1.6138590     2.1267960     0.0620980
  H       -1.2653590    -1.4521000     1.2170140
  H       -1.4050610    -2.1469230    -0.4038060
  H        0.9414700     2.0498950     0.4019050
  H        0.4084350     1.5789030    -1.2051520
  H        0.9624730    -1.9950670     0.0738380
units angstrom
no_reorient  #important for SAPT in psi4, default
symmetry c1  #important for SAPT in psi4, default
}

set PROPERTIES_ORIGIN ["COM"]
properties('MP2/aug-cc-pvtz', properties = ['dipole'])
--------------------------------------------------------------------------

    Molecular point group: c1
  Charge       = 0
  Multiplicity = 1
  Basis Set: AUG-CC-PVTZ
    Blend: AUG-CC-PVTZ
  Basis Set: (AUG-CC-PVTZ AUX)
    Blend: AUG-CC-PVTZ-JKFIT

    Orbital Energies [Eh]
    ---------------------

    Doubly Occupied:

       1A    -20.510349     2A    -15.581622     3A    -11.346561
       4A    -11.278772     5A    -11.240386     6A    -11.239616
       7A    -11.238780     8A     -1.365601     9A     -1.231618
      10A     -1.087097    11A     -1.017820    12A     -0.898201
      13A     -0.844161    14A     -0.753676    15A     -0.692647
      16A     -0.652122    17A     -0.639663    18A     -0.611635
      19A     -0.596427    20A     -0.588362    21A     -0.570226
      22A     -0.505384    23A     -0.497861    24A     -0.484617
      25A     -0.483135    26A     -0.412107    27A     -0.386747

  @DF-RHF Final Energy:  -324.03199767481215

   => Energetics <=

    Nuclear Repulsion Energy =            313.2384940153381763
    One-Electron Energy =               -1061.0305947335996279
    Two-Electron Energy =                 423.7601030434493623
    Total Energy =                       -324.0319976748121462
  Basis Set: (AUG-CC-PVTZ AUX)
    Blend: AUG-CC-PVTZ-RI
    Molecular point group: c1

    Geometry (in Angstrom), charge = 0, multiplicity = 1:

       Center              X                  Y                   Z               Mass
    ------------   -----------------  -----------------  -----------------  -----------------
         O            2.297535233132    -0.032378989610     0.037675713927    15.994914619570
         N            0.321762233132    -1.151782989610    -0.056170286073    14.003074004430
         C           -1.822654766868     0.000230010390    -0.304868286073    12.000000000000
         C           -1.170234766868     1.232956810390     0.310782013927    12.000000000000
         C           -1.117105766868    -1.265579989610     0.156663713927    12.000000000000
         C            0.298702233132     1.304406010390    -0.142967286073    12.000000000000
         C            1.066625233132     0.000578010390    -0.017086286073    12.000000000000
         H           -2.881256766868    -0.058827989610    -0.029060286073     1.007825032230
         H           -1.769770766868     0.070778010390    -1.397823286073     1.007825032230
         H           -1.188217766868     1.126277010390     1.416639713927     1.007825032230
         H           -1.687657766868     2.137613010390     0.064898713927     1.007825032230
         H           -1.339157766868    -1.441282989610     1.219814713927     1.007825032230
         H           -1.478859766868    -2.136105989610    -0.401005286073     1.007825032230
         H            0.867671233132     2.060712010390     0.404705713927     1.007825032230
         H            0.334636233132     1.589720010390    -1.202351286073     1.007825032230
         H            0.888674233132    -1.984249989610     0.076638713927     1.007825032230

  Basis Set: AUG-CC-PVTZ
    Blend: AUG-CC-PVTZ
  Basis Set: (AUG-CC-PVTZ AUX)
    Blend: AUG-CC-PVTZ-JKFIT
	 Reference Energy          =    -324.0319976748121462 [Eh]
	 Singles Energy            =      -0.0000000000000000 [Eh]
	 Same-Spin Energy          =      -0.3337056291381681 [Eh]
	 Opposite-Spin Energy      =      -1.0911268729232677 [Eh]
	 Correlation Energy        =      -1.4248325020614359 [Eh]
	 Total Energy              =    -325.4568301768736092 [Eh]

	 ================> DF-SCS-MP2 Energies <==================
	-----------------------------------------------------------
	 SCS Same-Spin Scale       =       0.3333333333333333 [-]
	 SCS Opposite-Spin Scale   =       1.2000000000000000 [-]
	 SCS Same-Spin Energy      =      -0.1112352097127227 [Eh]
	 SCS Opposite-Spin Energy  =      -1.3093522475079211 [Eh]
	 SCS Correlation Energy    =      -1.4205874572206438 [Eh]
	 SCS Total Energy          =    -325.4525851320327661 [Eh]
	-----------------------------------------------------------

  Dipole Moment: [D]
     X:    -4.2388      Y:    -0.5748      Z:     0.1511     Total:     4.2803

*** Psi4 exiting successfully. Buy a developer a beer!
