                               Psi4 1.3.2 release

  ==> Input File <==

--------------------------------------------------------------------------
#psi4
#
memory 32 gb

molecule  {
0 1
  O        2.3713340    -0.0431960     0.0348750
  N        0.3955610    -1.1626000    -0.0589710
  C       -1.7488560    -0.0105870    -0.3076690
  C       -1.0937429     1.1294062     0.2482952
  C       -1.0433070    -1.2763970     0.1538630
  C        0.3725010     1.2935890    -0.1457680
  C        1.1404240    -0.0102390    -0.0198870
  H       -2.8074580    -0.0696450    -0.0318610
  H       -1.6959720     0.0599610    -1.4006240
  H       -1.1144190     1.1154600     1.4138390
  H       -1.6138590     2.1267960     0.0620980
  H       -1.2653590    -1.4521000     1.2170140
  H       -1.4050610    -2.1469230    -0.4038060
  H        0.9414700     2.0498950     0.4019050
  H        0.4084350     1.5789030    -1.2051520
  H        0.9624730    -1.9950670     0.0738380
units angstrom
no_reorient  #important for SAPT in psi4, default
symmetry c1  #important for SAPT in psi4, default
}

set PROPERTIES_ORIGIN ["COM"]
properties('MP2/aug-cc-pvtz', properties = ['dipole'])
--------------------------------------------------------------------------

    Molecular point group: c1
  Charge       = 0
  Multiplicity = 1
  Basis Set: AUG-CC-PVTZ
    Blend: AUG-CC-PVTZ
  Basis Set: (AUG-CC-PVTZ AUX)
    Blend: AUG-CC-PVTZ-JKFIT

    Orbital Energies [Eh]
    ---------------------

    Doubly Occupied:

       1A    -20.509964     2A    -15.582399     3A    -11.345691
       4A    -11.279114     5A    -11.245122     6A    -11.239949
       7A    -11.237131     8A     -1.365639     9A     -1.234268
      10A     -1.101497    11A     -1.021435    12A     -0.903059
      13A     -0.836734    14A     -0.754221    15A     -0.697251
      16A     -0.653638    17A     -0.637764    18A     -0.615972
      19A     -0.597820    20A     -0.587227    21A     -0.573147
      22A     -0.512484    23A     -0.504183    24A     -0.485116
      25A     -0.466679    26A     -0.408317    27A     -0.387353

  @DF-RHF Final Energy:  -324.01922772964235

   => Energetics <=

    Nuclear Repulsion Energy =            314.8196199544835281
    One-Electron Energy =               -1064.1113464211939572
    Two-Electron Energy =                 425.2724987370680765
    Total Energy =                       -324.0192277296423526
  Basis Set: (AUG-CC-PVTZ AUX)
    Blend: AUG-CC-PVTZ-RI
    Molecular point group: c1

    Geometry (in Angstrom), charge = 0, multiplicity = 1:

       Center              X                  Y                   Z               Mass
    ------------   -----------------  -----------------  -----------------  -----------------
         O            2.297209022197    -0.021146315582     0.044905396645    15.994914619570
         N            0.321436022197    -1.140550315582    -0.048940603355    14.003074004430
         C           -1.822980977803     0.011462684418    -0.297638603355    12.000000000000
         C           -1.167867877803     1.151455884418     0.258325596645    12.000000000000
         C           -1.117431977803    -1.254347315582     0.163893396645    12.000000000000
         C            0.298376022197     1.315638684418    -0.135737603355    12.000000000000
         C            1.066299022197     0.011810684418    -0.009856603355    12.000000000000
         H           -2.881582977803    -0.047595315582    -0.021830603355     1.007825032230
         H           -1.770096977803     0.082010684418    -1.390593603355     1.007825032230
         H           -1.188543977803     1.137509684418     1.423869396645     1.007825032230
         H           -1.687983977803     2.148845684418     0.072128396645     1.007825032230
         H           -1.339483977803    -1.430050315582     1.227044396645     1.007825032230
         H           -1.479185977803    -2.124873315582    -0.393775603355     1.007825032230
         H            0.867345022197     2.071944684418     0.411935396645     1.007825032230
         H            0.334310022197     1.600952684418    -1.195121603355     1.007825032230
         H            0.888348022197    -1.973017315582     0.083868396645     1.007825032230

  Basis Set: AUG-CC-PVTZ
    Blend: AUG-CC-PVTZ
  Basis Set: (AUG-CC-PVTZ AUX)
    Blend: AUG-CC-PVTZ-JKFIT
	 Reference Energy          =    -324.0192277296423526 [Eh]
	 Singles Energy            =      -0.0000000000000000 [Eh]
	 Same-Spin Energy          =      -0.3347931828965295 [Eh]
	 Opposite-Spin Energy      =      -1.0924316775368785 [Eh]
	 Correlation Energy        =      -1.4272248604334081 [Eh]
	 Total Energy              =    -325.4464525900757508 [Eh]

	 ================> DF-SCS-MP2 Energies <==================
	-----------------------------------------------------------
	 SCS Same-Spin Scale       =       0.3333333333333333 [-]
	 SCS Opposite-Spin Scale   =       1.2000000000000000 [-]
	 SCS Same-Spin Energy      =      -0.1115977276321765 [Eh]
	 SCS Opposite-Spin Energy  =      -1.3109180130442541 [Eh]
	 SCS Correlation Energy    =      -1.4225157406764306 [Eh]
	 SCS Total Energy          =    -325.4417434703187837 [Eh]
	-----------------------------------------------------------

  Dipole Moment: [D]
     X:    -4.2257      Y:    -0.6089      Z:     0.1090     Total:     4.2707

*** Psi4 exiting successfully. Buy a developer a beer!
