                               Psi4 1.3.2 release

  ==> Input File <==

--------------------------------------------------------------------------
#psi4
#
memory 32 gb

molecule  {
0 1
  O        2.3713340    -0.0431960     0.0348750
  N        0.3955610    -1.1626000    -0.0589710
  C       -1.7488560    -0.0105870    -0.3076690
  C       -1.0619040     1.1902535     0.3329333
  C       -1.0433070    -1.2763970     0.1538630
  C        0.3725010     1.2935890    -0.1457680
  C        1.1404240    -0.0102390    -0.0198870
  H       -2.8074580    -0.0696450    -0.0318610
  H       -1.6959720     0.0599610    -1.4006240
  H       -1.1144190     1.1154600     1.4138390
  H       -1.6138590     2.1267960     0.0620980
  H       -1.2653590    -1.4521000     1.2170140
  H       -1.4050610    -2.1469230    -0.4038060
  H        0.9414700     2.0498950     0.4019050
  H        0.4084350     1.5789030    -1.2051520
  H        0.9624730    -1.9950670     0.0738380
units angstrom
no_reorient  #important for SAPT in psi4, default
symmetry c1  #important for SAPT in psi4, default
}

set PROPERTIES_ORIGIN ["COM"]
properties('MP2/aug-cc-pvtz', properties = ['dipole'])
--------------------------------------------------------------------------

    Molecular point group: c1
  Charge       = 0
  Multiplicity = 1
  Basis Set: AUG-CC-PVTZ
    Blend: AUG-CC-PVTZ
  Basis Set: (AUG-CC-PVTZ AUX)
    Blend: AUG-CC-PVTZ-JKFIT

    Orbital Energies [Eh]
    ---------------------

    Doubly Occupied:

       1A    -20.509979     2A    -15.581680     3A    -11.345693
       4A    -11.277878     5A    -11.240512     6A    -11.239892
       7A    -11.238295     8A     -1.365421     9A     -1.232084
      10A     -1.089424    11A     -1.019574    12A     -0.895923
      13A     -0.843413    14A     -0.755980    15A     -0.693500
      16A     -0.650096    17A     -0.638106    18A     -0.613951
      19A     -0.593551    20A     -0.588216    21A     -0.571482
      22A     -0.505289    23A     -0.496377    24A     -0.491265
      25A     -0.481860    26A     -0.409625    27A     -0.386735

  @DF-RHF Final Energy:  -324.03170723629785

   => Energetics <=

    Nuclear Repulsion Energy =            313.8048416731913903
    One-Electron Energy =               -1062.1614916896987779
    Two-Electron Energy =                 424.3249427802095397
    Total Energy =                       -324.0317072362978479
  Basis Set: (AUG-CC-PVTZ AUX)
    Blend: AUG-CC-PVTZ-RI
    Molecular point group: c1

    Geometry (in Angstrom), charge = 0, multiplicity = 1:

       Center              X                  Y                   Z               Mass
    ------------   -----------------  -----------------  -----------------  -----------------
         O            2.293352426690    -0.028516652616     0.034653317704    15.994914619570
         N            0.317579426690    -1.147920652616    -0.059192682296    14.003074004430
         C           -1.826837573310     0.004092347384    -0.307890682296    12.000000000000
         C           -1.139885573310     1.204932847384     0.332711617704    12.000000000000
         C           -1.121288573310    -1.261717652616     0.153641317704    12.000000000000
         C            0.294519426690     1.308268347384    -0.145989682296    12.000000000000
         C            1.062442426690     0.004440347384    -0.020108682296    12.000000000000
         H           -2.885439573310    -0.054965652616    -0.032082682296     1.007825032230
         H           -1.773953573310     0.074640347384    -1.400845682296     1.007825032230
         H           -1.192400573310     1.130139347384     1.413617317704     1.007825032230
         H           -1.691840573310     2.141475347384     0.061876317704     1.007825032230
         H           -1.343340573310    -1.437420652616     1.216792317704     1.007825032230
         H           -1.483042573310    -2.132243652616    -0.404027682296     1.007825032230
         H            0.863488426690     2.064574347384     0.401683317704     1.007825032230
         H            0.330453426690     1.593582347384    -1.205373682296     1.007825032230
         H            0.884491426690    -1.980387652616     0.073616317704     1.007825032230

  Basis Set: AUG-CC-PVTZ
    Blend: AUG-CC-PVTZ
  Basis Set: (AUG-CC-PVTZ AUX)
    Blend: AUG-CC-PVTZ-JKFIT
	 Reference Energy          =    -324.0317072362978479 [Eh]
	 Singles Energy            =      -0.0000000000000000 [Eh]
	 Same-Spin Energy          =      -0.3338820777931144 [Eh]
	 Opposite-Spin Energy      =      -1.0912739241171034 [Eh]
	 Correlation Energy        =      -1.4251560019102179 [Eh]
	 Total Energy              =    -325.4568632382080864 [Eh]

	 ================> DF-SCS-MP2 Energies <==================
	-----------------------------------------------------------
	 SCS Same-Spin Scale       =       0.3333333333333333 [-]
	 SCS Opposite-Spin Scale   =       1.2000000000000000 [-]
	 SCS Same-Spin Energy      =      -0.1112940259310381 [Eh]
	 SCS Opposite-Spin Energy  =      -1.3095287089405241 [Eh]
	 SCS Correlation Energy    =      -1.4208227348715623 [Eh]
	 SCS Total Energy          =    -325.4525299711693833 [Eh]
	-----------------------------------------------------------

  Dipole Moment: [D]
     X:    -4.2273      Y:    -0.5857      Z:     0.1643     Total:     4.2708

*** Psi4 exiting successfully. Buy a developer a beer!
