                               Psi4 1.3.2 release

  ==> Input File <==

--------------------------------------------------------------------------
#psi4
#
memory 32 gb

molecule  {
0 1
  O        2.3713340    -0.0431960     0.0348750
  N        0.3955610    -1.1626000    -0.0589710
  C       -1.7488560    -0.0105870    -0.3076690
  C       -1.0790680     1.2063820     0.3205530
  C       -1.0433070    -1.2763970     0.1538630
  C        0.3725010     1.2935890    -0.1457680
  C        1.0593688     0.0386710    -0.0346487
  H       -2.8074580    -0.0696450    -0.0318610
  H       -1.6959720     0.0599610    -1.4006240
  H       -1.1144190     1.1154600     1.4138390
  H       -1.6138590     2.1267960     0.0620980
  H       -1.2653590    -1.4521000     1.2170140
  H       -1.4050610    -2.1469230    -0.4038060
  H        0.9414700     2.0498950     0.4019050
  H        0.4084350     1.5789030    -1.2051520
  H        0.9624730    -1.9950670     0.0738380
units angstrom
no_reorient  #important for SAPT in psi4, default
symmetry c1  #important for SAPT in psi4, default
}

set PROPERTIES_ORIGIN ["COM"]
properties('MP2/aug-cc-pvtz', properties = ['dipole'])
--------------------------------------------------------------------------

    Molecular point group: c1
  Charge       = 0
  Multiplicity = 1
  Basis Set: AUG-CC-PVTZ
    Blend: AUG-CC-PVTZ
  Basis Set: (AUG-CC-PVTZ AUX)
    Blend: AUG-CC-PVTZ-JKFIT

    Orbital Energies [Eh]
    ---------------------

    Doubly Occupied:

       1A    -20.498078     2A    -15.589245     3A    -11.351976
       4A    -11.279006     5A    -11.245022     6A    -11.243973
       7A    -11.242479     8A     -1.325118     9A     -1.222039
      10A     -1.098811    11A     -1.030067    12A     -0.906927
      13A     -0.850386    14A     -0.764169    15A     -0.693816
      16A     -0.655593    17A     -0.635555    18A     -0.618852
      19A     -0.600752    20A     -0.584342    21A     -0.564332
      22A     -0.500922    23A     -0.496157    24A     -0.487025
      25A     -0.475490    26A     -0.407799    27A     -0.377112

  @DF-RHF Final Energy:  -324.01195505455041

   => Energetics <=

    Nuclear Repulsion Energy =            313.7095231012758063
    One-Electron Energy =               -1061.9528731495195188
    Two-Electron Energy =                 424.2313949936932431
    Total Energy =                       -324.0119550545504126
  Basis Set: (AUG-CC-PVTZ AUX)
    Blend: AUG-CC-PVTZ-RI
    Molecular point group: c1

    Geometry (in Angstrom), charge = 0, multiplicity = 1:

       Center              X                  Y                   Z               Mass
    ------------   -----------------  -----------------  -----------------  -----------------
         O            2.305249562754    -0.036394663065     0.037940985157    15.994914619570
         N            0.329476562754    -1.155798663065    -0.055905014843    14.003074004430
         C           -1.814940437246    -0.003785663065    -0.304603014843    12.000000000000
         C           -1.145152437246     1.213183336935     0.323618985157    12.000000000000
         C           -1.109391437246    -1.269595663065     0.156928985157    12.000000000000
         C            0.306416562754     1.300390336935    -0.142702014843    12.000000000000
         C            0.993284362754     0.045472336935    -0.031582714843    12.000000000000
         H           -2.873542437246    -0.062843663065    -0.028795014843     1.007825032230
         H           -1.762056437246     0.066762336935    -1.397558014843     1.007825032230
         H           -1.180503437246     1.122261336935     1.416904985157     1.007825032230
         H           -1.679943437246     2.133597336935     0.065163985157     1.007825032230
         H           -1.331443437246    -1.445298663065     1.220079985157     1.007825032230
         H           -1.471145437246    -2.140121663065    -0.400740014843     1.007825032230
         H            0.875385562754     2.056696336935     0.404970985157     1.007825032230
         H            0.342350562754     1.585704336935    -1.202086014843     1.007825032230
         H            0.896388562754    -1.988265663065     0.076903985157     1.007825032230

  Basis Set: AUG-CC-PVTZ
    Blend: AUG-CC-PVTZ
  Basis Set: (AUG-CC-PVTZ AUX)
    Blend: AUG-CC-PVTZ-JKFIT
	 Reference Energy          =    -324.0119550545504126 [Eh]
	 Singles Energy            =      -0.0000000000000000 [Eh]
	 Same-Spin Energy          =      -0.3362855818322983 [Eh]
	 Opposite-Spin Energy      =      -1.0957357012989277 [Eh]
	 Correlation Energy        =      -1.4320212831312260 [Eh]
	 Total Energy              =    -325.4439763376816472 [Eh]

	 ================> DF-SCS-MP2 Energies <==================
	-----------------------------------------------------------
	 SCS Same-Spin Scale       =       0.3333333333333333 [-]
	 SCS Opposite-Spin Scale   =       1.2000000000000000 [-]
	 SCS Same-Spin Energy      =      -0.1120951939440994 [Eh]
	 SCS Opposite-Spin Energy  =      -1.3148828415587133 [Eh]
	 SCS Correlation Energy    =      -1.4269780355028128 [Eh]
	 SCS Total Energy          =    -325.4389330900532400 [Eh]
	-----------------------------------------------------------

  Dipole Moment: [D]
     X:    -4.7324      Y:    -0.4449      Z:     0.0976     Total:     4.7543

*** Psi4 exiting successfully. Buy a developer a beer!
