                               Psi4 1.3.2 release

  ==> Input File <==

--------------------------------------------------------------------------
#psi4
#
memory 32 gb

molecule  {
0 1
  O        2.3713340    -0.0431960     0.0348750
  N        0.5192205    -1.2340997    -0.0434558
  C       -1.7488560    -0.0105870    -0.3076690
  C       -1.0790680     1.2063820     0.3205530
  C       -1.0433070    -1.2763970     0.1538630
  C        0.3725010     1.2935890    -0.1457680
  C        1.1404240    -0.0102390    -0.0198870
  H       -2.8074580    -0.0696450    -0.0318610
  H       -1.6959720     0.0599610    -1.4006240
  H       -1.1144190     1.1154600     1.4138390
  H       -1.6138590     2.1267960     0.0620980
  H       -1.2653590    -1.4521000     1.2170140
  H       -1.4050610    -2.1469230    -0.4038060
  H        0.9414700     2.0498950     0.4019050
  H        0.4084350     1.5789030    -1.2051520
  H        0.9624730    -1.9950670     0.0738380
units angstrom
no_reorient  #important for SAPT in psi4, default
symmetry c1  #important for SAPT in psi4, default
}

set PROPERTIES_ORIGIN ["COM"]
properties('MP2/aug-cc-pvtz', properties = ['dipole'])
--------------------------------------------------------------------------

    Molecular point group: c1
  Charge       = 0
  Multiplicity = 1
  Basis Set: AUG-CC-PVTZ
    Blend: AUG-CC-PVTZ
  Basis Set: (AUG-CC-PVTZ AUX)
    Blend: AUG-CC-PVTZ-JKFIT

    Orbital Energies [Eh]
    ---------------------

    Doubly Occupied:

       1A    -20.501640     2A    -15.569225     3A    -11.343304
       4A    -11.284234     5A    -11.244711     6A    -11.244622
       7A    -11.242079     8A     -1.363735     9A     -1.215209
      10A     -1.097570    11A     -1.014782    12A     -0.903004
      13A     -0.841726    14A     -0.782468    15A     -0.680540
      16A     -0.654170    17A     -0.632526    18A     -0.613831
      19A     -0.600010    20A     -0.584501    21A     -0.561511
      22A     -0.503669    23A     -0.499339    24A     -0.489945
      25A     -0.486726    26A     -0.406690    27A     -0.384602

  @DF-RHF Final Energy:  -324.00632057971814

   => Energetics <=

    Nuclear Repulsion Energy =            311.8684344645420197
    One-Electron Energy =               -1058.2567754960523416
    Two-Electron Energy =                 422.3820204517921866
    Total Energy =                       -324.0063205797181354
  Basis Set: (AUG-CC-PVTZ AUX)
    Blend: AUG-CC-PVTZ-RI
    Molecular point group: c1

    Geometry (in Angstrom), charge = 0, multiplicity = 1:

       Center              X                  Y                   Z               Mass
    ------------   -----------------  -----------------  -----------------  -----------------
         O            2.277952511928    -0.020363967431     0.033959888880    15.994914619570
         N            0.425839011928    -1.211267667431    -0.044370911120    14.003074004430
         C           -1.842237488072     0.012245032569    -0.308584111120    12.000000000000
         C           -1.172449488072     1.229214032569     0.319637888880    12.000000000000
         C           -1.136688488072    -1.253564967431     0.152947888880    12.000000000000
         C            0.279119511928     1.316421032569    -0.146683111120    12.000000000000
         C            1.047042511928     0.012593032569    -0.020802111120    12.000000000000
         H           -2.900839488072    -0.046812967431    -0.032776111120     1.007825032230
         H           -1.789353488072     0.082793032569    -1.401539111120     1.007825032230
         H           -1.207800488072     1.138292032569     1.412923888880     1.007825032230
         H           -1.707240488072     2.149628032569     0.061182888880     1.007825032230
         H           -1.358740488072    -1.429267967431     1.216098888880     1.007825032230
         H           -1.498442488072    -2.124090967431    -0.404721111120     1.007825032230
         H            0.848088511928     2.072727032569     0.400989888880     1.007825032230
         H            0.315053511928     1.601735032569    -1.206067111120     1.007825032230
         H            0.869091511928    -1.972234967431     0.072922888880     1.007825032230

  Basis Set: AUG-CC-PVTZ
    Blend: AUG-CC-PVTZ
  Basis Set: (AUG-CC-PVTZ AUX)
    Blend: AUG-CC-PVTZ-JKFIT
	 Reference Energy          =    -324.0063205797181354 [Eh]
	 Singles Energy            =      -0.0000000000000000 [Eh]
	 Same-Spin Energy          =      -0.3324375070099788 [Eh]
	 Opposite-Spin Energy      =      -1.0902224272852401 [Eh]
	 Correlation Energy        =      -1.4226599342952189 [Eh]
	 Total Energy              =    -325.4289805140133467 [Eh]

	 ================> DF-SCS-MP2 Energies <==================
	-----------------------------------------------------------
	 SCS Same-Spin Scale       =       0.3333333333333333 [-]
	 SCS Opposite-Spin Scale   =       1.2000000000000000 [-]
	 SCS Same-Spin Energy      =      -0.1108125023366596 [Eh]
	 SCS Opposite-Spin Energy  =      -1.3082669127422881 [Eh]
	 SCS Correlation Energy    =      -1.4190794150789476 [Eh]
	 SCS Total Energy          =    -325.4253999947970897 [Eh]
	-----------------------------------------------------------

  Dipole Moment: [D]
     X:    -4.4797      Y:    -0.3926      Z:     0.1446     Total:     4.4992

*** Psi4 exiting successfully. Buy a developer a beer!
