                               Psi4 1.3.2 release

  ==> Input File <==

--------------------------------------------------------------------------
#psi4
#
memory 32 gb

molecule  {
0 1
  O        2.3713340    -0.0431960     0.0348750
  N        0.3955610    -1.1626000    -0.0589710
  C       -1.7488560    -0.0105870    -0.3076690
  C       -1.0790680     1.2063820     0.3205530
  C       -1.0433070    -1.2763970     0.1538630
  C        0.3725010     1.2935890    -0.1457680
  C        1.1946869     0.0737100    -0.0170397
  H       -2.8074580    -0.0696450    -0.0318610
  H       -1.6959720     0.0599610    -1.4006240
  H       -1.1144190     1.1154600     1.4138390
  H       -1.6138590     2.1267960     0.0620980
  H       -1.2653590    -1.4521000     1.2170140
  H       -1.4050610    -2.1469230    -0.4038060
  H        0.9414700     2.0498950     0.4019050
  H        0.4084350     1.5789030    -1.2051520
  H        0.9624730    -1.9950670     0.0738380
units angstrom
no_reorient  #important for SAPT in psi4, default
symmetry c1  #important for SAPT in psi4, default
}

set PROPERTIES_ORIGIN ["COM"]
properties('MP2/aug-cc-pvtz', properties = ['dipole'])
--------------------------------------------------------------------------

    Molecular point group: c1
  Charge       = 0
  Multiplicity = 1
  Basis Set: AUG-CC-PVTZ
    Blend: AUG-CC-PVTZ
  Basis Set: (AUG-CC-PVTZ AUX)
    Blend: AUG-CC-PVTZ-JKFIT

    Orbital Energies [Eh]
    ---------------------

    Doubly Occupied:

       1A    -20.528308     2A    -15.562462     3A    -11.351137
       4A    -11.267145     5A    -11.242048     6A    -11.241002
       7A    -11.235584     8A     -1.402797     9A     -1.205684
      10A     -1.084545    11A     -1.018013    12A     -0.894470
      13A     -0.833408    14A     -0.743031    15A     -0.687140
      16A     -0.651907    17A     -0.643052    18A     -0.613707
      19A     -0.601383    20A     -0.583786    21A     -0.576197
      22A     -0.509168    23A     -0.499031    24A     -0.489924
      25A     -0.483909    26A     -0.417770    27A     -0.376319

  @DF-RHF Final Energy:  -324.02300786696577

   => Energetics <=

    Nuclear Repulsion Energy =            313.1603969158938412
    One-Electron Energy =               -1060.8809544794219164
    Two-Electron Energy =                 423.6975496965622483
    Total Energy =                       -324.0230078669657701
  Basis Set: (AUG-CC-PVTZ AUX)
    Blend: AUG-CC-PVTZ-RI
    Molecular point group: c1

    Geometry (in Angstrom), charge = 0, multiplicity = 1:

       Center              X                  Y                   Z               Mass
    ------------   -----------------  -----------------  -----------------  -----------------
         O            2.288858695717    -0.040638881615     0.035808034889    15.994914619570
         N            0.313085695717    -1.160042881615    -0.058037965111    14.003074004430
         C           -1.831331304283    -0.008029881615    -0.306735965111    12.000000000000
         C           -1.161543304283     1.208939118385     0.321486034889    12.000000000000
         C           -1.125782304283    -1.273839881615     0.154796034889    12.000000000000
         C            0.290025695717     1.296146118385    -0.144834965111    12.000000000000
         C            1.112211595717     0.076267118385    -0.016106665111    12.000000000000
         H           -2.889933304283    -0.067087881615    -0.030927965111     1.007825032230
         H           -1.778447304283     0.062518118385    -1.399690965111     1.007825032230
         H           -1.196894304283     1.118017118385     1.414772034889     1.007825032230
         H           -1.696334304283     2.129353118385     0.063031034889     1.007825032230
         H           -1.347834304283    -1.449542881615     1.217947034889     1.007825032230
         H           -1.487536304283    -2.144365881615    -0.402872965111     1.007825032230
         H            0.858994695717     2.052452118385     0.402838034889     1.007825032230
         H            0.325959695717     1.581460118385    -1.204218965111     1.007825032230
         H            0.879997695717    -1.992509881615     0.074771034889     1.007825032230

  Basis Set: AUG-CC-PVTZ
    Blend: AUG-CC-PVTZ
  Basis Set: (AUG-CC-PVTZ AUX)
    Blend: AUG-CC-PVTZ-JKFIT
	 Reference Energy          =    -324.0230078669657701 [Eh]
	 Singles Energy            =      -0.0000000000000000 [Eh]
	 Same-Spin Energy          =      -0.3334561492624931 [Eh]
	 Opposite-Spin Energy      =      -1.0906299676354307 [Eh]
	 Correlation Energy        =      -1.4240861168979237 [Eh]
	 Total Energy              =    -325.4470939838636809 [Eh]

	 ================> DF-SCS-MP2 Energies <==================
	-----------------------------------------------------------
	 SCS Same-Spin Scale       =       0.3333333333333333 [-]
	 SCS Opposite-Spin Scale   =       1.2000000000000000 [-]
	 SCS Same-Spin Energy      =      -0.1111520497541643 [Eh]
	 SCS Opposite-Spin Energy  =      -1.3087559611625168 [Eh]
	 SCS Correlation Energy    =      -1.4199080109166811 [Eh]
	 SCS Total Energy          =    -325.4429158778824558 [Eh]
	-----------------------------------------------------------

  Dipole Moment: [D]
     X:    -3.5806      Y:     0.0305      Z:     0.1796     Total:     3.5852

*** Psi4 exiting successfully. Buy a developer a beer!
