                               Psi4 1.3.2 release

  ==> Input File <==

--------------------------------------------------------------------------
#psi4
#
memory 32 gb

molecule  {
0 1
  O        2.3713340    -0.0431960     0.0348750
  N        0.3955610    -1.1626000    -0.0589710
  C       -1.7488560    -0.0105870    -0.3076690
  C       -1.0790680     1.2063820     0.3205530
  C       -1.0480237    -1.2270323     0.1422771
  C        0.3725010     1.2935890    -0.1457680
  C        1.1404240    -0.0102390    -0.0198870
  H       -2.8074580    -0.0696450    -0.0318610
  H       -1.6959720     0.0599610    -1.4006240
  H       -1.1144190     1.1154600     1.4138390
  H       -1.6138590     2.1267960     0.0620980
  H       -1.2653590    -1.4521000     1.2170140
  H       -1.4050610    -2.1469230    -0.4038060
  H        0.9414700     2.0498950     0.4019050
  H        0.4084350     1.5789030    -1.2051520
  H        0.9624730    -1.9950670     0.0738380
units angstrom
no_reorient  #important for SAPT in psi4, default
symmetry c1  #important for SAPT in psi4, default
}

set PROPERTIES_ORIGIN ["COM"]
properties('MP2/aug-cc-pvtz', properties = ['dipole'])
--------------------------------------------------------------------------

    Molecular point group: c1
  Charge       = 0
  Multiplicity = 1
  Basis Set: AUG-CC-PVTZ
    Blend: AUG-CC-PVTZ
  Basis Set: (AUG-CC-PVTZ AUX)
    Blend: AUG-CC-PVTZ-JKFIT

    Orbital Energies [Eh]
    ---------------------

    Doubly Occupied:

       1A    -20.509813     2A    -15.582154     3A    -11.345287
       4A    -11.280602     5A    -11.240207     6A    -11.238963
       7A    -11.238626     8A     -1.365451     9A     -1.233615
      10A     -1.092300    11A     -1.022388    12A     -0.895035
      13A     -0.844237    14A     -0.755981    15A     -0.694733
      16A     -0.647393    17A     -0.638112    18A     -0.612163
      19A     -0.598621    20A     -0.588499    21A     -0.571469
      22A     -0.505622    23A     -0.499844    24A     -0.487949
      25A     -0.482399    26A     -0.410633    27A     -0.384496

  @DF-RHF Final Energy:  -324.02928231671734

   => Energetics <=

    Nuclear Repulsion Energy =            314.2022482900274554
    One-Electron Energy =               -1062.9298795313923165
    Two-Electron Energy =                 424.6983489246475187
    Total Energy =                       -324.0292823167173424
  Basis Set: (AUG-CC-PVTZ AUX)
    Blend: AUG-CC-PVTZ-RI
    Molecular point group: c1

    Geometry (in Angstrom), charge = 0, multiplicity = 1:

       Center              X                  Y                   Z               Mass
    ------------   -----------------  -----------------  -----------------  -----------------
         O            2.296002801210    -0.036449740156     0.037556305535    15.994914619570
         N            0.320229801210    -1.155853740156    -0.056289694465    14.003074004430
         C           -1.824187198790    -0.003840740156    -0.304987694465    12.000000000000
         C           -1.154399198790     1.213128259844     0.323234305535    12.000000000000
         C           -1.123354898790    -1.220286040156     0.144958405535    12.000000000000
         C            0.297169801210     1.300335259844    -0.143086694465    12.000000000000
         C            1.065092801210    -0.003492740156    -0.017205694465    12.000000000000
         H           -2.882789198790    -0.062898740156    -0.029179694465     1.007825032230
         H           -1.771303198790     0.066707259844    -1.397942694465     1.007825032230
         H           -1.189750198790     1.122206259844     1.416520305535     1.007825032230
         H           -1.689190198790     2.133542259844     0.064779305535     1.007825032230
         H           -1.340690198790    -1.445353740156     1.219695305535     1.007825032230
         H           -1.480392198790    -2.140176740156    -0.401124694465     1.007825032230
         H            0.866138801210     2.056641259844     0.404586305535     1.007825032230
         H            0.333103801210     1.585649259844    -1.202470694465     1.007825032230
         H            0.887141801210    -1.988320740156     0.076519305535     1.007825032230

  Basis Set: AUG-CC-PVTZ
    Blend: AUG-CC-PVTZ
  Basis Set: (AUG-CC-PVTZ AUX)
    Blend: AUG-CC-PVTZ-JKFIT
	 Reference Energy          =    -324.0292823167173424 [Eh]
	 Singles Energy            =      -0.0000000000000000 [Eh]
	 Same-Spin Energy          =      -0.3342069805119446 [Eh]
	 Opposite-Spin Energy      =      -1.0915994654376031 [Eh]
	 Correlation Energy        =      -1.4258064459495476 [Eh]
	 Total Energy              =    -325.4550887626668896 [Eh]

	 ================> DF-SCS-MP2 Energies <==================
	-----------------------------------------------------------
	 SCS Same-Spin Scale       =       0.3333333333333333 [-]
	 SCS Opposite-Spin Scale   =       1.2000000000000000 [-]
	 SCS Same-Spin Energy      =      -0.1114023268373149 [Eh]
	 SCS Opposite-Spin Energy  =      -1.3099193585251236 [Eh]
	 SCS Correlation Energy    =      -1.4213216853624386 [Eh]
	 SCS Total Energy          =    -325.4506040020797855 [Eh]
	-----------------------------------------------------------

  Dipole Moment: [D]
     X:    -4.2394      Y:    -0.5395      Z:     0.1410     Total:     4.2760

*** Psi4 exiting successfully. Buy a developer a beer!
