                               Psi4 1.4a3.dev225

  ==> Input File <==

--------------------------------------------------------------------------
#psi4
#
memory 32 gb

molecule  {
0 1
  O        2.3713340    -0.0431960     0.0348750
  N        0.3955610    -1.1626000    -0.0589710
  C       -1.7488560    -0.0105870    -0.3076690
  C       -1.0790680     1.2063820     0.3205530
  C       -1.0926181    -1.2802969     0.1611570
  C        0.3725010     1.2935890    -0.1457680
  C        1.1404240    -0.0102390    -0.0198870
  H       -2.8074580    -0.0696450    -0.0318610
  H       -1.6959720     0.0599610    -1.4006240
  H       -1.1144190     1.1154600     1.4138390
  H       -1.6138590     2.1267960     0.0620980
  H       -1.2653590    -1.4521000     1.2170140
  H       -1.4050610    -2.1469230    -0.4038060
  H        0.9414700     2.0498950     0.4019050
  H        0.4084350     1.5789030    -1.2051520
  H        0.9624730    -1.9950670     0.0738380
units angstrom
no_reorient  #important for SAPT in psi4, default
symmetry c1  #important for SAPT in psi4, default
}

set PROPERTIES_ORIGIN ["COM"]
properties('MP2/aug-cc-pvtz', properties = ['dipole'])
--------------------------------------------------------------------------

    Molecular point group: c1
  Charge       = 0
  Multiplicity = 1
  Basis Set: AUG-CC-PVTZ
    Blend: AUG-CC-PVTZ
  Basis Set: (AUG-CC-PVTZ AUX)
    Blend: AUG-CC-PVTZ-JKFIT

    Orbital Energies [Eh]
    ---------------------

    Doubly Occupied:

       1A    -20.507658     2A    -15.579125     3A    -11.343741
       4A    -11.279657     5A    -11.240799     6A    -11.240173
       7A    -11.237677     8A     -1.362494     9A     -1.221053
      10A     -1.088408    11A     -1.021489    12A     -0.897960
      13A     -0.841240    14A     -0.753076    15A     -0.687140
      16A     -0.651291    17A     -0.637642    18A     -0.615269
      19A     -0.592199    20A     -0.585565    21A     -0.570708
      22A     -0.506296    23A     -0.497391    24A     -0.487265
      25A     -0.486208    26A     -0.409068    27A     -0.386726

  @DF-RHF Final Energy:  -324.03043002282817

   => Energetics <=

    Nuclear Repulsion Energy =            312.9329445269443681
    One-Electron Energy =               -1060.4721139605178450
    Two-Electron Energy =                 423.5087394107453633
    Total Energy =                       -324.0304300228281704
  Basis Set: (AUG-CC-PVTZ AUX)
    Blend: AUG-CC-PVTZ-RI
    Molecular point group: c1

    Geometry (in Angstrom), charge = 0, multiplicity = 1:

       Center              X                  Y                   Z               Mass
    ------------   -----------------  -----------------  -----------------  -----------------
         O            2.301404450220    -0.029997883557     0.035269413164    15.994914619570
         N            0.325631450220    -1.149401883557    -0.058576586836    14.003074004430
         C           -1.818785549780     0.002611116443    -0.307274586836    12.000000000000
         C           -1.148997549780     1.219580116443     0.320947413164    12.000000000000
         C           -1.162547649780    -1.267098783557     0.161551413164    12.000000000000
         C            0.302571450220     1.306787116443    -0.145373586836    12.000000000000
         C            1.070494450220     0.002959116443    -0.019492586836    12.000000000000
         H           -2.877387549780    -0.056446883557    -0.031466586836     1.007825032230
         H           -1.765901549780     0.073159116443    -1.400229586836     1.007825032230
         H           -1.184348549780     1.128658116443     1.414233413164     1.007825032230
         H           -1.683788549780     2.139994116443     0.062492413164     1.007825032230
         H           -1.335288549780    -1.438901883557     1.217408413164     1.007825032230
         H           -1.474990549780    -2.133724883557    -0.403411586836     1.007825032230
         H            0.871540450220     2.063093116443     0.402299413164     1.007825032230
         H            0.338505450220     1.592101116443    -1.204757586836     1.007825032230
         H            0.892543450220    -1.981868883557     0.074232413164     1.007825032230

  Basis Set: AUG-CC-PVTZ
    Blend: AUG-CC-PVTZ
  Basis Set: (AUG-CC-PVTZ AUX)
    Blend: AUG-CC-PVTZ-JKFIT
	 Reference Energy          =    -324.0304300228281704 [Eh]
	 Singles Energy            =      -0.0000000000000000 [Eh]
	 Same-Spin Energy          =      -0.3337313398537489 [Eh]
	 Opposite-Spin Energy      =      -1.0913806915421416 [Eh]
	 Correlation Energy        =      -1.4251120313958905 [Eh]
	 Total Energy              =    -325.4555420542240540 [Eh]

	 ================> DF-SCS-MP2 Energies <==================
	-----------------------------------------------------------
	 SCS Same-Spin Scale       =       0.3333333333333333 [-]
	 SCS Opposite-Spin Scale   =       1.2000000000000000 [-]
	 SCS Same-Spin Energy      =      -0.1112437799512496 [Eh]
	 SCS Opposite-Spin Energy  =      -1.3096568298505697 [Eh]
	 SCS Correlation Energy    =      -1.4209006098018193 [Eh]
	 SCS Total Energy          =    -325.4513306326300039 [Eh]
	-----------------------------------------------------------

  Dipole Moment: [D]
     X:    -4.3840      Y:    -0.6103      Z:     0.1897     Total:     4.4303

*** Psi4 exiting successfully. Buy a developer a beer!
