                               Psi4 1.3.2 release

  ==> Input File <==

--------------------------------------------------------------------------
#psi4
#
memory 32 gb

molecule  {
0 1
  O        2.3713340    -0.0431960     0.0348750
  N        0.3955610    -1.1626000    -0.0589710
  C       -1.7488560    -0.0105870    -0.3076690
  C       -1.0823320     1.2321194     0.3144442
  C       -1.0433070    -1.2763970     0.1538630
  C        0.3725010     1.2935890    -0.1457680
  C        1.1404240    -0.0102390    -0.0198870
  H       -2.8074580    -0.0696450    -0.0318610
  H       -1.6959720     0.0599610    -1.4006240
  H       -1.1144190     1.1154600     1.4138390
  H       -1.6138590     2.1267960     0.0620980
  H       -1.2653590    -1.4521000     1.2170140
  H       -1.4050610    -2.1469230    -0.4038060
  H        0.9414700     2.0498950     0.4019050
  H        0.4084350     1.5789030    -1.2051520
  H        0.9624730    -1.9950670     0.0738380
units angstrom
no_reorient  #important for SAPT in psi4, default
symmetry c1  #important for SAPT in psi4, default
}

set PROPERTIES_ORIGIN ["COM"]
properties('MP2/aug-cc-pvtz', properties = ['dipole'])
--------------------------------------------------------------------------

    Molecular point group: c1
  Charge       = 0
  Multiplicity = 1
  Basis Set: AUG-CC-PVTZ
    Blend: AUG-CC-PVTZ
  Basis Set: (AUG-CC-PVTZ AUX)
    Blend: AUG-CC-PVTZ-JKFIT

    Orbital Energies [Eh]
    ---------------------

    Doubly Occupied:

       1A    -20.510475     2A    -15.581635     3A    -11.346711
       4A    -11.278575     5A    -11.240781     6A    -11.239437
       7A    -11.238420     8A     -1.365710     9A     -1.231507
      10A     -1.086397    11A     -1.018264    12A     -0.896888
      13A     -0.844982    14A     -0.753844    15A     -0.692349
      16A     -0.651892    17A     -0.639996    18A     -0.612056
      19A     -0.595913    20A     -0.588483    21A     -0.570194
      22A     -0.505702    23A     -0.498801    24A     -0.486354
      25A     -0.479914    26A     -0.412316    27A     -0.386708

  @DF-RHF Final Energy:  -324.03203611876904

   => Energetics <=

    Nuclear Repulsion Energy =            313.2005731167504905
    One-Electron Energy =               -1060.9566097363526751
    Two-Electron Energy =                 423.7240005008330854
    Total Energy =                       -324.0320361187690423
  Basis Set: (AUG-CC-PVTZ AUX)
    Blend: AUG-CC-PVTZ-RI
    Molecular point group: c1

    Geometry (in Angstrom), charge = 0, multiplicity = 1:

       Center              X                  Y                   Z               Mass
    ------------   -----------------  -----------------  -----------------  -----------------
         O            2.295826837961    -0.033587802745     0.036892873091    15.994914619570
         N            0.320053837961    -1.152991802745    -0.056953126909    14.003074004430
         C           -1.824363162039    -0.000978802745    -0.305651126909    12.000000000000
         C           -1.157839162039     1.241727597255     0.316462073091    12.000000000000
         C           -1.118814162039    -1.266788802745     0.155880873091    12.000000000000
         C            0.296993837961     1.303197197255    -0.143750126909    12.000000000000
         C            1.064916837961    -0.000630802745    -0.017869126909    12.000000000000
         H           -2.882965162039    -0.060036802745    -0.029843126909     1.007825032230
         H           -1.771479162039     0.069569197255    -1.398606126909     1.007825032230
         H           -1.189926162039     1.125068197255     1.415856873091     1.007825032230
         H           -1.689366162039     2.136404197255     0.064115873091     1.007825032230
         H           -1.340866162039    -1.442491802745     1.219031873091     1.007825032230
         H           -1.480568162039    -2.137314802745    -0.401788126909     1.007825032230
         H            0.865962837961     2.059503197255     0.403922873091     1.007825032230
         H            0.332927837961     1.588511197255    -1.203134126909     1.007825032230
         H            0.886965837961    -1.985458802745     0.075855873091     1.007825032230

  Basis Set: AUG-CC-PVTZ
    Blend: AUG-CC-PVTZ
  Basis Set: (AUG-CC-PVTZ AUX)
    Blend: AUG-CC-PVTZ-JKFIT
	 Reference Energy          =    -324.0320361187690423 [Eh]
	 Singles Energy            =      -0.0000000000000000 [Eh]
	 Same-Spin Energy          =      -0.3336810523326186 [Eh]
	 Opposite-Spin Energy      =      -1.0911246341049865 [Eh]
	 Correlation Energy        =      -1.4248056864376051 [Eh]
	 Total Energy              =    -325.4568418052066363 [Eh]

	 ================> DF-SCS-MP2 Energies <==================
	-----------------------------------------------------------
	 SCS Same-Spin Scale       =       0.3333333333333333 [-]
	 SCS Opposite-Spin Scale   =       1.2000000000000000 [-]
	 SCS Same-Spin Energy      =      -0.1112270174442062 [Eh]
	 SCS Opposite-Spin Energy  =      -1.3093495609259838 [Eh]
	 SCS Correlation Energy    =      -1.4205765783701900 [Eh]
	 SCS Total Energy          =    -325.4526126971392159 [Eh]
	-----------------------------------------------------------

  Dipole Moment: [D]
     X:    -4.2348      Y:    -0.5737      Z:     0.1545     Total:     4.2762

*** Psi4 exiting successfully. Buy a developer a beer!
