                               Psi4 1.3.2 release

  ==> Input File <==

--------------------------------------------------------------------------
#psi4
#
memory 32 gb

molecule  {
0 1
  O        2.3713340    -0.0431960     0.0348750
  N        0.3955610    -1.1626000    -0.0589710
  C       -1.7488560    -0.0105870    -0.3076690
  C       -1.0919897     1.3609302     0.2818359
  C       -1.0433070    -1.2763970     0.1538630
  C        0.3725010     1.2935890    -0.1457680
  C        1.1404240    -0.0102390    -0.0198870
  H       -2.8074580    -0.0696450    -0.0318610
  H       -1.6959720     0.0599610    -1.4006240
  H       -1.1144190     1.1154600     1.4138390
  H       -1.6138590     2.1267960     0.0620980
  H       -1.2653590    -1.4521000     1.2170140
  H       -1.4050610    -2.1469230    -0.4038060
  H        0.9414700     2.0498950     0.4019050
  H        0.4084350     1.5789030    -1.2051520
  H        0.9624730    -1.9950670     0.0738380
units angstrom
no_reorient  #important for SAPT in psi4, default
symmetry c1  #important for SAPT in psi4, default
}

set PROPERTIES_ORIGIN ["COM"]
properties('MP2/aug-cc-pvtz', properties = ['dipole'])
--------------------------------------------------------------------------

    Molecular point group: c1
  Charge       = 0
  Multiplicity = 1
  Basis Set: AUG-CC-PVTZ
    Blend: AUG-CC-PVTZ
  Basis Set: (AUG-CC-PVTZ AUX)
    Blend: AUG-CC-PVTZ-JKFIT

    Orbital Energies [Eh]
    ---------------------

    Doubly Occupied:

       1A    -20.512622     2A    -15.582178     3A    -11.350361
       4A    -11.280364     5A    -11.243949     6A    -11.240457
       7A    -11.239693     8A     -1.367335     9A     -1.230888
      10A     -1.079531    11A     -1.017064    12A     -0.899940
      13A     -0.851759    14A     -0.750984    15A     -0.690582
      16A     -0.662343    17A     -0.645910    18A     -0.614244
      19A     -0.599336    20A     -0.586761    21A     -0.566985
      22A     -0.517445    23A     -0.500927    24A     -0.478530
      25A     -0.452316    26A     -0.417859    27A     -0.386965

  @DF-RHF Final Energy:  -324.00189722799820

   => Energetics <=

    Nuclear Repulsion Energy =            311.6806418196709387
    One-Electron Energy =               -1057.8304202915701353
    Two-Electron Energy =                 422.1478812439010539
    Total Energy =                       -324.0018972279981995
  Basis Set: (AUG-CC-PVTZ AUX)
    Blend: AUG-CC-PVTZ-RI
    Molecular point group: c1

    Geometry (in Angstrom), charge = 0, multiplicity = 1:

       Center              X                  Y                   Z               Mass
    ------------   -----------------  -----------------  -----------------  -----------------
         O            2.296996659859    -0.049190450844     0.040842664801    15.994914619570
         N            0.321223659859    -1.168594450844    -0.053003335199    14.003074004430
         C           -1.823193340141    -0.016581450844    -0.301701335199    12.000000000000
         C           -1.166327040141     1.354935749156     0.287803564801    12.000000000000
         C           -1.117644340141    -1.282391450844     0.159830664801    12.000000000000
         C            0.298163659859     1.287594549156    -0.139800335199    12.000000000000
         C            1.066086659859    -0.016233450844    -0.013919335199    12.000000000000
         H           -2.881795340141    -0.075639450844    -0.025893335199     1.007825032230
         H           -1.770309340141     0.053966549156    -1.394656335199     1.007825032230
         H           -1.188756340141     1.109465549156     1.419806664801     1.007825032230
         H           -1.688196340141     2.120801549156     0.068065664801     1.007825032230
         H           -1.339696340141    -1.458094450844     1.222981664801     1.007825032230
         H           -1.479398340141    -2.152917450844    -0.397838335199     1.007825032230
         H            0.867132659859     2.043900549156     0.407872664801     1.007825032230
         H            0.334097659859     1.572908549156    -1.199184335199     1.007825032230
         H            0.888135659859    -2.001061450844     0.079805664801     1.007825032230

  Basis Set: AUG-CC-PVTZ
    Blend: AUG-CC-PVTZ
  Basis Set: (AUG-CC-PVTZ AUX)
    Blend: AUG-CC-PVTZ-JKFIT
	 Reference Energy          =    -324.0018972279981995 [Eh]
	 Singles Energy            =      -0.0000000000000000 [Eh]
	 Same-Spin Energy          =      -0.3337999060874756 [Eh]
	 Opposite-Spin Energy      =      -1.0924771809262845 [Eh]
	 Correlation Energy        =      -1.4262770870137602 [Eh]
	 Total Energy              =    -325.4281743150119723 [Eh]

	 ================> DF-SCS-MP2 Energies <==================
	-----------------------------------------------------------
	 SCS Same-Spin Scale       =       0.3333333333333333 [-]
	 SCS Opposite-Spin Scale   =       1.2000000000000000 [-]
	 SCS Same-Spin Energy      =      -0.1112666353624919 [Eh]
	 SCS Opposite-Spin Energy  =      -1.3109726171115414 [Eh]
	 SCS Correlation Energy    =      -1.4222392524740333 [Eh]
	 SCS Total Energy          =    -325.4241364804722139 [Eh]
	-----------------------------------------------------------

  Dipole Moment: [D]
     X:    -4.2059      Y:    -0.5903      Z:     0.1233     Total:     4.2489

*** Psi4 exiting successfully. Buy a developer a beer!
