                               Psi4 1.3.2 release

  ==> Input File <==

--------------------------------------------------------------------------
#psi4
#
memory 32 gb

molecule  {
0 1
  O        2.3713340    -0.0431960     0.0348750
  N        0.3955610    -1.1626000    -0.0589710
  C       -1.7488560    -0.0105870    -0.3076690
  C       -1.0851529     1.2578755     0.3081951
  C       -1.0433070    -1.2763970     0.1538630
  C        0.3725010     1.2935890    -0.1457680
  C        1.1404240    -0.0102390    -0.0198870
  H       -2.8074580    -0.0696450    -0.0318610
  H       -1.6959720     0.0599610    -1.4006240
  H       -1.1144190     1.1154600     1.4138390
  H       -1.6138590     2.1267960     0.0620980
  H       -1.2653590    -1.4521000     1.2170140
  H       -1.4050610    -2.1469230    -0.4038060
  H        0.9414700     2.0498950     0.4019050
  H        0.4084350     1.5789030    -1.2051520
  H        0.9624730    -1.9950670     0.0738380
units angstrom
no_reorient  #important for SAPT in psi4, default
symmetry c1  #important for SAPT in psi4, default
}

set PROPERTIES_ORIGIN ["COM"]
properties('MP2/aug-cc-pvtz', properties = ['dipole'])
--------------------------------------------------------------------------

    Molecular point group: c1
  Charge       = 0
  Multiplicity = 1
  Basis Set: AUG-CC-PVTZ
    Blend: AUG-CC-PVTZ
  Basis Set: (AUG-CC-PVTZ AUX)
    Blend: AUG-CC-PVTZ-JKFIT

    Orbital Energies [Eh]
    ---------------------

    Doubly Occupied:

       1A    -20.510836     2A    -15.581675     3A    -11.347355
       4A    -11.278883     5A    -11.241325     6A    -11.239303
       7A    -11.238441     8A     -1.365963     9A     -1.231261
      10A     -1.084720    11A     -1.017915    12A     -0.896963
      13A     -0.846320    14A     -0.752992    15A     -0.691782
      16A     -0.653161    17A     -0.641245    18A     -0.611719
      19A     -0.597282    20A     -0.588131    21A     -0.569545
      22A     -0.507709    23A     -0.499927    24A     -0.485074
      25A     -0.474964    26A     -0.413583    27A     -0.386719

  @DF-RHF Final Energy:  -324.02973791456196

   => Energetics <=

    Nuclear Repulsion Energy =            312.8853227299197215
    One-Electron Energy =               -1060.3205321353959789
    Two-Electron Energy =                 423.4054714909142945
    Total Energy =                       -324.0297379145619630
  Basis Set: (AUG-CC-PVTZ AUX)
    Blend: AUG-CC-PVTZ-RI
    Molecular point group: c1

    Geometry (in Angstrom), charge = 0, multiplicity = 1:

       Center              X                  Y                   Z               Mass
    ------------   -----------------  -----------------  -----------------  -----------------
         O            2.296168529108    -0.036707598327     0.037649816672    15.994914619570
         N            0.320395529108    -1.156111598327    -0.056196183328    14.003074004430
         C           -1.824021470892    -0.004098598327    -0.304894183328    12.000000000000
         C           -1.160318370892     1.264363901673     0.310969916672    12.000000000000
         C           -1.118472470892    -1.269908598327     0.156637816672    12.000000000000
         C            0.297335529108     1.300077401673    -0.142993183328    12.000000000000
         C            1.065258529108    -0.003750598327    -0.017112183328    12.000000000000
         H           -2.882623470892    -0.063156598327    -0.029086183328     1.007825032230
         H           -1.771137470892     0.066449401673    -1.397849183328     1.007825032230
         H           -1.189584470892     1.121948401673     1.416613816672     1.007825032230
         H           -1.689024470892     2.133284401673     0.064872816672     1.007825032230
         H           -1.340524470892    -1.445611598327     1.219788816672     1.007825032230
         H           -1.480226470892    -2.140434598327    -0.401031183328     1.007825032230
         H            0.866304529108     2.056383401673     0.404679816672     1.007825032230
         H            0.333269529108     1.585391401673    -1.202377183328     1.007825032230
         H            0.887307529108    -1.988578598327     0.076612816672     1.007825032230

  Basis Set: AUG-CC-PVTZ
    Blend: AUG-CC-PVTZ
  Basis Set: (AUG-CC-PVTZ AUX)
    Blend: AUG-CC-PVTZ-JKFIT
	 Reference Energy          =    -324.0297379145619630 [Eh]
	 Singles Energy            =      -0.0000000000000000 [Eh]
	 Same-Spin Energy          =      -0.3336244175517747 [Eh]
	 Opposite-Spin Energy      =      -1.0911928283145884 [Eh]
	 Correlation Energy        =      -1.4248172458663633 [Eh]
	 Total Energy              =    -325.4545551604282991 [Eh]

	 ================> DF-SCS-MP2 Energies <==================
	-----------------------------------------------------------
	 SCS Same-Spin Scale       =       0.3333333333333333 [-]
	 SCS Opposite-Spin Scale   =       1.2000000000000000 [-]
	 SCS Same-Spin Energy      =      -0.1112081391839249 [Eh]
	 SCS Opposite-Spin Energy  =      -1.3094313939775060 [Eh]
	 SCS Correlation Energy    =      -1.4206395331614310 [Eh]
	 SCS Total Energy          =    -325.4503774477233833 [Eh]
	-----------------------------------------------------------

  Dipole Moment: [D]
     X:    -4.2333      Y:    -0.5715      Z:     0.1500     Total:     4.2743

*** Psi4 exiting successfully. Buy a developer a beer!
