                               Psi4 1.3.2 release

  ==> Input File <==

--------------------------------------------------------------------------
#psi4
#
memory 32 gb

molecule  {
0 1
  O        2.3713340    -0.0431960     0.0348750
  N        0.3955610    -1.1626000    -0.0589710
  C       -1.7488560    -0.0105870    -0.3076690
  C       -1.0790680     1.2063820     0.3205530
  C       -1.0433070    -1.2763970     0.1538630
  C        0.3725010     1.2935890    -0.1457680
  C        1.1796148    -0.0368153    -0.0125731
  H       -2.8074580    -0.0696450    -0.0318610
  H       -1.6959720     0.0599610    -1.4006240
  H       -1.1144190     1.1154600     1.4138390
  H       -1.6138590     2.1267960     0.0620980
  H       -1.2653590    -1.4521000     1.2170140
  H       -1.4050610    -2.1469230    -0.4038060
  H        0.9414700     2.0498950     0.4019050
  H        0.4084350     1.5789030    -1.2051520
  H        0.9624730    -1.9950670     0.0738380
units angstrom
no_reorient  #important for SAPT in psi4, default
symmetry c1  #important for SAPT in psi4, default
}

set PROPERTIES_ORIGIN ["COM"]
properties('MP2/aug-cc-pvtz', properties = ['dipole'])
--------------------------------------------------------------------------

    Molecular point group: c1
  Charge       = 0
  Multiplicity = 1
  Basis Set: AUG-CC-PVTZ
    Blend: AUG-CC-PVTZ
  Basis Set: (AUG-CC-PVTZ AUX)
    Blend: AUG-CC-PVTZ-JKFIT

    Orbital Energies [Eh]
    ---------------------

    Doubly Occupied:

       1A    -20.516058     2A    -15.578584     3A    -11.343345
       4A    -11.278128     5A    -11.238323     6A    -11.236986
       7A    -11.235337     8A     -1.391148     9A     -1.233890
      10A     -1.084184    11A     -1.012900    12A     -0.892275
      13A     -0.839724    14A     -0.750255    15A     -0.693700
      16A     -0.649646    17A     -0.644882    18A     -0.611349
      19A     -0.597133    20A     -0.588792    21A     -0.570057
      22A     -0.509710    23A     -0.499357    24A     -0.487941
      25A     -0.482478    26A     -0.407017    27A     -0.390313

  @DF-RHF Final Energy:  -324.03261334478447

   => Energetics <=

    Nuclear Repulsion Energy =            313.4975857937097317
    One-Electron Energy =               -1061.5333721066670023
    Two-Electron Energy =                 424.0031729681728052
    Total Energy =                       -324.0326133447844654
  Basis Set: (AUG-CC-PVTZ AUX)
    Blend: AUG-CC-PVTZ-RI
    Molecular point group: c1

    Geometry (in Angstrom), charge = 0, multiplicity = 1:

       Center              X                  Y                   Z               Mass
    ------------   -----------------  -----------------  -----------------  -----------------
         O            2.290684355308    -0.027251127157     0.035267002709    15.994914619570
         N            0.314911355308    -1.146655127157    -0.058578997291    14.003074004430
         C           -1.829505644692     0.005357872843    -0.307276997291    12.000000000000
         C           -1.159717644692     1.222326872843     0.320945002709    12.000000000000
         C           -1.123956644692    -1.260452127157     0.154255002709    12.000000000000
         C            0.291851355308     1.309533872843    -0.145375997291    12.000000000000
         C            1.098965155308    -0.020870427157    -0.012181097291    12.000000000000
         H           -2.888107644692    -0.053700127157    -0.031468997291     1.007825032230
         H           -1.776621644692     0.075905872843    -1.400231997291     1.007825032230
         H           -1.195068644692     1.131404872843     1.414231002709     1.007825032230
         H           -1.694508644692     2.142740872843     0.062490002709     1.007825032230
         H           -1.346008644692    -1.436155127157     1.217406002709     1.007825032230
         H           -1.485710644692    -2.130978127157    -0.403413997291     1.007825032230
         H            0.860820355308     2.065839872843     0.402297002709     1.007825032230
         H            0.327785355308     1.594847872843    -1.204759997291     1.007825032230
         H            0.881823355308    -1.979122127157     0.074230002709     1.007825032230

  Basis Set: AUG-CC-PVTZ
    Blend: AUG-CC-PVTZ
  Basis Set: (AUG-CC-PVTZ AUX)
    Blend: AUG-CC-PVTZ-JKFIT
	 Reference Energy          =    -324.0326133447844654 [Eh]
	 Singles Energy            =      -0.0000000000000000 [Eh]
	 Same-Spin Energy          =      -0.3328300600436734 [Eh]
	 Opposite-Spin Energy      =      -1.0893940143104937 [Eh]
	 Correlation Energy        =      -1.4222240743541672 [Eh]
	 Total Energy              =    -325.4548374191386415 [Eh]

	 ================> DF-SCS-MP2 Energies <==================
	-----------------------------------------------------------
	 SCS Same-Spin Scale       =       0.3333333333333333 [-]
	 SCS Opposite-Spin Scale   =       1.2000000000000000 [-]
	 SCS Same-Spin Energy      =      -0.1109433533478911 [Eh]
	 SCS Opposite-Spin Energy  =      -1.3072728171725922 [Eh]
	 SCS Correlation Energy    =      -1.4182161705204834 [Eh]
	 SCS Total Energy          =    -325.4508295153049744 [Eh]
	-----------------------------------------------------------

  Dipole Moment: [D]
     X:    -3.9638      Y:    -0.6701      Z:     0.1900     Total:     4.0246

*** Psi4 exiting successfully. Buy a developer a beer!
