                               Psi4 1.3.2 release

  ==> Input File <==

--------------------------------------------------------------------------
#psi4
#
memory 32 gb

molecule  {
0 1
  O        2.3713340    -0.0431960     0.0348750
  N        0.3560902    -1.1359183    -0.0640559
  C       -1.7488560    -0.0105870    -0.3076690
  C       -1.0790680     1.2063820     0.3205530
  C       -1.0433070    -1.2763970     0.1538630
  C        0.3725010     1.2935890    -0.1457680
  C        1.1404240    -0.0102390    -0.0198870
  H       -2.8074580    -0.0696450    -0.0318610
  H       -1.6959720     0.0599610    -1.4006240
  H       -1.1144190     1.1154600     1.4138390
  H       -1.6138590     2.1267960     0.0620980
  H       -1.2653590    -1.4521000     1.2170140
  H       -1.4050610    -2.1469230    -0.4038060
  H        0.9414700     2.0498950     0.4019050
  H        0.4084350     1.5789030    -1.2051520
  H        0.9624730    -1.9950670     0.0738380
units angstrom
no_reorient  #important for SAPT in psi4, default
symmetry c1  #important for SAPT in psi4, default
}

set PROPERTIES_ORIGIN ["COM"]
properties('MP2/aug-cc-pvtz', properties = ['dipole'])
--------------------------------------------------------------------------

    Molecular point group: c1
  Charge       = 0
  Multiplicity = 1
  Basis Set: AUG-CC-PVTZ
    Blend: AUG-CC-PVTZ
  Basis Set: (AUG-CC-PVTZ AUX)
    Blend: AUG-CC-PVTZ-JKFIT

    Orbital Energies [Eh]
    ---------------------

    Doubly Occupied:

       1A    -20.513367     2A    -15.585599     3A    -11.348060
       4A    -11.276277     5A    -11.239317     6A    -11.238570
       7A    -11.236790     8A     -1.366755     9A     -1.239563
      10A     -1.085449    11A     -1.020872    12A     -0.895934
      13A     -0.845227    14A     -0.747099    15A     -0.698441
      16A     -0.650153    17A     -0.641527    18A     -0.613346
      19A     -0.592399    20A     -0.587279    21A     -0.573222
      22A     -0.504938    23A     -0.496002    24A     -0.486850
      25A     -0.481809    26A     -0.411675    27A     -0.387232

  @DF-RHF Final Energy:  -324.02763103725914

   => Energetics <=

    Nuclear Repulsion Energy =            314.1449303413021994
    One-Electron Energy =               -1062.8176201493799908
    Two-Electron Energy =                 424.6450587708187072
    Total Energy =                       -324.0276310372591411
  Basis Set: (AUG-CC-PVTZ AUX)
    Blend: AUG-CC-PVTZ-RI
    Molecular point group: c1

    Geometry (in Angstrom), charge = 0, multiplicity = 1:

       Center              X                  Y                   Z               Mass
    ------------   -----------------  -----------------  -----------------  -----------------
         O            2.301010574261    -0.034241664224     0.036871661799    15.994914619570
         N            0.285766774261    -1.126963964224    -0.062059238201    14.003074004430
         C           -1.819179425739    -0.001632664224    -0.305672338201    12.000000000000
         C           -1.149391425739     1.215336335776     0.322549661799    12.000000000000
         C           -1.113630425739    -1.267442664224     0.155859661799    12.000000000000
         C            0.302177574261     1.302543335776    -0.143771338201    12.000000000000
         C            1.070100574261    -0.001284664224    -0.017890338201    12.000000000000
         H           -2.877781425739    -0.060690664224    -0.029864338201     1.007825032230
         H           -1.766295425739     0.068915335776    -1.398627338201     1.007825032230
         H           -1.184742425739     1.124414335776     1.415835661799     1.007825032230
         H           -1.684182425739     2.135750335776     0.064094661799     1.007825032230
         H           -1.335682425739    -1.443145664224     1.219010661799     1.007825032230
         H           -1.475384425739    -2.137968664224    -0.401809338201     1.007825032230
         H            0.871146574261     2.058849335776     0.403901661799     1.007825032230
         H            0.338111574261     1.587857335776    -1.203155338201     1.007825032230
         H            0.892149574261    -1.986112664224     0.075834661799     1.007825032230

  Basis Set: AUG-CC-PVTZ
    Blend: AUG-CC-PVTZ
  Basis Set: (AUG-CC-PVTZ AUX)
    Blend: AUG-CC-PVTZ-JKFIT
	 Reference Energy          =    -324.0276310372591411 [Eh]
	 Singles Energy            =      -0.0000000000000000 [Eh]
	 Same-Spin Energy          =      -0.3345655487360183 [Eh]
	 Opposite-Spin Energy      =      -1.0923192903810333 [Eh]
	 Correlation Energy        =      -1.4268848391170517 [Eh]
	 Total Energy              =    -325.4545158763762061 [Eh]

	 ================> DF-SCS-MP2 Energies <==================
	-----------------------------------------------------------
	 SCS Same-Spin Scale       =       0.3333333333333333 [-]
	 SCS Opposite-Spin Scale   =       1.2000000000000000 [-]
	 SCS Same-Spin Energy      =      -0.1115218495786728 [Eh]
	 SCS Opposite-Spin Energy  =      -1.3107831484572399 [Eh]
	 SCS Correlation Energy    =      -1.4223049980359126 [Eh]
	 SCS Total Energy          =    -325.4499360352950816 [Eh]
	-----------------------------------------------------------

  Dipole Moment: [D]
     X:    -4.1491      Y:    -0.6218      Z:     0.1600     Total:     4.1985

*** Psi4 exiting successfully. Buy a developer a beer!
