                               Psi4 1.3.2 release

  ==> Input File <==

--------------------------------------------------------------------------
#psi4
#
memory 32 gb

molecule  {
0 1
  O        2.3713340    -0.0431960     0.0348750
  N        0.3757091    -1.1494327    -0.0615198
  C       -1.7488560    -0.0105870    -0.3076690
  C       -1.0790680     1.2063820     0.3205530
  C       -1.0433070    -1.2763970     0.1538630
  C        0.3725010     1.2935890    -0.1457680
  C        1.1404240    -0.0102390    -0.0198870
  H       -2.8074580    -0.0696450    -0.0318610
  H       -1.6959720     0.0599610    -1.4006240
  H       -1.1144190     1.1154600     1.4138390
  H       -1.6138590     2.1267960     0.0620980
  H       -1.2653590    -1.4521000     1.2170140
  H       -1.4050610    -2.1469230    -0.4038060
  H        0.9414700     2.0498950     0.4019050
  H        0.4084350     1.5789030    -1.2051520
  H        0.9624730    -1.9950670     0.0738380
units angstrom
no_reorient  #important for SAPT in psi4, default
symmetry c1  #important for SAPT in psi4, default
}

set PROPERTIES_ORIGIN ["COM"]
properties('MP2/aug-cc-pvtz', properties = ['dipole'])
--------------------------------------------------------------------------

    Molecular point group: c1
  Charge       = 0
  Multiplicity = 1
  Basis Set: AUG-CC-PVTZ
    Blend: AUG-CC-PVTZ
  Basis Set: (AUG-CC-PVTZ AUX)
    Blend: AUG-CC-PVTZ-JKFIT

    Orbital Energies [Eh]
    ---------------------

    Doubly Occupied:

       1A    -20.511738     2A    -15.583632     3A    -11.347027
       4A    -11.277277     5A    -11.239778     6A    -11.239164
       7A    -11.237633     8A     -1.366087     9A     -1.235572
      10A     -1.086803    11A     -1.019710    12A     -0.896400
      13A     -0.844454    14A     -0.750762    15A     -0.695714
      16A     -0.650481    17A     -0.640180    18A     -0.613022
      19A     -0.593088    20A     -0.588512    21A     -0.572081
      22A     -0.504866    23A     -0.496514    24A     -0.487170
      25A     -0.482923    26A     -0.411358    27A     -0.386990

  @DF-RHF Final Energy:  -324.03091888158616

   => Energetics <=

    Nuclear Repulsion Energy =            313.8286804066582363
    One-Electron Energy =               -1062.2013282240152421
    Two-Electron Energy =                 424.3417289357708455
    Total Energy =                       -324.0309188815861603
  Basis Set: (AUG-CC-PVTZ AUX)
    Blend: AUG-CC-PVTZ-RI
    Molecular point group: c1

    Geometry (in Angstrom), charge = 0, multiplicity = 1:

       Center              X                  Y                   Z               Mass
    ------------   -----------------  -----------------  -----------------  -----------------
         O            2.298237491522    -0.032331437384     0.036513190370    15.994914619570
         N            0.302612591522    -1.138568137384    -0.059881609630    14.003074004430
         C           -1.821952508478     0.000277562616    -0.306030809630    12.000000000000
         C           -1.152164508478     1.217246562616     0.322191190370    12.000000000000
         C           -1.116403508478    -1.265532437384     0.155501190370    12.000000000000
         C            0.299404491522     1.304453562616    -0.144129809630    12.000000000000
         C            1.067327491522     0.000625562616    -0.018248809630    12.000000000000
         H           -2.880554508478    -0.058780437384    -0.030222809630     1.007825032230
         H           -1.769068508478     0.070825562616    -1.398985809630     1.007825032230
         H           -1.187515508478     1.126324562616     1.415477190370     1.007825032230
         H           -1.686955508478     2.137660562616     0.063736190370     1.007825032230
         H           -1.338455508478    -1.441235437384     1.218652190370     1.007825032230
         H           -1.478157508478    -2.136058437384    -0.402167809630     1.007825032230
         H            0.868373491522     2.060759562616     0.403543190370     1.007825032230
         H            0.335338491522     1.589767562616    -1.203513809630     1.007825032230
         H            0.889376491522    -1.984202437384     0.075476190370     1.007825032230

  Basis Set: AUG-CC-PVTZ
    Blend: AUG-CC-PVTZ
  Basis Set: (AUG-CC-PVTZ AUX)
    Blend: AUG-CC-PVTZ-JKFIT
	 Reference Energy          =    -324.0309188815861603 [Eh]
	 Singles Energy            =      -0.0000000000000000 [Eh]
	 Same-Spin Energy          =      -0.3341511044738594 [Eh]
	 Opposite-Spin Energy      =      -1.0916855370801986 [Eh]
	 Correlation Energy        =      -1.4258366415540580 [Eh]
	 Total Energy              =    -325.4567555231402025 [Eh]

	 ================> DF-SCS-MP2 Energies <==================
	-----------------------------------------------------------
	 SCS Same-Spin Scale       =       0.3333333333333333 [-]
	 SCS Opposite-Spin Scale   =       1.2000000000000000 [-]
	 SCS Same-Spin Energy      =      -0.1113837014912865 [Eh]
	 SCS Opposite-Spin Energy  =      -1.3100226444962382 [Eh]
	 SCS Correlation Energy    =      -1.4214063459875246 [Eh]
	 SCS Total Energy          =    -325.4523252275736809 [Eh]
	-----------------------------------------------------------

  Dipole Moment: [D]
     X:    -4.1914      Y:    -0.6017      Z:     0.1593     Total:     4.2374

*** Psi4 exiting successfully. Buy a developer a beer!
