                               Psi4 1.3.2 release

  ==> Input File <==

--------------------------------------------------------------------------
#psi4
#
memory 32 gb

molecule  {
0 1
  O        2.3713340    -0.0431960     0.0348750
  N        0.3955610    -1.1626000    -0.0589710
  C       -1.7488560    -0.0105870    -0.3076690
  C       -1.0790680     1.2063820     0.3205530
  C       -1.2405516    -1.2919967     0.1830390
  C        0.3725010     1.2935890    -0.1457680
  C        1.1404240    -0.0102390    -0.0198870
  H       -2.8074580    -0.0696450    -0.0318610
  H       -1.6959720     0.0599610    -1.4006240
  H       -1.1144190     1.1154600     1.4138390
  H       -1.6138590     2.1267960     0.0620980
  H       -1.2653590    -1.4521000     1.2170140
  H       -1.4050610    -2.1469230    -0.4038060
  H        0.9414700     2.0498950     0.4019050
  H        0.4084350     1.5789030    -1.2051520
  H        0.9624730    -1.9950670     0.0738380
units angstrom
no_reorient  #important for SAPT in psi4, default
symmetry c1  #important for SAPT in psi4, default
}

set PROPERTIES_ORIGIN ["COM"]
properties('MP2/aug-cc-pvtz', properties = ['dipole'])
--------------------------------------------------------------------------

    Molecular point group: c1
  Charge       = 0
  Multiplicity = 1
  Basis Set: AUG-CC-PVTZ
    Blend: AUG-CC-PVTZ
  Basis Set: (AUG-CC-PVTZ AUX)
    Blend: AUG-CC-PVTZ-JKFIT

    Orbital Energies [Eh]
    ---------------------

    Doubly Occupied:

       1A    -20.500155     2A    -15.568289     3A    -11.336205
       4A    -11.288911     5A    -11.243598     6A    -11.242944
       7A    -11.235258     8A     -1.354056     9A     -1.195864
      10A     -1.090053    11A     -1.029449    12A     -0.901609
      13A     -0.838071    14A     -0.748431    15A     -0.675925
      16A     -0.659348    17A     -0.634480    18A     -0.620540
      19A     -0.587229    20A     -0.582448    21A     -0.562260
      22A     -0.514546    23A     -0.502147    24A     -0.485357
      25A     -0.474571    26A     -0.401576    27A     -0.381438

  @DF-RHF Final Energy:  -324.00342245300044

   => Energetics <=

    Nuclear Repulsion Energy =            311.2489687168771297
    One-Electron Energy =               -1057.1952652686509282
    Two-Electron Energy =                 421.9428740987733590
    Total Energy =                       -324.0034224530004394
  Basis Set: (AUG-CC-PVTZ AUX)
    Blend: AUG-CC-PVTZ-RI
    Molecular point group: c1

    Geometry (in Angstrom), charge = 0, multiplicity = 1:

       Center              X                  Y                   Z               Mass
    ------------   -----------------  -----------------  -----------------  -----------------
         O            2.319323400670    -0.028580705322     0.032618881177    15.994914619570
         N            0.343550400670    -1.147984705322    -0.061227118823    14.003074004430
         C           -1.800866599330     0.004028294678    -0.309925118823    12.000000000000
         C           -1.131078599330     1.220997294678     0.318296881177    12.000000000000
         C           -1.292562199330    -1.277381405322     0.180782881177    12.000000000000
         C            0.320490400670     1.308204294678    -0.148024118823    12.000000000000
         C            1.088413400670     0.004376294678    -0.022143118823    12.000000000000
         H           -2.859468599330    -0.055029705322    -0.034117118823     1.007825032230
         H           -1.747982599330     0.074576294678    -1.402880118823     1.007825032230
         H           -1.166429599330     1.130075294678     1.411582881177     1.007825032230
         H           -1.665869599330     2.141411294678     0.059841881177     1.007825032230
         H           -1.317369599330    -1.437484705322     1.214757881177     1.007825032230
         H           -1.457071599330    -2.132307705322    -0.406062118823     1.007825032230
         H            0.889459400670     2.064510294678     0.399648881177     1.007825032230
         H            0.356424400670     1.593518294678    -1.207408118823     1.007825032230
         H            0.910462400670    -1.980451705322     0.071581881177     1.007825032230

  Basis Set: AUG-CC-PVTZ
    Blend: AUG-CC-PVTZ
  Basis Set: (AUG-CC-PVTZ AUX)
    Blend: AUG-CC-PVTZ-JKFIT
	 Reference Energy          =    -324.0034224530004394 [Eh]
	 Singles Energy            =      -0.0000000000000000 [Eh]
	 Same-Spin Energy          =      -0.3345016435001004 [Eh]
	 Opposite-Spin Energy      =      -1.0935601117888627 [Eh]
	 Correlation Energy        =      -1.4280617552889630 [Eh]
	 Total Energy              =    -325.4314842082894188 [Eh]

	 ================> DF-SCS-MP2 Energies <==================
	-----------------------------------------------------------
	 SCS Same-Spin Scale       =       0.3333333333333333 [-]
	 SCS Opposite-Spin Scale   =       1.2000000000000000 [-]
	 SCS Same-Spin Energy      =      -0.1115005478333668 [Eh]
	 SCS Opposite-Spin Energy  =      -1.3122721341466352 [Eh]
	 SCS Correlation Energy    =      -1.4237726819800021 [Eh]
	 SCS Total Energy          =    -325.4271951349804226 [Eh]
	-----------------------------------------------------------

  Dipole Moment: [D]
     X:    -4.8096      Y:    -0.6646      Z:     0.2579     Total:     4.8621

*** Psi4 exiting successfully. Buy a developer a beer!
