                               Psi4 1.4a3.dev225

  ==> Input File <==

--------------------------------------------------------------------------
#psi4
#
memory 32 gb

molecule  {
0 1
  O        2.3713340    -0.0431960     0.0348750
  N        0.3955610    -1.1626000    -0.0589710
  C       -1.7488560    -0.0105870    -0.3076690
  C       -1.0790680     1.2063820     0.3205530
  C       -1.0235825    -1.2748370     0.1509454
  C        0.3725010     1.2935890    -0.1457680
  C        1.1404240    -0.0102390    -0.0198870
  H       -2.8074580    -0.0696450    -0.0318610
  H       -1.6959720     0.0599610    -1.4006240
  H       -1.1144190     1.1154600     1.4138390
  H       -1.6138590     2.1267960     0.0620980
  H       -1.2653590    -1.4521000     1.2170140
  H       -1.4050610    -2.1469230    -0.4038060
  H        0.9414700     2.0498950     0.4019050
  H        0.4084350     1.5789030    -1.2051520
  H        0.9624730    -1.9950670     0.0738380
units angstrom
no_reorient  #important for SAPT in psi4, default
symmetry c1  #important for SAPT in psi4, default
}

set PROPERTIES_ORIGIN ["COM"]
properties('MP2/aug-cc-pvtz', properties = ['dipole'])
--------------------------------------------------------------------------

    Molecular point group: c1
  Charge       = 0
  Multiplicity = 1
  Basis Set: AUG-CC-PVTZ
    Blend: AUG-CC-PVTZ
  Basis Set: (AUG-CC-PVTZ AUX)
    Blend: AUG-CC-PVTZ-JKFIT

    Orbital Energies [Eh]
    ---------------------

    Doubly Occupied:

       1A    -20.511171     2A    -15.582500     3A    -11.347061
       4A    -11.277986     5A    -11.240319     6A    -11.239526
       7A    -11.238794     8A     -1.366766     9A     -1.236542
      10A     -1.088199    11A     -1.017548    12A     -0.896690
      13A     -0.844901    14A     -0.755549    15A     -0.695553
      16A     -0.651360    17A     -0.639172    18A     -0.611829
      19A     -0.595654    20A     -0.589868    21A     -0.570676
      22A     -0.504686    23A     -0.496719    24A     -0.487532
      25A     -0.482211    26A     -0.411608    27A     -0.386393

  @DF-RHF Final Energy:  -324.03226536196053

   => Energetics <=

    Nuclear Repulsion Energy =            313.7619419616123082
    One-Electron Energy =               -1062.0547897982660288
    Two-Electron Energy =                 424.2605824746931376
    Total Energy =                       -324.0322653619605262
  Basis Set: (AUG-CC-PVTZ AUX)
    Blend: AUG-CC-PVTZ-RI
    Molecular point group: c1

    Geometry (in Angstrom), charge = 0, multiplicity = 1:

       Center              X                  Y                   Z               Mass
    ------------   -----------------  -----------------  -----------------  -----------------
         O            2.293042277382    -0.030659232593     0.036506328091    15.994914619570
         N            0.317269277382    -1.150063232593    -0.057339671909    14.003074004430
         C           -1.827147722618     0.001949767407    -0.306037671909    12.000000000000
         C           -1.157359722618     1.218918767407     0.322184328091    12.000000000000
         C           -1.101874222618    -1.262300232593     0.152576728091    12.000000000000
         C            0.294209277382     1.306125767407    -0.144136671909    12.000000000000
         C            1.062132277382     0.002297767407    -0.018255671909    12.000000000000
         H           -2.885749722618    -0.057108232593    -0.030229671909     1.007825032230
         H           -1.774263722618     0.072497767407    -1.398992671909     1.007825032230
         H           -1.192710722618     1.127996767407     1.415470328091     1.007825032230
         H           -1.692150722618     2.139332767407     0.063729328091     1.007825032230
         H           -1.343650722618    -1.439563232593     1.218645328091     1.007825032230
         H           -1.483352722618    -2.134386232593    -0.402174671909     1.007825032230
         H            0.863178277382     2.062431767407     0.403536328091     1.007825032230
         H            0.330143277382     1.591439767407    -1.203520671909     1.007825032230
         H            0.884181277382    -1.982530232593     0.075469328091     1.007825032230

  Basis Set: AUG-CC-PVTZ
    Blend: AUG-CC-PVTZ
  Basis Set: (AUG-CC-PVTZ AUX)
    Blend: AUG-CC-PVTZ-JKFIT
	 Reference Energy          =    -324.0322653619605262 [Eh]
	 Singles Energy            =      -0.0000000000000000 [Eh]
	 Same-Spin Energy          =      -0.3338454138570472 [Eh]
	 Opposite-Spin Energy      =      -1.0911479555913404 [Eh]
	 Correlation Energy        =      -1.4249933694483876 [Eh]
	 Total Energy              =    -325.4572587314088992 [Eh]

	 ================> DF-SCS-MP2 Energies <==================
	-----------------------------------------------------------
	 SCS Same-Spin Scale       =       0.3333333333333333 [-]
	 SCS Opposite-Spin Scale   =       1.2000000000000000 [-]
	 SCS Same-Spin Energy      =      -0.1112818046190157 [Eh]
	 SCS Opposite-Spin Energy  =      -1.3093775467096085 [Eh]
	 SCS Correlation Energy    =      -1.4206593513286243 [Eh]
	 SCS Total Energy          =    -325.4529247132891783 [Eh]
	-----------------------------------------------------------

  Dipole Moment: [D]
     X:    -4.1722      Y:    -0.5640      Z:     0.1441     Total:     4.2126

*** Psi4 exiting successfully. Buy a developer a beer!
