                               Psi4 1.3.2 release

  ==> Input File <==

--------------------------------------------------------------------------
#psi4
#
memory 32 gb

molecule  {
0 1
  O        2.3713340    -0.0431960     0.0348750
  N        0.3955610    -1.1626000    -0.0589710
  C       -1.7488560    -0.0105870    -0.3076690
  C       -1.0790680     1.2063820     0.3205530
  C       -1.0186722    -1.4234197     0.1870101
  C        0.3725010     1.2935890    -0.1457680
  C        1.1404240    -0.0102390    -0.0198870
  H       -2.8074580    -0.0696450    -0.0318610
  H       -1.6959720     0.0599610    -1.4006240
  H       -1.1144190     1.1154600     1.4138390
  H       -1.6138590     2.1267960     0.0620980
  H       -1.2653590    -1.4521000     1.2170140
  H       -1.4050610    -2.1469230    -0.4038060
  H        0.9414700     2.0498950     0.4019050
  H        0.4084350     1.5789030    -1.2051520
  H        0.9624730    -1.9950670     0.0738380
units angstrom
no_reorient  #important for SAPT in psi4, default
symmetry c1  #important for SAPT in psi4, default
}

set PROPERTIES_ORIGIN ["COM"]
properties('MP2/aug-cc-pvtz', properties = ['dipole'])
--------------------------------------------------------------------------

    Molecular point group: c1
  Charge       = 0
  Multiplicity = 1
  Basis Set: AUG-CC-PVTZ
    Blend: AUG-CC-PVTZ
  Basis Set: (AUG-CC-PVTZ AUX)
    Blend: AUG-CC-PVTZ-JKFIT

    Orbital Energies [Eh]
    ---------------------

    Doubly Occupied:

       1A    -20.511634     2A    -15.581593     3A    -11.349160
       4A    -11.275568     5A    -11.244160     6A    -11.239637
       7A    -11.237809     8A     -1.366237     9A     -1.228477
      10A     -1.081106    11A     -1.009644    12A     -0.904094
      13A     -0.840813    14A     -0.753925    15A     -0.689173
      16A     -0.666059    17A     -0.645663    18A     -0.615807
      19A     -0.590000    20A     -0.588711    21A     -0.563363
      22A     -0.515169    23A     -0.490333    24A     -0.486501
      25A     -0.460183    26A     -0.410934    27A     -0.389872

  @DF-RHF Final Energy:  -324.01117844077629

   => Energetics <=

    Nuclear Repulsion Energy =            311.6345545200176161
    One-Electron Energy =               -1057.8202182628397168
    Two-Electron Energy =                 422.1744853020457526
    Total Energy =                       -324.0111784407762912
  Basis Set: (AUG-CC-PVTZ AUX)
    Blend: AUG-CC-PVTZ-RI
    Molecular point group: c1

    Geometry (in Angstrom), charge = 0, multiplicity = 1:

       Center              X                  Y                   Z               Mass
    ------------   -----------------  -----------------  -----------------  -----------------
         O            2.292447500523    -0.012661645577     0.032137868126    15.994914619570
         N            0.316674500523    -1.132065645577    -0.061708131874    14.003074004430
         C           -1.827742499477     0.019947354423    -0.310406131874    12.000000000000
         C           -1.157954499477     1.236916354423     0.317815868126    12.000000000000
         C           -1.097558699477    -1.392885345577     0.184272968126    12.000000000000
         C            0.293614500523     1.324123354423    -0.148505131874    12.000000000000
         C            1.061537500523     0.020295354423    -0.022624131874    12.000000000000
         H           -2.886344499477    -0.039110645577    -0.034598131874     1.007825032230
         H           -1.774858499477     0.090495354423    -1.403361131874     1.007825032230
         H           -1.193305499477     1.145994354423     1.411101868126     1.007825032230
         H           -1.692745499477     2.157330354423     0.059360868126     1.007825032230
         H           -1.344245499477    -1.421565645577     1.214276868126     1.007825032230
         H           -1.483947499477    -2.116388645577    -0.406543131874     1.007825032230
         H            0.862583500523     2.080429354423     0.399167868126     1.007825032230
         H            0.329548500523     1.609437354423    -1.207889131874     1.007825032230
         H            0.883586500523    -1.964532645577     0.071100868126     1.007825032230

  Basis Set: AUG-CC-PVTZ
    Blend: AUG-CC-PVTZ
  Basis Set: (AUG-CC-PVTZ AUX)
    Blend: AUG-CC-PVTZ-JKFIT
	 Reference Energy          =    -324.0111784407762912 [Eh]
	 Singles Energy            =      -0.0000000000000000 [Eh]
	 Same-Spin Energy          =      -0.3337444492807787 [Eh]
	 Opposite-Spin Energy      =      -1.0922966487565309 [Eh]
	 Correlation Energy        =      -1.4260410980373095 [Eh]
	 Total Energy              =    -325.4372195388136220 [Eh]

	 ================> DF-SCS-MP2 Energies <==================
	-----------------------------------------------------------
	 SCS Same-Spin Scale       =       0.3333333333333333 [-]
	 SCS Opposite-Spin Scale   =       1.2000000000000000 [-]
	 SCS Same-Spin Energy      =      -0.1112481497602596 [Eh]
	 SCS Opposite-Spin Energy  =      -1.3107559785078371 [Eh]
	 SCS Correlation Energy    =      -1.4220041282680966 [Eh]
	 SCS Total Energy          =    -325.4331825690443907 [Eh]
	-----------------------------------------------------------

  Dipole Moment: [D]
     X:    -4.1947      Y:    -0.6283      Z:     0.1964     Total:     4.2460

*** Psi4 exiting successfully. Buy a developer a beer!
