                               Psi4 1.3.2 release

  ==> Input File <==

--------------------------------------------------------------------------
#psi4
#
memory 32 gb

molecule  {
0 1
  O        2.3717878    -0.0217420     0.0333610
  N        0.3955610    -1.1626000    -0.0589710
  C       -1.7488560    -0.0105870    -0.3076690
  C       -1.0790680     1.2063820     0.3205530
  C       -1.0433070    -1.2763970     0.1538630
  C        0.3725010     1.2935890    -0.1457680
  C        1.1404240    -0.0102390    -0.0198870
  H       -2.8074580    -0.0696450    -0.0318610
  H       -1.6959720     0.0599610    -1.4006240
  H       -1.1144190     1.1154600     1.4138390
  H       -1.6138590     2.1267960     0.0620980
  H       -1.2653590    -1.4521000     1.2170140
  H       -1.4050610    -2.1469230    -0.4038060
  H        0.9414700     2.0498950     0.4019050
  H        0.4084350     1.5789030    -1.2051520
  H        0.9624730    -1.9950670     0.0738380
units angstrom
no_reorient  #important for SAPT in psi4, default
symmetry c1  #important for SAPT in psi4, default
}

set PROPERTIES_ORIGIN ["COM"]
properties('MP2/aug-cc-pvtz', properties = ['dipole'])
--------------------------------------------------------------------------

    Molecular point group: c1
  Charge       = 0
  Multiplicity = 1
  Basis Set: AUG-CC-PVTZ
    Blend: AUG-CC-PVTZ
  Basis Set: (AUG-CC-PVTZ AUX)
    Blend: AUG-CC-PVTZ-JKFIT

    Orbital Energies [Eh]
    ---------------------

    Doubly Occupied:

       1A    -20.510398     2A    -15.582741     3A    -11.346142
       4A    -11.278861     5A    -11.240283     6A    -11.239199
       7A    -11.237457     8A     -1.365268     9A     -1.232944
      10A     -1.088006    11A     -1.018478    12A     -0.896857
      13A     -0.843733    14A     -0.754910    15A     -0.693323
      16A     -0.650998    17A     -0.639101    18A     -0.612669
      19A     -0.594572    20A     -0.588543    21A     -0.570569
      22A     -0.504865    23A     -0.497188    24A     -0.487016
      25A     -0.483549    26A     -0.410401    27A     -0.387639

  @DF-RHF Final Energy:  -324.03255845441254

   => Energetics <=

    Nuclear Repulsion Energy =            313.5099787913191562
    One-Electron Energy =               -1061.5736512622245300
    Two-Electron Energy =                 424.0311140164928929
    Total Energy =                       -324.0325584544125377
  Basis Set: (AUG-CC-PVTZ AUX)
    Blend: AUG-CC-PVTZ-RI
    Molecular point group: c1

    Geometry (in Angstrom), charge = 0, multiplicity = 1:

       Center              X                  Y                   Z               Mass
    ------------   -----------------  -----------------  -----------------  -----------------
         O            2.295812007341    -0.012480089689     0.034883364004    15.994914619570
         N            0.319585207341    -1.153338089689    -0.057448635996    14.003074004430
         C           -1.824831792659    -0.001325089689    -0.306146635996    12.000000000000
         C           -1.155043792659     1.215643910311     0.322075364004    12.000000000000
         C           -1.119282792659    -1.267135089689     0.155385364004    12.000000000000
         C            0.296525207341     1.302850910311    -0.144245635996    12.000000000000
         C            1.064448207341    -0.000977089689    -0.018364635996    12.000000000000
         H           -2.883433792659    -0.060383089689    -0.030338635996     1.007825032230
         H           -1.771947792659     0.069222910311    -1.399101635996     1.007825032230
         H           -1.190394792659     1.124721910311     1.415361364004     1.007825032230
         H           -1.689834792659     2.136057910311     0.063620364004     1.007825032230
         H           -1.341334792659    -1.442838089689     1.218536364004     1.007825032230
         H           -1.481036792659    -2.137661089689    -0.402283635996     1.007825032230
         H            0.865494207341     2.059156910311     0.403427364004     1.007825032230
         H            0.332459207341     1.588164910311    -1.203629635996     1.007825032230
         H            0.886497207341    -1.985805089689     0.075360364004     1.007825032230

  Basis Set: AUG-CC-PVTZ
    Blend: AUG-CC-PVTZ
  Basis Set: (AUG-CC-PVTZ AUX)
    Blend: AUG-CC-PVTZ-JKFIT
	 Reference Energy          =    -324.0325584544125377 [Eh]
	 Singles Energy            =      -0.0000000000000000 [Eh]
	 Same-Spin Energy          =      -0.3337784931914193 [Eh]
	 Opposite-Spin Energy      =      -1.0911781215623875 [Eh]
	 Correlation Energy        =      -1.4249566147538069 [Eh]
	 Total Energy              =    -325.4575150691663339 [Eh]

	 ================> DF-SCS-MP2 Energies <==================
	-----------------------------------------------------------
	 SCS Same-Spin Scale       =       0.3333333333333333 [-]
	 SCS Opposite-Spin Scale   =       1.2000000000000000 [-]
	 SCS Same-Spin Energy      =      -0.1112594977304731 [Eh]
	 SCS Opposite-Spin Energy  =      -1.3094137458748649 [Eh]
	 SCS Correlation Energy    =      -1.4206732436053380 [Eh]
	 SCS Total Energy          =    -325.4532316980178734 [Eh]
	-----------------------------------------------------------

  Dipole Moment: [D]
     X:    -4.2308      Y:    -0.6389      Z:     0.1620     Total:     4.2818

*** Psi4 exiting successfully. Buy a developer a beer!
