                               Psi4 1.3.2 release

  ==> Input File <==

--------------------------------------------------------------------------
#psi4
#
memory 32 gb

molecule  {
0 1
  O        2.3660583    -0.1290635     0.0342041
  N        0.3955610    -1.1626000    -0.0589710
  C       -1.7488560    -0.0105870    -0.3076690
  C       -1.0790680     1.2063820     0.3205530
  C       -1.0433070    -1.2763970     0.1538630
  C        0.3725010     1.2935890    -0.1457680
  C        1.1404240    -0.0102390    -0.0198870
  H       -2.8074580    -0.0696450    -0.0318610
  H       -1.6959720     0.0599610    -1.4006240
  H       -1.1144190     1.1154600     1.4138390
  H       -1.6138590     2.1267960     0.0620980
  H       -1.2653590    -1.4521000     1.2170140
  H       -1.4050610    -2.1469230    -0.4038060
  H        0.9414700     2.0498950     0.4019050
  H        0.4084350     1.5789030    -1.2051520
  H        0.9624730    -1.9950670     0.0738380
units angstrom
no_reorient  #important for SAPT in psi4, default
symmetry c1  #important for SAPT in psi4, default
}

set PROPERTIES_ORIGIN ["COM"]
properties('MP2/aug-cc-pvtz', properties = ['dipole'])
--------------------------------------------------------------------------

    Molecular point group: c1
  Charge       = 0
  Multiplicity = 1
  Basis Set: AUG-CC-PVTZ
    Blend: AUG-CC-PVTZ
  Basis Set: (AUG-CC-PVTZ AUX)
    Blend: AUG-CC-PVTZ-JKFIT

    Orbital Energies [Eh]
    ---------------------

    Doubly Occupied:

       1A    -20.508985     2A    -15.577127     3A    -11.346061
       4A    -11.275876     5A    -11.242905     6A    -11.241742
       7A    -11.240048     8A     -1.366755     9A     -1.227130
      10A     -1.088968    11A     -1.019291    12A     -0.897436
      13A     -0.843470    14A     -0.754293    15A     -0.691731
      16A     -0.650597    17A     -0.638004    18A     -0.613289
      19A     -0.594178    20A     -0.589088    21A     -0.571861
      22A     -0.504434    23A     -0.496273    24A     -0.489410
      25A     -0.485043    26A     -0.412368    27A     -0.382877

  @DF-RHF Final Energy:  -324.03126866924401

   => Energetics <=

    Nuclear Repulsion Energy =            313.6161940470859690
    One-Electron Energy =               -1061.7964490723413746
    Two-Electron Energy =                 424.1489863560113918
    Total Energy =                       -324.0312686692440138
  Basis Set: (AUG-CC-PVTZ AUX)
    Blend: AUG-CC-PVTZ-RI
    Molecular point group: c1

    Geometry (in Angstrom), charge = 0, multiplicity = 1:

       Center              X                  Y                   Z               Mass
    ------------   -----------------  -----------------  -----------------  -----------------
         O            2.291007553576    -0.102474187729     0.035590342793    15.994914619570
         N            0.320510253576    -1.136010687729    -0.057584757207    14.003074004430
         C           -1.823906746424     0.016002312271    -0.306282757207    12.000000000000
         C           -1.154118746424     1.232971312271     0.321939242793    12.000000000000
         C           -1.118357746424    -1.249807687729     0.155249242793    12.000000000000
         C            0.297450253576     1.320178312271    -0.144381757207    12.000000000000
         C            1.065373253576     0.016350312271    -0.018500757207    12.000000000000
         H           -2.882508746424    -0.043055687729    -0.030474757207     1.007825032230
         H           -1.771022746424     0.086550312271    -1.399237757207     1.007825032230
         H           -1.189469746424     1.142049312271     1.415225242793     1.007825032230
         H           -1.688909746424     2.153385312271     0.063484242793     1.007825032230
         H           -1.340409746424    -1.425510687729     1.218400242793     1.007825032230
         H           -1.480111746424    -2.120333687729    -0.402419757207     1.007825032230
         H            0.866419253576     2.076484312271     0.403291242793     1.007825032230
         H            0.333384253576     1.605492312271    -1.203765757207     1.007825032230
         H            0.887422253576    -1.968477687729     0.075224242793     1.007825032230

  Basis Set: AUG-CC-PVTZ
    Blend: AUG-CC-PVTZ
  Basis Set: (AUG-CC-PVTZ AUX)
    Blend: AUG-CC-PVTZ-JKFIT
	 Reference Energy          =    -324.0312686692440138 [Eh]
	 Singles Energy            =      -0.0000000000000000 [Eh]
	 Same-Spin Energy          =      -0.3338378286559385 [Eh]
	 Opposite-Spin Energy      =      -1.0911932457793396 [Eh]
	 Correlation Energy        =      -1.4250310744352781 [Eh]
	 Total Energy              =    -325.4562997436792671 [Eh]

	 ================> DF-SCS-MP2 Energies <==================
	-----------------------------------------------------------
	 SCS Same-Spin Scale       =       0.3333333333333333 [-]
	 SCS Opposite-Spin Scale   =       1.2000000000000000 [-]
	 SCS Same-Spin Energy      =      -0.1112792762186462 [Eh]
	 SCS Opposite-Spin Energy  =      -1.3094318949352075 [Eh]
	 SCS Correlation Energy    =      -1.4207111711538536 [Eh]
	 SCS Total Energy          =    -325.4519798403978825 [Eh]
	-----------------------------------------------------------

  Dipole Moment: [D]
     X:    -4.2342      Y:    -0.3380      Z:     0.1548     Total:     4.2505

*** Psi4 exiting successfully. Buy a developer a beer!
