                               Psi4 1.3.2 release

  ==> Input File <==

--------------------------------------------------------------------------
#psi4
#
memory 32 gb

molecule  {
0 1
  O        2.3713340    -0.0431960     0.0348750
  N        0.3955610    -1.1626000    -0.0589710
  C       -1.7488560    -0.0105870    -0.3076690
  C       -1.1497110     1.2671414     0.2691567
  C       -1.0433070    -1.2763970     0.1538630
  C        0.3725010     1.2935890    -0.1457680
  C        1.1404240    -0.0102390    -0.0198870
  H       -2.8074580    -0.0696450    -0.0318610
  H       -1.6959720     0.0599610    -1.4006240
  H       -1.1144190     1.1154600     1.4138390
  H       -1.6138590     2.1267960     0.0620980
  H       -1.2653590    -1.4521000     1.2170140
  H       -1.4050610    -2.1469230    -0.4038060
  H        0.9414700     2.0498950     0.4019050
  H        0.4084350     1.5789030    -1.2051520
  H        0.9624730    -1.9950670     0.0738380
units angstrom
no_reorient  #important for SAPT in psi4, default
symmetry c1  #important for SAPT in psi4, default
}

set PROPERTIES_ORIGIN ["COM"]
properties('MP2/aug-cc-pvtz', properties = ['dipole'])
--------------------------------------------------------------------------

    Molecular point group: c1
  Charge       = 0
  Multiplicity = 1
  Basis Set: AUG-CC-PVTZ
    Blend: AUG-CC-PVTZ
  Basis Set: (AUG-CC-PVTZ AUX)
    Blend: AUG-CC-PVTZ-JKFIT

    Orbital Energies [Eh]
    ---------------------

    Doubly Occupied:

       1A    -20.511078     2A    -15.581783     3A    -11.348038
       4A    -11.280486     5A    -11.241199     6A    -11.240519
       7A    -11.240046     8A     -1.366077     9A     -1.231324
      10A     -1.084351    11A     -1.015551    12A     -0.902762
      13A     -0.846633    14A     -0.751120    15A     -0.692194
      16A     -0.658563    17A     -0.641426    18A     -0.608347
      19A     -0.602407    20A     -0.586913    21A     -0.568744
      22A     -0.512771    23A     -0.499113    24A     -0.481167
      25A     -0.468085    26A     -0.414872    27A     -0.386998

  @DF-RHF Final Energy:  -324.01946140016810

   => Energetics <=

    Nuclear Repulsion Energy =            312.4073597599012260
    One-Electron Energy =               -1059.3285095024496059
    Two-Electron Energy =                 422.9016883423802255
    Total Energy =                       -324.0194614001680975
  Basis Set: (AUG-CC-PVTZ AUX)
    Blend: AUG-CC-PVTZ-RI
    Molecular point group: c1

    Geometry (in Angstrom), charge = 0, multiplicity = 1:

       Center              X                  Y                   Z               Mass
    ------------   -----------------  -----------------  -----------------  -----------------
         O            2.303988349466    -0.037829962112     0.042378476206    15.994914619570
         N            0.328215349466    -1.157233962112    -0.051467523794    14.003074004430
         C           -1.816201650534    -0.005220962112    -0.300165523794    12.000000000000
         C           -1.217056650534     1.272507437888     0.276660176206    12.000000000000
         C           -1.110652650534    -1.271030962112     0.161366476206    12.000000000000
         C            0.305155349466     1.298955037888    -0.138264523794    12.000000000000
         C            1.073078349466    -0.004872962112    -0.012383523794    12.000000000000
         H           -2.874803650534    -0.064278962112    -0.024357523794     1.007825032230
         H           -1.763317650534     0.065327037888    -1.393120523794     1.007825032230
         H           -1.181764650534     1.120826037888     1.421342476206     1.007825032230
         H           -1.681204650534     2.132162037888     0.069601476206     1.007825032230
         H           -1.332704650534    -1.446733962112     1.224517476206     1.007825032230
         H           -1.472406650534    -2.141556962112    -0.396302523794     1.007825032230
         H            0.874124349466     2.055261037888     0.409408476206     1.007825032230
         H            0.341089349466     1.584269037888    -1.197648523794     1.007825032230
         H            0.895127349466    -1.989700962112     0.081341476206     1.007825032230

  Basis Set: AUG-CC-PVTZ
    Blend: AUG-CC-PVTZ
  Basis Set: (AUG-CC-PVTZ AUX)
    Blend: AUG-CC-PVTZ-JKFIT
	 Reference Energy          =    -324.0194614001680975 [Eh]
	 Singles Energy            =      -0.0000000000000000 [Eh]
	 Same-Spin Energy          =      -0.3336930377245162 [Eh]
	 Opposite-Spin Energy      =      -1.0916011246339847 [Eh]
	 Correlation Energy        =      -1.4252941623585009 [Eh]
	 Total Energy              =    -325.4447555625266091 [Eh]

	 ================> DF-SCS-MP2 Energies <==================
	-----------------------------------------------------------
	 SCS Same-Spin Scale       =       0.3333333333333333 [-]
	 SCS Opposite-Spin Scale   =       1.2000000000000000 [-]
	 SCS Same-Spin Energy      =      -0.1112310125748387 [Eh]
	 SCS Opposite-Spin Energy  =      -1.3099213495607815 [Eh]
	 SCS Correlation Energy    =      -1.4211523621356204 [Eh]
	 SCS Total Energy          =    -325.4406137623037125 [Eh]
	-----------------------------------------------------------

  Dipole Moment: [D]
     X:    -4.2415      Y:    -0.5802      Z:     0.1224     Total:     4.2828

*** Psi4 exiting successfully. Buy a developer a beer!
