                               Psi4 1.3.2 release

  ==> Input File <==

--------------------------------------------------------------------------
#psi4
#
memory 32 gb

molecule  {
0 1
  O        2.3713340    -0.0431960     0.0348750
  N        0.3955610    -1.1626000    -0.0589710
  C       -1.7488560    -0.0105870    -0.3076690
  C       -1.0872947     1.1678175     0.2846863
  C       -1.0433070    -1.2763970     0.1538630
  C        0.3725010     1.2935890    -0.1457680
  C        1.1404240    -0.0102390    -0.0198870
  H       -2.8074580    -0.0696450    -0.0318610
  H       -1.6959720     0.0599610    -1.4006240
  H       -1.1144190     1.1154600     1.4138390
  H       -1.6138590     2.1267960     0.0620980
  H       -1.2653590    -1.4521000     1.2170140
  H       -1.4050610    -2.1469230    -0.4038060
  H        0.9414700     2.0498950     0.4019050
  H        0.4084350     1.5789030    -1.2051520
  H        0.9624730    -1.9950670     0.0738380
units angstrom
no_reorient  #important for SAPT in psi4, default
symmetry c1  #important for SAPT in psi4, default
}

set PROPERTIES_ORIGIN ["COM"]
properties('MP2/aug-cc-pvtz', properties = ['dipole'])
--------------------------------------------------------------------------

    Molecular point group: c1
  Charge       = 0
  Multiplicity = 1
  Basis Set: AUG-CC-PVTZ
    Blend: AUG-CC-PVTZ
  Basis Set: (AUG-CC-PVTZ AUX)
    Blend: AUG-CC-PVTZ-JKFIT

    Orbital Energies [Eh]
    ---------------------

    Doubly Occupied:

       1A    -20.510021     2A    -15.581973     3A    -11.345861
       4A    -11.278651     5A    -11.242147     6A    -11.239054
       7A    -11.238683     8A     -1.365526     9A     -1.232914
      10A     -1.094283    11A     -1.019971    12A     -0.899645
      13A     -0.840429    14A     -0.754393    15A     -0.694973
      16A     -0.651849    17A     -0.638242    18A     -0.613734
      19A     -0.596602    20A     -0.587676    21A     -0.571888
      22A     -0.504411    23A     -0.499896    24A     -0.489262
      25A     -0.478517    26A     -0.409796    27A     -0.387024

  @DF-RHF Final Energy:  -324.02914163344298

   => Energetics <=

    Nuclear Repulsion Energy =            314.1575160387786809
    One-Electron Energy =               -1062.8384743820706717
    Two-Electron Energy =                 424.6518167098490153
    Total Energy =                       -324.0291416334429755
  Basis Set: (AUG-CC-PVTZ AUX)
    Blend: AUG-CC-PVTZ-RI
    Molecular point group: c1

    Geometry (in Angstrom), charge = 0, multiplicity = 1:

       Center              X                  Y                   Z               Mass
    ------------   -----------------  -----------------  -----------------  -----------------
         O            2.296427961948    -0.025799015487     0.040497400365    15.994914619570
         N            0.320654961948    -1.145203015487    -0.053348599635    14.003074004430
         C           -1.823762038052     0.006809984513    -0.302046599635    12.000000000000
         C           -1.162200738052     1.185214484513     0.290308700365    12.000000000000
         C           -1.118213038052    -1.259000015487     0.159485400365    12.000000000000
         C            0.297594961948     1.310985984513    -0.140145599635    12.000000000000
         C            1.065517961948     0.007157984513    -0.014264599635    12.000000000000
         H           -2.882364038052    -0.052248015487    -0.026238599635     1.007825032230
         H           -1.770878038052     0.077357984513    -1.395001599635     1.007825032230
         H           -1.189325038052     1.132856984513     1.419461400365     1.007825032230
         H           -1.688765038052     2.144192984513     0.067720400365     1.007825032230
         H           -1.340265038052    -1.434703015487     1.222636400365     1.007825032230
         H           -1.479967038052    -2.129526015487    -0.398183599635     1.007825032230
         H            0.866563961948     2.067291984513     0.407527400365     1.007825032230
         H            0.333528961948     1.596299984513    -1.199529599635     1.007825032230
         H            0.887566961948    -1.977670015487     0.079460400365     1.007825032230

  Basis Set: AUG-CC-PVTZ
    Blend: AUG-CC-PVTZ
  Basis Set: (AUG-CC-PVTZ AUX)
    Blend: AUG-CC-PVTZ-JKFIT
	 Reference Energy          =    -324.0291416334429755 [Eh]
	 Singles Energy            =      -0.0000000000000000 [Eh]
	 Same-Spin Energy          =      -0.3341825887044382 [Eh]
	 Opposite-Spin Energy      =      -1.0915935265980645 [Eh]
	 Correlation Energy        =      -1.4257761153025026 [Eh]
	 Total Energy              =    -325.4549177487454585 [Eh]

	 ================> DF-SCS-MP2 Energies <==================
	-----------------------------------------------------------
	 SCS Same-Spin Scale       =       0.3333333333333333 [-]
	 SCS Opposite-Spin Scale   =       1.2000000000000000 [-]
	 SCS Same-Spin Energy      =      -0.1113941962348127 [Eh]
	 SCS Opposite-Spin Energy  =      -1.3099122319176775 [Eh]
	 SCS Correlation Energy    =      -1.4213064281524903 [Eh]
	 SCS Total Energy          =    -325.4504480615954662 [Eh]
	-----------------------------------------------------------

  Dipole Moment: [D]
     X:    -4.2319      Y:    -0.5910      Z:     0.1366     Total:     4.2752

*** Psi4 exiting successfully. Buy a developer a beer!
