                               Psi4 1.3.2 release

  ==> Input File <==

--------------------------------------------------------------------------
#psi4
#
memory 32 gb

molecule  {
0 1
  O        2.3713340    -0.0431960     0.0348750
  N        0.3955610    -1.1626000    -0.0589710
  C       -1.7488560    -0.0105870    -0.3076690
  C       -1.0790680     1.2063820     0.3205530
  C       -1.0402908    -1.3010311     0.1595596
  C        0.3725010     1.2935890    -0.1457680
  C        1.1404240    -0.0102390    -0.0198870
  H       -2.8074580    -0.0696450    -0.0318610
  H       -1.6959720     0.0599610    -1.4006240
  H       -1.1144190     1.1154600     1.4138390
  H       -1.6138590     2.1267960     0.0620980
  H       -1.2653590    -1.4521000     1.2170140
  H       -1.4050610    -2.1469230    -0.4038060
  H        0.9414700     2.0498950     0.4019050
  H        0.4084350     1.5789030    -1.2051520
  H        0.9624730    -1.9950670     0.0738380
units angstrom
no_reorient  #important for SAPT in psi4, default
symmetry c1  #important for SAPT in psi4, default
}

set PROPERTIES_ORIGIN ["COM"]
properties('MP2/aug-cc-pvtz', properties = ['dipole'])
--------------------------------------------------------------------------

    Molecular point group: c1
  Charge       = 0
  Multiplicity = 1
  Basis Set: AUG-CC-PVTZ
    Blend: AUG-CC-PVTZ
  Basis Set: (AUG-CC-PVTZ AUX)
    Blend: AUG-CC-PVTZ-JKFIT

    Orbital Energies [Eh]
    ---------------------

    Doubly Occupied:

       1A    -20.510353     2A    -15.581474     3A    -11.346567
       4A    -11.277398     5A    -11.240978     6A    -11.239675
       7A    -11.238326     8A     -1.365561     9A     -1.231062
      10A     -1.086551    11A     -1.016924    12A     -0.898092
      13A     -0.843307    14A     -0.754374    15A     -0.692227
      16A     -0.652944    17A     -0.639709    18A     -0.613293
      19A     -0.593104    20A     -0.588733    21A     -0.569958
      22A     -0.506668    23A     -0.493737    24A     -0.487515
      25A     -0.482962    26A     -0.411066    27A     -0.387618

  @DF-RHF Final Energy:  -324.03216839724229

   => Energetics <=

    Nuclear Repulsion Energy =            313.1906268212933924
    One-Electron Energy =               -1060.9452372581947657
    Two-Electron Energy =                 423.7224420396591427
    Total Energy =                       -324.0321683972422875
  Basis Set: (AUG-CC-PVTZ AUX)
    Blend: AUG-CC-PVTZ-RI
    Molecular point group: c1

    Geometry (in Angstrom), charge = 0, multiplicity = 1:

       Center              X                  Y                   Z               Mass
    ------------   -----------------  -----------------  -----------------  -----------------
         O            2.295066127286    -0.027486382766     0.035462903695    15.994914619570
         N            0.319293127286    -1.146890382766    -0.058383096305    14.003074004430
         C           -1.825123872714     0.005122617234    -0.307081096305    12.000000000000
         C           -1.155335872714     1.222091617234     0.321140903695    12.000000000000
         C           -1.116558672714    -1.285321482766     0.160147503695    12.000000000000
         C            0.296233127286     1.309298617234    -0.145180096305    12.000000000000
         C            1.064156127286     0.005470617234    -0.019299096305    12.000000000000
         H           -2.883725872714    -0.053935382766    -0.031273096305     1.007825032230
         H           -1.772239872714     0.075670617234    -1.400036096305     1.007825032230
         H           -1.190686872714     1.131169617234     1.414426903695     1.007825032230
         H           -1.690126872714     2.142505617234     0.062685903695     1.007825032230
         H           -1.341626872714    -1.436390382766     1.217601903695     1.007825032230
         H           -1.481328872714    -2.131213382766    -0.403218096305     1.007825032230
         H            0.865202127286     2.065604617234     0.402492903695     1.007825032230
         H            0.332167127286     1.594612617234    -1.204564096305     1.007825032230
         H            0.886205127286    -1.979357382766     0.074425903695     1.007825032230

  Basis Set: AUG-CC-PVTZ
    Blend: AUG-CC-PVTZ
  Basis Set: (AUG-CC-PVTZ AUX)
    Blend: AUG-CC-PVTZ-JKFIT
	 Reference Energy          =    -324.0321683972422875 [Eh]
	 Singles Energy            =      -0.0000000000000000 [Eh]
	 Same-Spin Energy          =      -0.3336434913500965 [Eh]
	 Opposite-Spin Energy      =      -1.0910910836557743 [Eh]
	 Correlation Energy        =      -1.4247345750058709 [Eh]
	 Total Energy              =    -325.4569029722481446 [Eh]

	 ================> DF-SCS-MP2 Energies <==================
	-----------------------------------------------------------
	 SCS Same-Spin Scale       =       0.3333333333333333 [-]
	 SCS Opposite-Spin Scale   =       1.2000000000000000 [-]
	 SCS Same-Spin Energy      =      -0.1112144971166988 [Eh]
	 SCS Opposite-Spin Energy  =      -1.3093093003869292 [Eh]
	 SCS Correlation Energy    =      -1.4205237975036280 [Eh]
	 SCS Total Energy          =    -325.4526921947459073 [Eh]
	-----------------------------------------------------------

  Dipole Moment: [D]
     X:    -4.2296      Y:    -0.5941      Z:     0.1661     Total:     4.2744

*** Psi4 exiting successfully. Buy a developer a beer!
