                               Psi4 1.3.2 release

  ==> Input File <==

--------------------------------------------------------------------------
#psi4
#
memory 32 gb

molecule  {
0 1
  O        2.3713340    -0.0431960     0.0348750
  N        0.3955610    -1.1626000    -0.0589710
  C       -1.7488560    -0.0105870    -0.3076690
  C       -1.0449493     1.1737593     0.3451185
  C       -1.0433070    -1.2763970     0.1538630
  C        0.3725010     1.2935890    -0.1457680
  C        1.1404240    -0.0102390    -0.0198870
  H       -2.8074580    -0.0696450    -0.0318610
  H       -1.6959720     0.0599610    -1.4006240
  H       -1.1144190     1.1154600     1.4138390
  H       -1.6138590     2.1267960     0.0620980
  H       -1.2653590    -1.4521000     1.2170140
  H       -1.4050610    -2.1469230    -0.4038060
  H        0.9414700     2.0498950     0.4019050
  H        0.4084350     1.5789030    -1.2051520
  H        0.9624730    -1.9950670     0.0738380
units angstrom
no_reorient  #important for SAPT in psi4, default
symmetry c1  #important for SAPT in psi4, default
}

set PROPERTIES_ORIGIN ["COM"]
properties('MP2/aug-cc-pvtz', properties = ['dipole'])
--------------------------------------------------------------------------

    Molecular point group: c1
  Charge       = 0
  Multiplicity = 1
  Basis Set: AUG-CC-PVTZ
    Blend: AUG-CC-PVTZ
  Basis Set: (AUG-CC-PVTZ AUX)
    Blend: AUG-CC-PVTZ-JKFIT

    Orbital Energies [Eh]
    ---------------------

    Doubly Occupied:

       1A    -20.509835     2A    -15.581765     3A    -11.345304
       4A    -11.277510     5A    -11.240873     6A    -11.240203
       7A    -11.238172     8A     -1.365379     9A     -1.232408
      10A     -1.090715    11A     -1.020521    12A     -0.894988
      13A     -0.843271    14A     -0.757235    15A     -0.694083
      16A     -0.649598    17A     -0.637422    18A     -0.615084
      19A     -0.593895    20A     -0.586782    21A     -0.572052
      22A     -0.506654    23A     -0.496408    24A     -0.494094
      25A     -0.478680    26A     -0.408116    27A     -0.386780

  @DF-RHF Final Energy:  -324.02926722110294

   => Energetics <=

    Nuclear Repulsion Energy =            314.0902672763568830
    One-Electron Energy =               -1062.7234190017741184
    Two-Electron Energy =                 424.6038845043143510
    Total Energy =                       -324.0292672211029412
  Basis Set: (AUG-CC-PVTZ AUX)
    Blend: AUG-CC-PVTZ-RI
    Molecular point group: c1

    Geometry (in Angstrom), charge = 0, multiplicity = 1:

       Center              X                  Y                   Z               Mass
    ------------   -----------------  -----------------  -----------------  -----------------
         O            2.291298730744    -0.026518736306     0.033177343736    15.994914619570
         N            0.315525730744    -1.145922736306    -0.060668656264    14.003074004430
         C           -1.828891269256     0.006090263694    -0.309366656264    12.000000000000
         C           -1.124984569256     1.190436563694     0.343420843736    12.000000000000
         C           -1.123342269256    -1.259719736306     0.152165343736    12.000000000000
         C            0.292465730744     1.310266263694    -0.147465656264    12.000000000000
         C            1.060388730744     0.006438263694    -0.021584656264    12.000000000000
         H           -2.887493269256    -0.052967736306    -0.033558656264     1.007825032230
         H           -1.776007269256     0.076638263694    -1.402321656264     1.007825032230
         H           -1.194454269256     1.132137263694     1.412141343736     1.007825032230
         H           -1.693894269256     2.143473263694     0.060400343736     1.007825032230
         H           -1.345394269256    -1.435422736306     1.215316343736     1.007825032230
         H           -1.485096269256    -2.130245736306    -0.405503656264     1.007825032230
         H            0.861434730744     2.066572263694     0.400207343736     1.007825032230
         H            0.328399730744     1.595580263694    -1.206849656264     1.007825032230
         H            0.882437730744    -1.978389736306     0.072140343736     1.007825032230

  Basis Set: AUG-CC-PVTZ
    Blend: AUG-CC-PVTZ
  Basis Set: (AUG-CC-PVTZ AUX)
    Blend: AUG-CC-PVTZ-JKFIT
	 Reference Energy          =    -324.0292672211029412 [Eh]
	 Singles Energy            =      -0.0000000000000000 [Eh]
	 Same-Spin Energy          =      -0.3340193687032453 [Eh]
	 Opposite-Spin Energy      =      -1.0914830143931185 [Eh]
	 Correlation Energy        =      -1.4255023830963638 [Eh]
	 Total Energy              =    -325.4547696041993277 [Eh]

	 ================> DF-SCS-MP2 Energies <==================
	-----------------------------------------------------------
	 SCS Same-Spin Scale       =       0.3333333333333333 [-]
	 SCS Opposite-Spin Scale   =       1.2000000000000000 [-]
	 SCS Same-Spin Energy      =      -0.1113397895677484 [Eh]
	 SCS Opposite-Spin Energy  =      -1.3097796172717422 [Eh]
	 SCS Correlation Energy    =      -1.4211194068394906 [Eh]
	 SCS Total Energy          =    -325.4503866279424074 [Eh]
	-----------------------------------------------------------

  Dipole Moment: [D]
     X:    -4.2185      Y:    -0.5954      Z:     0.1692     Total:     4.2637

*** Psi4 exiting successfully. Buy a developer a beer!
