                               Psi4 1.3.2 release

  ==> Input File <==

--------------------------------------------------------------------------
#psi4
#
memory 32 gb

molecule  {
0 1
  O        2.3713340    -0.0431960     0.0348750
  N        0.3955610    -1.1626000    -0.0589710
  C       -1.7488560    -0.0105870    -0.3076690
  C       -1.0790680     1.2063820     0.3205530
  C       -1.0433070    -1.2763970     0.1538630
  C        0.3725010     1.2935890    -0.1457680
  C        1.0405585    -0.0075652    -0.0243299
  H       -2.8074580    -0.0696450    -0.0318610
  H       -1.6959720     0.0599610    -1.4006240
  H       -1.1144190     1.1154600     1.4138390
  H       -1.6138590     2.1267960     0.0620980
  H       -1.2653590    -1.4521000     1.2170140
  H       -1.4050610    -2.1469230    -0.4038060
  H        0.9414700     2.0498950     0.4019050
  H        0.4084350     1.5789030    -1.2051520
  H        0.9624730    -1.9950670     0.0738380
units angstrom
no_reorient  #important for SAPT in psi4, default
symmetry c1  #important for SAPT in psi4, default
}

set PROPERTIES_ORIGIN ["COM"]
properties('MP2/aug-cc-pvtz', properties = ['dipole'])
--------------------------------------------------------------------------

    Molecular point group: c1
  Charge       = 0
  Multiplicity = 1
  Basis Set: AUG-CC-PVTZ
    Blend: AUG-CC-PVTZ
  Basis Set: (AUG-CC-PVTZ AUX)
    Blend: AUG-CC-PVTZ-JKFIT

    Orbital Energies [Eh]
    ---------------------

    Doubly Occupied:

       1A    -20.490230     2A    -15.597127     3A    -11.347643
       4A    -11.284165     5A    -11.245904     6A    -11.243259
       7A    -11.242130     8A     -1.326347     9A     -1.226070
      10A     -1.098946    11A     -1.028669    12A     -0.907436
      13A     -0.855248    14A     -0.770219    15A     -0.698390
      16A     -0.658549    17A     -0.636107    18A     -0.616979
      19A     -0.603333    20A     -0.586080    21A     -0.556682
      22A     -0.500698    23A     -0.493529    24A     -0.488837
      25A     -0.478115    26A     -0.400356    27A     -0.377202

  @DF-RHF Final Energy:  -324.01123757455952

   => Energetics <=

    Nuclear Repulsion Energy =            313.9511989388468010
    One-Electron Energy =               -1062.4083751951409340
    Two-Electron Energy =                 424.4459386817346171
    Total Energy =                       -324.0112375745595159
  Basis Set: (AUG-CC-PVTZ AUX)
    Blend: AUG-CC-PVTZ-RI
    Molecular point group: c1

    Geometry (in Angstrom), charge = 0, multiplicity = 1:

       Center              X                  Y                   Z               Mass
    ------------   -----------------  -----------------  -----------------  -----------------
         O            2.307528024587    -0.030794145422     0.036691085263    15.994914619570
         N            0.331755024587    -1.150198145422    -0.057154914737    14.003074004430
         C           -1.812661975413     0.001814854578    -0.305852914737    12.000000000000
         C           -1.142873975413     1.218783854578     0.322369085263    12.000000000000
         C           -1.107112975413    -1.263995145422     0.155679085263    12.000000000000
         C            0.308695024587     1.305990854578    -0.143951914737    12.000000000000
         C            0.976752524587     0.004836654578    -0.022513814737    12.000000000000
         H           -2.871263975413    -0.057243145422    -0.030044914737     1.007825032230
         H           -1.759777975413     0.072362854578    -1.398807914737     1.007825032230
         H           -1.178224975413     1.127861854578     1.415655085263     1.007825032230
         H           -1.677664975413     2.139197854578     0.063914085263     1.007825032230
         H           -1.329164975413    -1.439698145422     1.218830085263     1.007825032230
         H           -1.468866975413    -2.134521145422    -0.401989914737     1.007825032230
         H            0.877664024587     2.062296854578     0.403721085263     1.007825032230
         H            0.344629024587     1.591304854578    -1.203335914737     1.007825032230
         H            0.898667024587    -1.982665145422     0.075654085263     1.007825032230

  Basis Set: AUG-CC-PVTZ
    Blend: AUG-CC-PVTZ
  Basis Set: (AUG-CC-PVTZ AUX)
    Blend: AUG-CC-PVTZ-JKFIT
	 Reference Energy          =    -324.0112375745595159 [Eh]
	 Singles Energy            =      -0.0000000000000000 [Eh]
	 Same-Spin Energy          =      -0.3361040012105220 [Eh]
	 Opposite-Spin Energy      =      -1.0954074217745839 [Eh]
	 Correlation Energy        =      -1.4315114229851060 [Eh]
	 Total Energy              =    -325.4427489975446406 [Eh]

	 ================> DF-SCS-MP2 Energies <==================
	-----------------------------------------------------------
	 SCS Same-Spin Scale       =       0.3333333333333333 [-]
	 SCS Opposite-Spin Scale   =       1.2000000000000000 [-]
	 SCS Same-Spin Energy      =      -0.1120346670701740 [Eh]
	 SCS Opposite-Spin Energy  =      -1.3144889061295006 [Eh]
	 SCS Correlation Energy    =      -1.4265235731996746 [Eh]
	 SCS Total Energy          =    -325.4377611477592041 [Eh]
	-----------------------------------------------------------

  Dipole Moment: [D]
     X:    -4.9868      Y:    -0.7283      Z:     0.0966     Total:     5.0406

*** Psi4 exiting successfully. Buy a developer a beer!
