                               Psi4 1.3.2 release

  ==> Input File <==

--------------------------------------------------------------------------
#psi4
#
memory 32 gb

molecule  {
0 1
  O        2.3713340    -0.0431960     0.0348750
  N        0.3955610    -1.1626000    -0.0589710
  C       -1.7488560    -0.0105870    -0.3076690
  C       -1.0712146     1.1549948     0.3323427
  C       -1.0433070    -1.2763970     0.1538630
  C        0.3725010     1.2935890    -0.1457680
  C        1.1404240    -0.0102390    -0.0198870
  H       -2.8074580    -0.0696450    -0.0318610
  H       -1.6959720     0.0599610    -1.4006240
  H       -1.1144190     1.1154600     1.4138390
  H       -1.6138590     2.1267960     0.0620980
  H       -1.2653590    -1.4521000     1.2170140
  H       -1.4050610    -2.1469230    -0.4038060
  H        0.9414700     2.0498950     0.4019050
  H        0.4084350     1.5789030    -1.2051520
  H        0.9624730    -1.9950670     0.0738380
units angstrom
no_reorient  #important for SAPT in psi4, default
symmetry c1  #important for SAPT in psi4, default
}

set PROPERTIES_ORIGIN ["COM"]
properties('MP2/aug-cc-pvtz', properties = ['dipole'])
--------------------------------------------------------------------------

    Molecular point group: c1
  Charge       = 0
  Multiplicity = 1
  Basis Set: AUG-CC-PVTZ
    Blend: AUG-CC-PVTZ
  Basis Set: (AUG-CC-PVTZ AUX)
    Blend: AUG-CC-PVTZ-JKFIT

    Orbital Energies [Eh]
    ---------------------

    Doubly Occupied:

       1A    -20.509616     2A    -15.581750     3A    -11.345062
       4A    -11.277865     5A    -11.241209     6A    -11.239246
       7A    -11.238950     8A     -1.365190     9A     -1.232682
      10A     -1.092251    11A     -1.019694    12A     -0.897594
      13A     -0.841384    14A     -0.756869    15A     -0.694680
      16A     -0.649530    17A     -0.637212    18A     -0.615182
      19A     -0.593309    20A     -0.587522    21A     -0.572216
      22A     -0.505850    23A     -0.497635    24A     -0.489427
      25A     -0.483065    26A     -0.407799    27A     -0.386851

  @DF-RHF Final Energy:  -324.02920373822946

   => Energetics <=

    Nuclear Repulsion Energy =            314.1742150027835123
    One-Electron Energy =               -1062.8875533667389846
    Two-Electron Energy =                 424.6841346257260170
    Total Energy =                       -324.0292037382294552
  Basis Set: (AUG-CC-PVTZ AUX)
    Blend: AUG-CC-PVTZ-RI
    Molecular point group: c1

    Geometry (in Angstrom), charge = 0, multiplicity = 1:

       Center              X                  Y                   Z               Mass
    ------------   -----------------  -----------------  -----------------  -----------------
         O            2.294480204915    -0.024245822154     0.034724856147    15.994914619570
         N            0.318707204915    -1.143649822154    -0.059121143853    14.003074004430
         C           -1.825709795085     0.008363177846    -0.307819143853    12.000000000000
         C           -1.148068395085     1.173944977846     0.332192556147    12.000000000000
         C           -1.120160795085    -1.257446822154     0.153712856147    12.000000000000
         C            0.295647204915     1.312539177846    -0.145918143853    12.000000000000
         C            1.063570204915     0.008711177846    -0.020037143853    12.000000000000
         H           -2.884311795085    -0.050694822154    -0.032011143853     1.007825032230
         H           -1.772825795085     0.078911177846    -1.400774143853     1.007825032230
         H           -1.191272795085     1.134410177846     1.413688856147     1.007825032230
         H           -1.690712795085     2.145746177846     0.061947856147     1.007825032230
         H           -1.342212795085    -1.433149822154     1.216863856147     1.007825032230
         H           -1.481914795085    -2.127972822154    -0.403956143853     1.007825032230
         H            0.864616204915     2.068845177846     0.401754856147     1.007825032230
         H            0.331581204915     1.597853177846    -1.205302143853     1.007825032230
         H            0.885619204915    -1.976116822154     0.073687856147     1.007825032230

  Basis Set: AUG-CC-PVTZ
    Blend: AUG-CC-PVTZ
  Basis Set: (AUG-CC-PVTZ AUX)
    Blend: AUG-CC-PVTZ-JKFIT
	 Reference Energy          =    -324.0292037382294552 [Eh]
	 Singles Energy            =      -0.0000000000000000 [Eh]
	 Same-Spin Energy          =      -0.3340876363091246 [Eh]
	 Opposite-Spin Energy      =      -1.0915053303729847 [Eh]
	 Correlation Energy        =      -1.4255929666821094 [Eh]
	 Total Energy              =    -325.4547967049115869 [Eh]

	 ================> DF-SCS-MP2 Energies <==================
	-----------------------------------------------------------
	 SCS Same-Spin Scale       =       0.3333333333333333 [-]
	 SCS Opposite-Spin Scale   =       1.2000000000000000 [-]
	 SCS Same-Spin Energy      =      -0.1113625454363749 [Eh]
	 SCS Opposite-Spin Energy  =      -1.3098063964475817 [Eh]
	 SCS Correlation Energy    =      -1.4211689418839566 [Eh]
	 SCS Total Energy          =    -325.4503726801133894 [Eh]
	-----------------------------------------------------------

  Dipole Moment: [D]
     X:    -4.2261      Y:    -0.5981      Z:     0.1637     Total:     4.2713

*** Psi4 exiting successfully. Buy a developer a beer!
