                               Psi4 1.4a3.dev225

  ==> Input File <==

--------------------------------------------------------------------------
#psi4
#
memory 32 gb

molecule  {
0 1
  O        2.3713340    -0.0431960     0.0348750
  N        0.3955610    -1.1626000    -0.0589710
  C       -1.7488560    -0.0105870    -0.3076690
  C       -1.0790680     1.2063820     0.3205530
  C       -1.0433070    -1.2763970     0.1538630
  C        0.3725010     1.2935890    -0.1457680
  C        1.1512766     0.0065508    -0.0193175
  H       -2.8074580    -0.0696450    -0.0318610
  H       -1.6959720     0.0599610    -1.4006240
  H       -1.1144190     1.1154600     1.4138390
  H       -1.6138590     2.1267960     0.0620980
  H       -1.2653590    -1.4521000     1.2170140
  H       -1.4050610    -2.1469230    -0.4038060
  H        0.9414700     2.0498950     0.4019050
  H        0.4084350     1.5789030    -1.2051520
  H        0.9624730    -1.9950670     0.0738380
units angstrom
no_reorient  #important for SAPT in psi4, default
symmetry c1  #important for SAPT in psi4, default
}

set PROPERTIES_ORIGIN ["COM"]
properties('MP2/aug-cc-pvtz', properties = ['dipole'])
--------------------------------------------------------------------------

    Molecular point group: c1
  Charge       = 0
  Multiplicity = 1
  Basis Set: AUG-CC-PVTZ
    Blend: AUG-CC-PVTZ
  Basis Set: (AUG-CC-PVTZ AUX)
    Blend: AUG-CC-PVTZ-JKFIT

    Orbital Energies [Eh]
    ---------------------

    Doubly Occupied:

       1A    -20.513836     2A    -15.577948     3A    -11.347132
       4A    -11.276076     5A    -11.240323     6A    -11.239183
       7A    -11.238818     8A     -1.372291     9A     -1.226680
      10A     -1.087269    11A     -1.018411    12A     -0.896284
      13A     -0.841697    14A     -0.752159    15A     -0.691355
      16A     -0.650384    17A     -0.639790    18A     -0.612929
      19A     -0.594103    20A     -0.589119    21A     -0.572715
      22A     -0.505342    23A     -0.497629    24A     -0.487929
      25A     -0.483572    26A     -0.413298    27A     -0.385346

  @DF-RHF Final Energy:  -324.03249599212904

   => Energetics <=

    Nuclear Repulsion Energy =            313.4403268484065848
    One-Electron Energy =               -1061.4424077912296980
    Two-Electron Energy =                 423.9695849506940704
    Total Energy =                       -324.0324959921290429
  Basis Set: (AUG-CC-PVTZ AUX)
    Blend: AUG-CC-PVTZ-RI
    Molecular point group: c1

    Geometry (in Angstrom), charge = 0, multiplicity = 1:

       Center              X                  Y                   Z               Mass
    ------------   -----------------  -----------------  -----------------  -----------------
         O            2.294116916571    -0.032503994135     0.036083941194    15.994914619570
         N            0.318343916571    -1.151907994135    -0.057762058806    14.003074004430
         C           -1.826073083429     0.000105005865    -0.306460058806    12.000000000000
         C           -1.156285083429     1.217074005865     0.321761941194    12.000000000000
         C           -1.120524083429    -1.265704994135     0.155071941194    12.000000000000
         C            0.295283916571     1.304281005865    -0.144559058806    12.000000000000
         C            1.074059516571     0.017242805865    -0.018108558806    12.000000000000
         H           -2.884675083429    -0.058952994135    -0.030652058806     1.007825032230
         H           -1.773189083429     0.070653005865    -1.399415058806     1.007825032230
         H           -1.191636083429     1.126152005865     1.415047941194     1.007825032230
         H           -1.691076083429     2.137488005865     0.063306941194     1.007825032230
         H           -1.342576083429    -1.441407994135     1.218222941194     1.007825032230
         H           -1.482278083429    -2.136230994135    -0.402597058806     1.007825032230
         H            0.864252916571     2.060587005865     0.403113941194     1.007825032230
         H            0.331217916571     1.589595005865    -1.203943058806     1.007825032230
         H            0.885255916571    -1.984374994135     0.075046941194     1.007825032230

  Basis Set: AUG-CC-PVTZ
    Blend: AUG-CC-PVTZ
  Basis Set: (AUG-CC-PVTZ AUX)
    Blend: AUG-CC-PVTZ-JKFIT
	 Reference Energy          =    -324.0324959921290429 [Eh]
	 Singles Energy            =      -0.0000000000000000 [Eh]
	 Same-Spin Energy          =      -0.3336711892012850 [Eh]
	 Opposite-Spin Energy      =      -1.0909729679126734 [Eh]
	 Correlation Energy        =      -1.4246441571139585 [Eh]
	 Total Energy              =    -325.4571401492430027 [Eh]

	 ================> DF-SCS-MP2 Energies <==================
	-----------------------------------------------------------
	 SCS Same-Spin Scale       =       0.3333333333333333 [-]
	 SCS Opposite-Spin Scale   =       1.2000000000000000 [-]
	 SCS Same-Spin Energy      =      -0.1112237297337617 [Eh]
	 SCS Opposite-Spin Energy  =      -1.3091675614952081 [Eh]
	 SCS Correlation Energy    =      -1.4203912912289698 [Eh]
	 SCS Total Energy          =    -325.4528872833579953 [Eh]
	-----------------------------------------------------------

  Dipole Moment: [D]
     X:    -4.1031      Y:    -0.4627      Z:     0.1629     Total:     4.1323

*** Psi4 exiting successfully. Buy a developer a beer!
