                               Psi4 1.4a3.dev225

  ==> Input File <==

--------------------------------------------------------------------------
#psi4
#
memory 32 gb

molecule  {
0 1
  O        2.3713340    -0.0431960     0.0348750
  N        0.3955610    -1.1626000    -0.0589710
  C       -1.7488560    -0.0105870    -0.3076690
  C       -1.0790680     1.2063820     0.3205530
  C       -1.0433070    -1.2763970     0.1538630
  C        0.3725010     1.2935890    -0.1457680
  C        1.1603971    -0.0107738    -0.0189984
  H       -2.8074580    -0.0696450    -0.0318610
  H       -1.6959720     0.0599610    -1.4006240
  H       -1.1144190     1.1154600     1.4138390
  H       -1.6138590     2.1267960     0.0620980
  H       -1.2653590    -1.4521000     1.2170140
  H       -1.4050610    -2.1469230    -0.4038060
  H        0.9414700     2.0498950     0.4019050
  H        0.4084350     1.5789030    -1.2051520
  H        0.9624730    -1.9950670     0.0738380
units angstrom
no_reorient  #important for SAPT in psi4, default
symmetry c1  #important for SAPT in psi4, default
}

set PROPERTIES_ORIGIN ["COM"]
properties('MP2/aug-cc-pvtz', properties = ['dipole'])
--------------------------------------------------------------------------

    Molecular point group: c1
  Charge       = 0
  Multiplicity = 1
  Basis Set: AUG-CC-PVTZ
    Blend: AUG-CC-PVTZ
  Basis Set: (AUG-CC-PVTZ AUX)
    Blend: AUG-CC-PVTZ-JKFIT

    Orbital Energies [Eh]
    ---------------------

    Doubly Occupied:

       1A    -20.514167     2A    -15.578504     3A    -11.345575
       4A    -11.277050     5A    -11.239359     6A    -11.238748
       7A    -11.237654     8A     -1.378187     9A     -1.229801
      10A     -1.086139    11A     -1.016413    12A     -0.894882
      13A     -0.841353    14A     -0.751724    15A     -0.692260
      16A     -0.650113    17A     -0.641288    18A     -0.612278
      19A     -0.595273    20A     -0.588780    21A     -0.571691
      22A     -0.506657    23A     -0.498108    24A     -0.488256
      25A     -0.483299    26A     -0.411199    27A     -0.387276

  @DF-RHF Final Energy:  -324.03347001849909

   => Energetics <=

    Nuclear Repulsion Energy =            313.4664346476733385
    One-Electron Energy =               -1061.4877408446595837
    Two-Electron Energy =                 423.9878361784871004
    Total Energy =                       -324.0334700184990879
  Basis Set: (AUG-CC-PVTZ AUX)
    Blend: AUG-CC-PVTZ-RI
    Molecular point group: c1

    Geometry (in Angstrom), charge = 0, multiplicity = 1:

       Center              X                  Y                   Z               Mass
    ------------   -----------------  -----------------  -----------------  -----------------
         O            2.293012164858    -0.030405492788     0.036045289116    15.994914619570
         N            0.317239164858    -1.149809492788    -0.057800710884    14.003074004430
         C           -1.827177835142     0.002203507212    -0.306498710884    12.000000000000
         C           -1.157389835142     1.219172507212     0.321723289116    12.000000000000
         C           -1.121628835142    -1.263606492788     0.155033289116    12.000000000000
         C            0.294179164858     1.306379507212    -0.144597710884    12.000000000000
         C            1.082075264858     0.002016707212    -0.017828110884    12.000000000000
         H           -2.885779835142    -0.056854492788    -0.030690710884     1.007825032230
         H           -1.774293835142     0.072751507212    -1.399453710884     1.007825032230
         H           -1.192740835142     1.128250507212     1.415009289116     1.007825032230
         H           -1.692180835142     2.139586507212     0.063268289116     1.007825032230
         H           -1.343680835142    -1.439309492788     1.218184289116     1.007825032230
         H           -1.483382835142    -2.134132492788    -0.402635710884     1.007825032230
         H            0.863148164858     2.062685507212     0.403075289116     1.007825032230
         H            0.330113164858     1.591693507212    -1.203981710884     1.007825032230
         H            0.884151164858    -1.982276492788     0.075008289116     1.007825032230

  Basis Set: AUG-CC-PVTZ
    Blend: AUG-CC-PVTZ
  Basis Set: (AUG-CC-PVTZ AUX)
    Blend: AUG-CC-PVTZ-JKFIT
	 Reference Energy          =    -324.0334700184990879 [Eh]
	 Singles Energy            =      -0.0000000000000000 [Eh]
	 Same-Spin Energy          =      -0.3333446710049209 [Eh]
	 Opposite-Spin Energy      =      -1.0903549995349171 [Eh]
	 Correlation Energy        =      -1.4236996705398379 [Eh]
	 Total Energy              =    -325.4571696890389489 [Eh]

	 ================> DF-SCS-MP2 Energies <==================
	-----------------------------------------------------------
	 SCS Same-Spin Scale       =       0.3333333333333333 [-]
	 SCS Opposite-Spin Scale   =       1.2000000000000000 [-]
	 SCS Same-Spin Energy      =      -0.1111148903349736 [Eh]
	 SCS Opposite-Spin Energy  =      -1.3084259994419005 [Eh]
	 SCS Correlation Energy    =      -1.4195408897768742 [Eh]
	 SCS Total Energy          =    -325.4530109082759850 [Eh]
	-----------------------------------------------------------

  Dipole Moment: [D]
     X:    -4.0700      Y:    -0.5476      Z:     0.1706     Total:     4.1102

*** Psi4 exiting successfully. Buy a developer a beer!
