                               Psi4 1.3.2 release

  ==> Input File <==

--------------------------------------------------------------------------
#psi4
#
memory 32 gb

molecule  {
0 1
  O        2.3680034     0.0857753     0.0353805
  N        0.3955610    -1.1626000    -0.0589710
  C       -1.7488560    -0.0105870    -0.3076690
  C       -1.0790680     1.2063820     0.3205530
  C       -1.0433070    -1.2763970     0.1538630
  C        0.3725010     1.2935890    -0.1457680
  C        1.1404240    -0.0102390    -0.0198870
  H       -2.8074580    -0.0696450    -0.0318610
  H       -1.6959720     0.0599610    -1.4006240
  H       -1.1144190     1.1154600     1.4138390
  H       -1.6138590     2.1267960     0.0620980
  H       -1.2653590    -1.4521000     1.2170140
  H       -1.4050610    -2.1469230    -0.4038060
  H        0.9414700     2.0498950     0.4019050
  H        0.4084350     1.5789030    -1.2051520
  H        0.9624730    -1.9950670     0.0738380
units angstrom
no_reorient  #important for SAPT in psi4, default
symmetry c1  #important for SAPT in psi4, default
}

set PROPERTIES_ORIGIN ["COM"]
properties('MP2/aug-cc-pvtz', properties = ['dipole'])
--------------------------------------------------------------------------

    Molecular point group: c1
  Charge       = 0
  Multiplicity = 1
  Basis Set: AUG-CC-PVTZ
    Blend: AUG-CC-PVTZ
  Basis Set: (AUG-CC-PVTZ AUX)
    Blend: AUG-CC-PVTZ-JKFIT

    Orbital Energies [Eh]
    ---------------------

    Doubly Occupied:

       1A    -20.511478     2A    -15.588065     3A    -11.346395
       4A    -11.281457     5A    -11.240049     6A    -11.236402
       7A    -11.232093     8A     -1.364668     9A     -1.238242
      10A     -1.086839    11A     -1.017272    12A     -0.896046
      13A     -0.843722    14A     -0.755500    15A     -0.694690
      16A     -0.651486    17A     -0.640260    18A     -0.611929
      19A     -0.594637    20A     -0.588067    21A     -0.568813
      22A     -0.505494    23A     -0.497956    24A     -0.484450
      25A     -0.481571    26A     -0.406662    27A     -0.391899

  @DF-RHF Final Energy:  -324.02954147307344

   => Energetics <=

    Nuclear Repulsion Energy =            313.5374526966114672
    One-Electron Energy =               -1061.6217052481156315
    Two-Electron Energy =                 424.0547110784307279
    Total Energy =                       -324.0295414730734365
  Basis Set: (AUG-CC-PVTZ AUX)
    Blend: AUG-CC-PVTZ-RI
    Molecular point group: c1

    Geometry (in Angstrom), charge = 0, multiplicity = 1:

       Center              X                  Y                   Z               Mass
    ------------   -----------------  -----------------  -----------------  -----------------
         O            2.292638610914     0.077678195811     0.036576809223    15.994914619570
         N            0.320196210914    -1.170697104189    -0.057774690777    14.003074004430
         C           -1.824220789086    -0.018684104189    -0.306472690777    12.000000000000
         C           -1.154432789086     1.198284895811     0.321749309223    12.000000000000
         C           -1.118671789086    -1.284494104189     0.155059309223    12.000000000000
         C            0.297136210914     1.285491895811    -0.144571690777    12.000000000000
         C            1.065059210914    -0.018336104189    -0.018690690777    12.000000000000
         H           -2.882822789086    -0.077742104189    -0.030664690777     1.007825032230
         H           -1.771336789086     0.051863895811    -1.399427690777     1.007825032230
         H           -1.189783789086     1.107362895811     1.415035309223     1.007825032230
         H           -1.689223789086     2.118698895811     0.063294309223     1.007825032230
         H           -1.340723789086    -1.460197104189     1.218210309223     1.007825032230
         H           -1.480425789086    -2.155020104189    -0.402609690777     1.007825032230
         H            0.866105210914     2.041797895811     0.403101309223     1.007825032230
         H            0.333070210914     1.570805895811    -1.203955690777     1.007825032230
         H            0.887108210914    -2.003164104189     0.075034309223     1.007825032230

  Basis Set: AUG-CC-PVTZ
    Blend: AUG-CC-PVTZ
  Basis Set: (AUG-CC-PVTZ AUX)
    Blend: AUG-CC-PVTZ-JKFIT
	 Reference Energy          =    -324.0295414730734365 [Eh]
	 Singles Energy            =      -0.0000000000000000 [Eh]
	 Same-Spin Energy          =      -0.3338756873731175 [Eh]
	 Opposite-Spin Energy      =      -1.0914708825702362 [Eh]
	 Correlation Energy        =      -1.4253465699433536 [Eh]
	 Total Energy              =    -325.4548880430168083 [Eh]

	 ================> DF-SCS-MP2 Energies <==================
	-----------------------------------------------------------
	 SCS Same-Spin Scale       =       0.3333333333333333 [-]
	 SCS Opposite-Spin Scale   =       1.2000000000000000 [-]
	 SCS Same-Spin Energy      =      -0.1112918957910392 [Eh]
	 SCS Opposite-Spin Energy  =      -1.3097650590842833 [Eh]
	 SCS Correlation Energy    =      -1.4210569548753225 [Eh]
	 SCS Total Energy          =    -325.4505984279487620 [Eh]
	-----------------------------------------------------------

  Dipole Moment: [D]
     X:    -4.1939      Y:    -0.9370      Z:     0.1634     Total:     4.3004

*** Psi4 exiting successfully. Buy a developer a beer!
