                               Psi4 1.3.2 release

  ==> Input File <==

--------------------------------------------------------------------------
#psi4
#
memory 32 gb

molecule  {
0 1
  O        2.3713340    -0.0431960     0.0348750
  N        0.3955610    -1.1626000    -0.0589710
  C       -1.7488560    -0.0105870    -0.3076690
  C       -1.0438276     1.3225245     0.4245730
  C       -1.0433070    -1.2763970     0.1538630
  C        0.3725010     1.2935890    -0.1457680
  C        1.1404240    -0.0102390    -0.0198870
  H       -2.8074580    -0.0696450    -0.0318610
  H       -1.6959720     0.0599610    -1.4006240
  H       -1.1144190     1.1154600     1.4138390
  H       -1.6138590     2.1267960     0.0620980
  H       -1.2653590    -1.4521000     1.2170140
  H       -1.4050610    -2.1469230    -0.4038060
  H        0.9414700     2.0498950     0.4019050
  H        0.4084350     1.5789030    -1.2051520
  H        0.9624730    -1.9950670     0.0738380
units angstrom
no_reorient  #important for SAPT in psi4, default
symmetry c1  #important for SAPT in psi4, default
}

set PROPERTIES_ORIGIN ["COM"]
properties('MP2/aug-cc-pvtz', properties = ['dipole'])
--------------------------------------------------------------------------

    Molecular point group: c1
  Charge       = 0
  Multiplicity = 1
  Basis Set: AUG-CC-PVTZ
    Blend: AUG-CC-PVTZ
  Basis Set: (AUG-CC-PVTZ AUX)
    Blend: AUG-CC-PVTZ-JKFIT

    Orbital Energies [Eh]
    ---------------------

    Doubly Occupied:

       1A    -20.510896     2A    -15.581022     3A    -11.347256
       4A    -11.277671     5A    -11.243483     6A    -11.239284
       7A    -11.237708     8A     -1.365806     9A     -1.229658
      10A     -1.076083    11A     -1.015607    12A     -0.894186
      13A     -0.849904    14A     -0.757030    15A     -0.688905
      16A     -0.653983    17A     -0.641208    18A     -0.616689
      19A     -0.594175    20A     -0.584203    21A     -0.568573
      22A     -0.517621    23A     -0.506518    24A     -0.497255
      25A     -0.440109    26A     -0.412575    27A     -0.385809

  @DF-RHF Final Energy:  -324.01141695085028

   => Energetics <=

    Nuclear Repulsion Energy =            311.7423225607093400
    One-Electron Energy =               -1058.0410454949876566
    Two-Electron Energy =                 422.2873059834280411
    Total Energy =                       -324.0114169508502755
  Basis Set: (AUG-CC-PVTZ AUX)
    Blend: AUG-CC-PVTZ-RI
    Molecular point group: c1

    Geometry (in Angstrom), charge = 0, multiplicity = 1:

       Center              X                  Y                   Z               Mass
    ------------   -----------------  -----------------  -----------------  -----------------
         O            2.291162861000    -0.044538429258     0.023553146050    15.994914619570
         N            0.315389861000    -1.163942429258    -0.070292853950    14.003074004430
         C           -1.829027139000    -0.011929429258    -0.318990853950    12.000000000000
         C           -1.123998739000     1.321182070742     0.413251146050    12.000000000000
         C           -1.123478139000    -1.277739429258     0.142541146050    12.000000000000
         C            0.292329861000     1.292246570742    -0.157089853950    12.000000000000
         C            1.060252861000    -0.011581429258    -0.031208853950    12.000000000000
         H           -2.887629139000    -0.070987429258    -0.043182853950     1.007825032230
         H           -1.776143139000     0.058618570742    -1.411945853950     1.007825032230
         H           -1.194590139000     1.114117570742     1.402517146050     1.007825032230
         H           -1.694030139000     2.125453570742     0.050776146050     1.007825032230
         H           -1.345530139000    -1.453442429258     1.205692146050     1.007825032230
         H           -1.485232139000    -2.148265429258    -0.415127853950     1.007825032230
         H            0.861298861000     2.048552570742     0.390583146050     1.007825032230
         H            0.328263861000     1.577560570742    -1.216473853950     1.007825032230
         H            0.882301861000    -1.996409429258     0.062516146050     1.007825032230

  Basis Set: AUG-CC-PVTZ
    Blend: AUG-CC-PVTZ
  Basis Set: (AUG-CC-PVTZ AUX)
    Blend: AUG-CC-PVTZ-JKFIT
	 Reference Energy          =    -324.0114169508502755 [Eh]
	 Singles Energy            =      -0.0000000000000000 [Eh]
	 Same-Spin Energy          =      -0.3337221845944121 [Eh]
	 Opposite-Spin Energy      =      -1.0921783490277788 [Eh]
	 Correlation Energy        =      -1.4259005336221908 [Eh]
	 Total Energy              =    -325.4373174844724872 [Eh]

	 ================> DF-SCS-MP2 Energies <==================
	-----------------------------------------------------------
	 SCS Same-Spin Scale       =       0.3333333333333333 [-]
	 SCS Opposite-Spin Scale   =       1.2000000000000000 [-]
	 SCS Same-Spin Energy      =      -0.1112407281981374 [Eh]
	 SCS Opposite-Spin Energy  =      -1.3106140188333344 [Eh]
	 SCS Correlation Energy    =      -1.4218547470314717 [Eh]
	 SCS Total Energy          =    -325.4332716978817643 [Eh]
	-----------------------------------------------------------

  Dipole Moment: [D]
     X:    -4.2192      Y:    -0.5682      Z:     0.1956     Total:     4.2618

*** Psi4 exiting successfully. Buy a developer a beer!
