                               Psi4 1.3.2 release

  ==> Input File <==

--------------------------------------------------------------------------
#psi4
#
memory 32 gb

molecule  {
0 1
  O        2.3717235    -0.0001758     0.0351106
  N        0.3955610    -1.1626000    -0.0589710
  C       -1.7488560    -0.0105870    -0.3076690
  C       -1.0790680     1.2063820     0.3205530
  C       -1.0433070    -1.2763970     0.1538630
  C        0.3725010     1.2935890    -0.1457680
  C        1.1404240    -0.0102390    -0.0198870
  H       -2.8074580    -0.0696450    -0.0318610
  H       -1.6959720     0.0599610    -1.4006240
  H       -1.1144190     1.1154600     1.4138390
  H       -1.6138590     2.1267960     0.0620980
  H       -1.2653590    -1.4521000     1.2170140
  H       -1.4050610    -2.1469230    -0.4038060
  H        0.9414700     2.0498950     0.4019050
  H        0.4084350     1.5789030    -1.2051520
  H        0.9624730    -1.9950670     0.0738380
units angstrom
no_reorient  #important for SAPT in psi4, default
symmetry c1  #important for SAPT in psi4, default
}

set PROPERTIES_ORIGIN ["COM"]
properties('MP2/aug-cc-pvtz', properties = ['dipole'])
--------------------------------------------------------------------------

    Molecular point group: c1
  Charge       = 0
  Multiplicity = 1
  Basis Set: AUG-CC-PVTZ
    Blend: AUG-CC-PVTZ
  Basis Set: (AUG-CC-PVTZ AUX)
    Blend: AUG-CC-PVTZ-JKFIT

    Orbital Energies [Eh]
    ---------------------

    Doubly Occupied:

       1A    -20.510649     2A    -15.583820     3A    -11.346182
       4A    -11.279412     5A    -11.240239     6A    -11.238681
       7A    -11.236394     8A     -1.365082     9A     -1.234043
      10A     -1.087788    11A     -1.018270    12A     -0.896713
      13A     -0.843755    14A     -0.755030    15A     -0.693612
      16A     -0.651086    17A     -0.639332    18A     -0.612523
      19A     -0.594611    20A     -0.588458    21A     -0.570247
      22A     -0.504989    23A     -0.497356    24A     -0.486517
      25A     -0.483184    26A     -0.409799    27A     -0.388529

  @DF-RHF Final Energy:  -324.03230039179385

   => Energetics <=

    Nuclear Repulsion Energy =            313.5050518720818218
    One-Electron Energy =               -1061.5620949889664644
    Two-Electron Energy =                 424.0247427250907890
    Total Energy =                       -324.0323003917938536
  Basis Set: (AUG-CC-PVTZ AUX)
    Blend: AUG-CC-PVTZ-RI
    Molecular point group: c1

    Geometry (in Angstrom), charge = 0, multiplicity = 1:

       Center              X                  Y                   Z               Mass
    ------------   -----------------  -----------------  -----------------  -----------------
         O            2.295758088783     0.005604177836     0.036350485447    15.994914619570
         N            0.319595588783    -1.156820022164    -0.057731114553    14.003074004430
         C           -1.824821411217    -0.004807022164    -0.306429114553    12.000000000000
         C           -1.155033411217     1.212161977836     0.321792885447    12.000000000000
         C           -1.119272411217    -1.270617022164     0.155102885447    12.000000000000
         C            0.296535588783     1.299368977836    -0.144528114553    12.000000000000
         C            1.064458588783    -0.004459022164    -0.018647114553    12.000000000000
         H           -2.883423411217    -0.063865022164    -0.030621114553     1.007825032230
         H           -1.771937411217     0.065740977836    -1.399384114553     1.007825032230
         H           -1.190384411217     1.121239977836     1.415078885447     1.007825032230
         H           -1.689824411217     2.132575977836     0.063337885447     1.007825032230
         H           -1.341324411217    -1.446320022164     1.218253885447     1.007825032230
         H           -1.481026411217    -2.141143022164    -0.402566114553     1.007825032230
         H            0.865504588783     2.055674977836     0.403144885447     1.007825032230
         H            0.332469588783     1.584682977836    -1.203912114553     1.007825032230
         H            0.886507588783    -1.989287022164     0.075077885447     1.007825032230

  Basis Set: AUG-CC-PVTZ
    Blend: AUG-CC-PVTZ
  Basis Set: (AUG-CC-PVTZ AUX)
    Blend: AUG-CC-PVTZ-JKFIT
	 Reference Energy          =    -324.0323003917938536 [Eh]
	 Singles Energy            =      -0.0000000000000000 [Eh]
	 Same-Spin Energy          =      -0.3337849041772805 [Eh]
	 Opposite-Spin Energy      =      -1.0912111903537669 [Eh]
	 Correlation Energy        =      -1.4249960945310474 [Eh]
	 Total Energy              =    -325.4572964863248785 [Eh]

	 ================> DF-SCS-MP2 Energies <==================
	-----------------------------------------------------------
	 SCS Same-Spin Scale       =       0.3333333333333333 [-]
	 SCS Opposite-Spin Scale   =       1.2000000000000000 [-]
	 SCS Same-Spin Energy      =      -0.1112616347257602 [Eh]
	 SCS Opposite-Spin Energy  =      -1.3094534284245203 [Eh]
	 SCS Correlation Energy    =      -1.4207150631502805 [Eh]
	 SCS Total Energy          =    -325.4530154549441363 [Eh]
	-----------------------------------------------------------

  Dipole Moment: [D]
     X:    -4.2259      Y:    -0.6988      Z:     0.1600     Total:     4.2863

*** Psi4 exiting successfully. Buy a developer a beer!
