                               Psi4 1.3.2 release

  ==> Input File <==

--------------------------------------------------------------------------
#psi4
#
memory 32 gb

molecule  {
0 1
  O        2.3713340    -0.0431960     0.0348750
  N        0.3955610    -1.1626000    -0.0589710
  C       -1.7488560    -0.0105870    -0.3076690
  C       -1.0790680     1.2063820     0.3205530
  C       -1.0521772    -1.1281275     0.1183841
  C        0.3725010     1.2935890    -0.1457680
  C        1.1404240    -0.0102390    -0.0198870
  H       -2.8074580    -0.0696450    -0.0318610
  H       -1.6959720     0.0599610    -1.4006240
  H       -1.1144190     1.1154600     1.4138390
  H       -1.6138590     2.1267960     0.0620980
  H       -1.2653590    -1.4521000     1.2170140
  H       -1.4050610    -2.1469230    -0.4038060
  H        0.9414700     2.0498950     0.4019050
  H        0.4084350     1.5789030    -1.2051520
  H        0.9624730    -1.9950670     0.0738380
units angstrom
no_reorient  #important for SAPT in psi4, default
symmetry c1  #important for SAPT in psi4, default
}

set PROPERTIES_ORIGIN ["COM"]
properties('MP2/aug-cc-pvtz', properties = ['dipole'])
--------------------------------------------------------------------------

    Molecular point group: c1
  Charge       = 0
  Multiplicity = 1
  Basis Set: AUG-CC-PVTZ
    Blend: AUG-CC-PVTZ
  Basis Set: (AUG-CC-PVTZ AUX)
    Blend: AUG-CC-PVTZ-JKFIT

    Orbital Energies [Eh]
    ---------------------

    Doubly Occupied:

       1A    -20.509444     2A    -15.584038     3A    -11.344011
       4A    -11.287040     5A    -11.241259     6A    -11.240197
       7A    -11.235607     8A     -1.365743     9A     -1.238433
      10A     -1.104146    11A     -1.030169    12A     -0.892642
      13A     -0.843714    14A     -0.759929    15A     -0.698887
      16A     -0.644081    17A     -0.639655    18A     -0.614850
      19A     -0.608076    20A     -0.587987    21A     -0.568579
      22A     -0.517865    23A     -0.494716    24A     -0.488967
      25A     -0.472068    26A     -0.409818    27A     -0.377886

  @DF-RHF Final Energy:  -324.00340982851037

   => Energetics <=

    Nuclear Repulsion Energy =            315.6555834497737010
    One-Electron Energy =               -1065.7183748589559400
    Two-Electron Energy =                 426.0593815806718112
    Total Energy =                       -324.0034098285103710
  Basis Set: (AUG-CC-PVTZ AUX)
    Blend: AUG-CC-PVTZ-RI
    Molecular point group: c1

    Geometry (in Angstrom), charge = 0, multiplicity = 1:

       Center              X                  Y                   Z               Mass
    ------------   -----------------  -----------------  -----------------  -----------------
         O            2.296505908084    -0.048429921862     0.040450426766    15.994914619570
         N            0.320732908084    -1.167833921862    -0.053395573234    14.003074004430
         C           -1.823684091916    -0.015820921862    -0.302093573234    12.000000000000
         C           -1.153896091916     1.201148078138     0.326128426766    12.000000000000
         C           -1.127005291916    -1.133361421862     0.123959526766    12.000000000000
         C            0.297672908084     1.288355078138    -0.140192573234    12.000000000000
         C            1.065595908084    -0.015472921862    -0.014311573234    12.000000000000
         H           -2.882286091916    -0.074878921862    -0.026285573234     1.007825032230
         H           -1.770800091916     0.054727078138    -1.395048573234     1.007825032230
         H           -1.189247091916     1.110226078138     1.419414426766     1.007825032230
         H           -1.688687091916     2.121562078138     0.067673426766     1.007825032230
         H           -1.340187091916    -1.457333921862     1.222589426766     1.007825032230
         H           -1.479889091916    -2.152156921862    -0.398230573234     1.007825032230
         H            0.866641908084     2.044661078138     0.407480426766     1.007825032230
         H            0.333606908084     1.573669078138    -1.199576573234     1.007825032230
         H            0.887644908084    -2.000300921862     0.079413426766     1.007825032230

  Basis Set: AUG-CC-PVTZ
    Blend: AUG-CC-PVTZ
  Basis Set: (AUG-CC-PVTZ AUX)
    Blend: AUG-CC-PVTZ-JKFIT
	 Reference Energy          =    -324.0034098285103710 [Eh]
	 Singles Energy            =      -0.0000000000000000 [Eh]
	 Same-Spin Energy          =      -0.3357371644450995 [Eh]
	 Opposite-Spin Energy      =      -1.0937769383751565 [Eh]
	 Correlation Energy        =      -1.4295141028202560 [Eh]
	 Total Energy              =    -325.4329239313306061 [Eh]

	 ================> DF-SCS-MP2 Energies <==================
	-----------------------------------------------------------
	 SCS Same-Spin Scale       =       0.3333333333333333 [-]
	 SCS Opposite-Spin Scale   =       1.2000000000000000 [-]
	 SCS Same-Spin Energy      =      -0.1119123881483665 [Eh]
	 SCS Opposite-Spin Energy  =      -1.3125323260501878 [Eh]
	 SCS Correlation Energy    =      -1.4244447141985543 [Eh]
	 SCS Total Energy          =    -325.4278545427089284 [Eh]
	-----------------------------------------------------------

  Dipole Moment: [D]
     X:    -4.2343      Y:    -0.4224      Z:     0.1004     Total:     4.2565

*** Psi4 exiting successfully. Buy a developer a beer!
