                               Psi4 1.3.2 release

  ==> Input File <==

--------------------------------------------------------------------------
#psi4
#
memory 32 gb

molecule  {
0 1
  O        2.3713340    -0.0431960     0.0348750
  N        0.3955610    -1.1626000    -0.0589710
  C       -1.7488560    -0.0105870    -0.3076690
  C       -1.0790680     1.2063820     0.3205530
  C       -1.0433070    -1.2763970     0.1538630
  C        0.3725010     1.2935890    -0.1457680
  C        1.1404240    -0.0102390    -0.0198870
  H       -2.8074580    -0.0696450    -0.0318610
  H       -1.6959720     0.0599610    -1.4006240
  H       -1.1144190     1.1154600     1.4138390
  H       -1.6138590     2.1267960     0.0620980
  H       -1.2653590    -1.4521000     1.2170140
  H       -1.4050610    -2.1469230    -0.4038060
  H        0.9414700     2.0498950     0.4019050
  H        0.4084350     1.5789030    -1.2051520
  H        1.0740821    -2.1589565     0.0999844
units angstrom
no_reorient  #important for SAPT in psi4, default
symmetry c1  #important for SAPT in psi4, default
}

set PROPERTIES_ORIGIN ["COM"]
properties('MP2/aug-cc-pvtz', properties = ['dipole'])
--------------------------------------------------------------------------

    Molecular point group: c1
  Charge       = 0
  Multiplicity = 1
  Basis Set: AUG-CC-PVTZ
    Blend: AUG-CC-PVTZ
  Basis Set: (AUG-CC-PVTZ AUX)
    Blend: AUG-CC-PVTZ-JKFIT

    Orbital Energies [Eh]
    ---------------------

    Doubly Occupied:

       1A    -20.508250     2A    -15.596334     3A    -11.345343
       4A    -11.277784     5A    -11.240182     6A    -11.239529
       7A    -11.238926     8A     -1.362000     9A     -1.218945
      10A     -1.082144    11A     -1.017893    12A     -0.892008
      13A     -0.838807    14A     -0.732853    15A     -0.682311
      16A     -0.644848    17A     -0.637420    18A     -0.612000
      19A     -0.590013    20A     -0.579649    21A     -0.567205
      22A     -0.503113    23A     -0.492970    24A     -0.486780
      25A     -0.480240    26A     -0.409782    27A     -0.383383

  @DF-RHF Final Energy:  -324.00301605234336

   => Energetics <=

    Nuclear Repulsion Energy =            312.4534393211264387
    One-Electron Energy =               -1059.5914900434770516
    Two-Electron Energy =                 423.1350346700072578
    Total Energy =                       -324.0030160523433551
  Basis Set: (AUG-CC-PVTZ AUX)
    Blend: AUG-CC-PVTZ-RI
    Molecular point group: c1

    Geometry (in Angstrom), charge = 0, multiplicity = 1:

       Center              X                  Y                   Z               Mass
    ------------   -----------------  -----------------  -----------------  -----------------
         O            2.294296073120    -0.028803020978     0.035886935956    15.994914619570
         N            0.318523073120    -1.148207020978    -0.057959064044    14.003074004430
         C           -1.825893926880     0.003805979022    -0.306657064044    12.000000000000
         C           -1.156105926880     1.220774979022     0.321564935956    12.000000000000
         C           -1.120344926880    -1.262004020978     0.154874935956    12.000000000000
         C            0.295463073120     1.307981979022    -0.144756064044    12.000000000000
         C            1.063386073120     0.004153979022    -0.018875064044    12.000000000000
         H           -2.884495926880    -0.055252020978    -0.030849064044     1.007825032230
         H           -1.773009926880     0.074353979022    -1.399612064044     1.007825032230
         H           -1.191456926880     1.129852979022     1.414850935956     1.007825032230
         H           -1.690896926880     2.141188979022     0.063109935956     1.007825032230
         H           -1.342396926880    -1.437707020978     1.218025935956     1.007825032230
         H           -1.482098926880    -2.132530020978    -0.402794064044     1.007825032230
         H            0.864432073120     2.064287979022     0.402916935956     1.007825032230
         H            0.331397073120     1.593295979022    -1.204140064044     1.007825032230
         H            0.997044173120    -2.144563520978     0.100996335956     1.007825032230

  Basis Set: AUG-CC-PVTZ
    Blend: AUG-CC-PVTZ
  Basis Set: (AUG-CC-PVTZ AUX)
    Blend: AUG-CC-PVTZ-JKFIT
	 Reference Energy          =    -324.0030160523433551 [Eh]
	 Singles Energy            =      -0.0000000000000000 [Eh]
	 Same-Spin Energy          =      -0.3354212288524119 [Eh]
	 Opposite-Spin Energy      =      -1.0954423783911464 [Eh]
	 Correlation Energy        =      -1.4308636072435583 [Eh]
	 Total Energy              =    -325.4338796595869212 [Eh]

	 ================> DF-SCS-MP2 Energies <==================
	-----------------------------------------------------------
	 SCS Same-Spin Scale       =       0.3333333333333333 [-]
	 SCS Opposite-Spin Scale   =       1.2000000000000000 [-]
	 SCS Same-Spin Energy      =      -0.1118070762841373 [Eh]
	 SCS Opposite-Spin Energy  =      -1.3145308540693756 [Eh]
	 SCS Correlation Energy    =      -1.4263379303535129 [Eh]
	 SCS Total Energy          =    -325.4293539826968527 [Eh]
	-----------------------------------------------------------

  Dipole Moment: [D]
     X:    -4.1803      Y:    -0.6926      Z:     0.1761     Total:     4.2409

*** Psi4 exiting successfully. Buy a developer a beer!
