                               Psi4 1.3.2 release

  ==> Input File <==

--------------------------------------------------------------------------
#psi4
#
memory 32 gb

molecule  {
0 1
  O        2.3713340    -0.0431960     0.0348750
  N        0.3955610    -1.1626000    -0.0589710
  C       -1.7488560    -0.0105870    -0.3076690
  C       -1.0790680     1.2063820     0.3205530
  C       -1.0458849    -1.2517282     0.1481016
  C        0.3725010     1.2935890    -0.1457680
  C        1.1404240    -0.0102390    -0.0198870
  H       -2.8074580    -0.0696450    -0.0318610
  H       -1.6959720     0.0599610    -1.4006240
  H       -1.1144190     1.1154600     1.4138390
  H       -1.6138590     2.1267960     0.0620980
  H       -1.2653590    -1.4521000     1.2170140
  H       -1.4050610    -2.1469230    -0.4038060
  H        0.9414700     2.0498950     0.4019050
  H        0.4084350     1.5789030    -1.2051520
  H        0.9624730    -1.9950670     0.0738380
units angstrom
no_reorient  #important for SAPT in psi4, default
symmetry c1  #important for SAPT in psi4, default
}

set PROPERTIES_ORIGIN ["COM"]
properties('MP2/aug-cc-pvtz', properties = ['dipole'])
--------------------------------------------------------------------------

    Molecular point group: c1
  Charge       = 0
  Multiplicity = 1
  Basis Set: AUG-CC-PVTZ
    Blend: AUG-CC-PVTZ
  Basis Set: (AUG-CC-PVTZ AUX)
    Blend: AUG-CC-PVTZ-JKFIT

    Orbital Energies [Eh]
    ---------------------

    Doubly Occupied:

       1A    -20.509971     2A    -15.581859     3A    -11.345686
       4A    -11.279369     5A    -11.240120     6A    -11.239331
       7A    -11.238698     8A     -1.365459     9A     -1.232672
      10A     -1.090123    11A     -1.020501    12A     -0.895966
      13A     -0.844022    14A     -0.755320    15A     -0.693854
      16A     -0.649062    17A     -0.638331    18A     -0.612401
      19A     -0.596370    20A     -0.588586    21A     -0.571370
      22A     -0.503580    23A     -0.500014    24A     -0.487662
      25A     -0.483576    26A     -0.410799    27A     -0.385687

  @DF-RHF Final Energy:  -324.03171264220180

   => Energetics <=

    Nuclear Repulsion Energy =            313.8578772141394779
    One-Electron Energy =               -1062.2584024659904571
    Two-Electron Energy =                 424.3688126096491260
    Total Energy =                       -324.0317126422017964
  Basis Set: (AUG-CC-PVTZ AUX)
    Blend: AUG-CC-PVTZ-RI
    Molecular point group: c1

    Geometry (in Angstrom), charge = 0, multiplicity = 1:

       Center              X                  Y                   Z               Mass
    ------------   -----------------  -----------------  -----------------  -----------------
         O            2.295743731755    -0.033458364920     0.036850793079    15.994914619570
         N            0.319970731755    -1.152862364920    -0.056995206921    14.003074004430
         C           -1.824446268245    -0.000849364920    -0.305693206921    12.000000000000
         C           -1.154658268245     1.216119635080     0.322528793079    12.000000000000
         C           -1.121475168245    -1.241990564920     0.150077393079    12.000000000000
         C            0.296910731755     1.303326635080    -0.143792206921    12.000000000000
         C            1.064833731755    -0.000501364920    -0.017911206921    12.000000000000
         H           -2.883048268245    -0.059907364920    -0.029885206921     1.007825032230
         H           -1.771562268245     0.069698635080    -1.398648206921     1.007825032230
         H           -1.190009268245     1.125197635080     1.415814793079     1.007825032230
         H           -1.689449268245     2.136533635080     0.064073793079     1.007825032230
         H           -1.340949268245    -1.442362364920     1.218989793079     1.007825032230
         H           -1.480651268245    -2.137185364920    -0.401830206921     1.007825032230
         H            0.865879731755     2.059632635080     0.403880793079     1.007825032230
         H            0.332844731755     1.588640635080    -1.203176206921     1.007825032230
         H            0.886882731755    -1.985329364920     0.075813793079     1.007825032230

  Basis Set: AUG-CC-PVTZ
    Blend: AUG-CC-PVTZ
  Basis Set: (AUG-CC-PVTZ AUX)
    Blend: AUG-CC-PVTZ-JKFIT
	 Reference Energy          =    -324.0317126422017964 [Eh]
	 Singles Energy            =      -0.0000000000000000 [Eh]
	 Same-Spin Energy          =      -0.3339648761585802 [Eh]
	 Opposite-Spin Energy      =      -1.0913239864141904 [Eh]
	 Correlation Energy        =      -1.4252888625727707 [Eh]
	 Total Energy              =    -325.4570015047745528 [Eh]

	 ================> DF-SCS-MP2 Energies <==================
	-----------------------------------------------------------
	 SCS Same-Spin Scale       =       0.3333333333333333 [-]
	 SCS Opposite-Spin Scale   =       1.2000000000000000 [-]
	 SCS Same-Spin Energy      =      -0.1113216253861934 [Eh]
	 SCS Opposite-Spin Energy  =      -1.3095887836970284 [Eh]
	 SCS Correlation Energy    =      -1.4209104090832216 [Eh]
	 SCS Total Energy          =    -325.4526230512850020 [Eh]
	-----------------------------------------------------------

  Dipole Moment: [D]
     X:    -4.2374      Y:    -0.5606      Z:     0.1499     Total:     4.2769

*** Psi4 exiting successfully. Buy a developer a beer!
