                               Psi4 1.3.2 release

  ==> Input File <==

--------------------------------------------------------------------------
#psi4
#
memory 32 gb

molecule  {
0 1
  O        2.3713340    -0.0431960     0.0348750
  N        0.3955610    -1.1626000    -0.0589710
  C       -1.7488560    -0.0105870    -0.3076690
  C       -1.0790680     1.2063820     0.3205530
  C       -1.0455880    -1.1755726     0.1679881
  C        0.3725010     1.2935890    -0.1457680
  C        1.1404240    -0.0102390    -0.0198870
  H       -2.8074580    -0.0696450    -0.0318610
  H       -1.6959720     0.0599610    -1.4006240
  H       -1.1144190     1.1154600     1.4138390
  H       -1.6138590     2.1267960     0.0620980
  H       -1.2653590    -1.4521000     1.2170140
  H       -1.4050610    -2.1469230    -0.4038060
  H        0.9414700     2.0498950     0.4019050
  H        0.4084350     1.5789030    -1.2051520
  H        0.9624730    -1.9950670     0.0738380
units angstrom
no_reorient  #important for SAPT in psi4, default
symmetry c1  #important for SAPT in psi4, default
}

set PROPERTIES_ORIGIN ["COM"]
properties('MP2/aug-cc-pvtz', properties = ['dipole'])
--------------------------------------------------------------------------

    Molecular point group: c1
  Charge       = 0
  Multiplicity = 1
  Basis Set: AUG-CC-PVTZ
    Blend: AUG-CC-PVTZ
  Basis Set: (AUG-CC-PVTZ AUX)
    Blend: AUG-CC-PVTZ-JKFIT

    Orbital Energies [Eh]
    ---------------------

    Doubly Occupied:

       1A    -20.509907     2A    -15.582812     3A    -11.344531
       4A    -11.282686     5A    -11.240180     6A    -11.239382
       7A    -11.237640     8A     -1.365735     9A     -1.235581
      10A     -1.096472    11A     -1.024697    12A     -0.893407
      13A     -0.843931    14A     -0.758670    15A     -0.698314
      16A     -0.644040    17A     -0.636546    18A     -0.613350
      19A     -0.603231    20A     -0.589622    21A     -0.568767
      22A     -0.510283    23A     -0.500628    24A     -0.488463
      25A     -0.475075    26A     -0.410379    27A     -0.383374

  @DF-RHF Final Energy:  -324.02022649900960

   => Energetics <=

    Nuclear Repulsion Energy =            314.8503694672358506
    One-Electron Energy =               -1064.1857840912468873
    Two-Electron Energy =                 425.3151881250014412
    Total Energy =                       -324.0202264990095955
  Basis Set: (AUG-CC-PVTZ AUX)
    Blend: AUG-CC-PVTZ-RI
    Molecular point group: c1

    Geometry (in Angstrom), charge = 0, multiplicity = 1:

       Center              X                  Y                   Z               Mass
    ------------   -----------------  -----------------  -----------------  -----------------
         O            2.295707768728    -0.042682972077     0.034441972845    15.994914619570
         N            0.319934768728    -1.162086972077    -0.059404027155    14.003074004430
         C           -1.824482231272    -0.010073972077    -0.308102027155    12.000000000000
         C           -1.154694231272     1.206895027923     0.320119972845    12.000000000000
         C           -1.121214231272    -1.175059572077     0.167555072845    12.000000000000
         C            0.296874768728     1.294102027923    -0.146201027155    12.000000000000
         C            1.064797768728    -0.009725972077    -0.020320027155    12.000000000000
         H           -2.883084231272    -0.069131972077    -0.032294027155     1.007825032230
         H           -1.771598231272     0.060474027923    -1.401057027155     1.007825032230
         H           -1.190045231272     1.115973027923     1.413405972845     1.007825032230
         H           -1.689485231272     2.127309027923     0.061664972845     1.007825032230
         H           -1.340985231272    -1.451586972077     1.216580972845     1.007825032230
         H           -1.480687231272    -2.146409972077    -0.404239027155     1.007825032230
         H            0.865843768728     2.050408027923     0.401471972845     1.007825032230
         H            0.332808768728     1.579416027923    -1.205585027155     1.007825032230
         H            0.886846768728    -1.994553972077     0.073404972845     1.007825032230

  Basis Set: AUG-CC-PVTZ
    Blend: AUG-CC-PVTZ
  Basis Set: (AUG-CC-PVTZ AUX)
    Blend: AUG-CC-PVTZ-JKFIT
	 Reference Energy          =    -324.0202264990095955 [Eh]
	 Singles Energy            =      -0.0000000000000000 [Eh]
	 Same-Spin Energy          =      -0.3347340682854001 [Eh]
	 Opposite-Spin Energy      =      -1.0923950464993060 [Eh]
	 Correlation Energy        =      -1.4271291147847061 [Eh]
	 Total Energy              =    -325.4473556137942865 [Eh]

	 ================> DF-SCS-MP2 Energies <==================
	-----------------------------------------------------------
	 SCS Same-Spin Scale       =       0.3333333333333333 [-]
	 SCS Opposite-Spin Scale   =       1.2000000000000000 [-]
	 SCS Same-Spin Energy      =      -0.1115780227618000 [Eh]
	 SCS Opposite-Spin Energy  =      -1.3108740557991672 [Eh]
	 SCS Correlation Energy    =      -1.4224520785609671 [Eh]
	 SCS Total Energy          =    -325.4426785775705753 [Eh]
	-----------------------------------------------------------

  Dipole Moment: [D]
     X:    -4.2238      Y:    -0.4756      Z:     0.1810     Total:     4.2543

*** Psi4 exiting successfully. Buy a developer a beer!
