                               Psi4 1.4a3.dev225

  ==> Input File <==

--------------------------------------------------------------------------
#psi4
#
memory 32 gb

molecule  {
0 1
  O        2.3713340    -0.0431960     0.0348750
  N        0.3955610    -1.1626000    -0.0589710
  C       -1.7488560    -0.0105870    -0.3076690
  C       -1.0790680     1.2063820     0.3205530
  C       -1.0433070    -1.2763970     0.1538630
  C        0.3725010     1.2935890    -0.1457680
  C        1.1657113    -0.0531735    -0.0157418
  H       -2.8074580    -0.0696450    -0.0318610
  H       -1.6959720     0.0599610    -1.4006240
  H       -1.1144190     1.1154600     1.4138390
  H       -1.6138590     2.1267960     0.0620980
  H       -1.2653590    -1.4521000     1.2170140
  H       -1.4050610    -2.1469230    -0.4038060
  H        0.9414700     2.0498950     0.4019050
  H        0.4084350     1.5789030    -1.2051520
  H        0.9624730    -1.9950670     0.0738380
units angstrom
no_reorient  #important for SAPT in psi4, default
symmetry c1  #important for SAPT in psi4, default
}

set PROPERTIES_ORIGIN ["COM"]
properties('MP2/aug-cc-pvtz', properties = ['dipole'])
--------------------------------------------------------------------------

    Molecular point group: c1
  Charge       = 0
  Multiplicity = 1
  Basis Set: AUG-CC-PVTZ
    Blend: AUG-CC-PVTZ
  Basis Set: (AUG-CC-PVTZ AUX)
    Blend: AUG-CC-PVTZ-JKFIT

    Orbital Energies [Eh]
    ---------------------

    Doubly Occupied:

       1A    -20.511732     2A    -15.582673     3A    -11.342644
       4A    -11.280576     5A    -11.239453     6A    -11.236857
       7A    -11.235181     8A     -1.381128     9A     -1.240093
      10A     -1.085780    11A     -1.013902    12A     -0.893615
      13A     -0.841938    14A     -0.753380    15A     -0.695627
      16A     -0.650257    17A     -0.642733    18A     -0.611356
      19A     -0.596431    20A     -0.589055    21A     -0.568038
      22A     -0.508367    23A     -0.498448    24A     -0.487877
      25A     -0.482782    26A     -0.404785    27A     -0.391724

  @DF-RHF Final Energy:  -324.03233925509403

   => Energetics <=

    Nuclear Repulsion Energy =            313.5757679250762635
    One-Electron Energy =               -1061.6833495457165100
    Two-Electron Energy =                 424.0752423655462735
    Total Energy =                       -324.0323392550940298
  Basis Set: (AUG-CC-PVTZ AUX)
    Blend: AUG-CC-PVTZ-RI
    Molecular point group: c1

    Geometry (in Angstrom), charge = 0, multiplicity = 1:

       Center              X                  Y                   Z               Mass
    ------------   -----------------  -----------------  -----------------  -----------------
         O            2.292368464232    -0.025269684311     0.035650822319    15.994914619570
         N            0.316595464232    -1.144673684311    -0.058195177681    14.003074004430
         C           -1.827821535768     0.007339315689    -0.306893177681    12.000000000000
         C           -1.158033535768     1.224308315689     0.321328822319    12.000000000000
         C           -1.122272535768    -1.258470684311     0.154638822319    12.000000000000
         C            0.293535464232     1.311515315689    -0.144992177681    12.000000000000
         C            1.086745764232    -0.035247184311    -0.014965977681    12.000000000000
         H           -2.886423535768    -0.051718684311    -0.031085177681     1.007825032230
         H           -1.774937535768     0.077887315689    -1.399848177681     1.007825032230
         H           -1.193384535768     1.133386315689     1.414614822319     1.007825032230
         H           -1.692824535768     2.144722315689     0.062873822319     1.007825032230
         H           -1.344324535768    -1.434173684311     1.217789822319     1.007825032230
         H           -1.484026535768    -2.128996684311    -0.403030177681     1.007825032230
         H            0.862504464232     2.067821315689     0.402680822319     1.007825032230
         H            0.329469464232     1.596829315689    -1.204376177681     1.007825032230
         H            0.883507464232    -1.977140684311     0.074613822319     1.007825032230

  Basis Set: AUG-CC-PVTZ
    Blend: AUG-CC-PVTZ
  Basis Set: (AUG-CC-PVTZ AUX)
    Blend: AUG-CC-PVTZ-JKFIT
	 Reference Energy          =    -324.0323392550940298 [Eh]
	 Singles Energy            =      -0.0000000000000000 [Eh]
	 Same-Spin Energy          =      -0.3330573643025160 [Eh]
	 Opposite-Spin Energy      =      -1.0897996724693331 [Eh]
	 Correlation Energy        =      -1.4228570367718492 [Eh]
	 Total Energy              =    -325.4551962918658887 [Eh]

	 ================> DF-SCS-MP2 Energies <==================
	-----------------------------------------------------------
	 SCS Same-Spin Scale       =       0.3333333333333333 [-]
	 SCS Opposite-Spin Scale   =       1.2000000000000000 [-]
	 SCS Same-Spin Energy      =      -0.1110191214341720 [Eh]
	 SCS Opposite-Spin Energy  =      -1.3077596069631996 [Eh]
	 SCS Correlation Energy    =      -1.4187787283973716 [Eh]
	 SCS Total Energy          =    -325.4511179834914287 [Eh]
	-----------------------------------------------------------

  Dipole Moment: [D]
     X:    -4.1274      Y:    -0.7863      Z:     0.1810     Total:     4.2055

*** Psi4 exiting successfully. Buy a developer a beer!
