                               Psi4 1.4a3.dev225

  ==> Input File <==

--------------------------------------------------------------------------
#psi4
#
memory 32 gb

molecule  {
0 1
  O        2.3713340    -0.0431960     0.0348750
  N        0.3955610    -1.1626000    -0.0589710
  C       -1.7488560    -0.0105870    -0.3076690
  C       -1.0790680     1.2063820     0.3205530
  C       -1.0433070    -1.2763970     0.1538630
  C        0.3725010     1.2935890    -0.1457680
  C        1.1404240    -0.0102390    -0.0198870
  H       -2.8074580    -0.0696450    -0.0318610
  H       -1.6959720     0.0599610    -1.4006240
  H       -1.1144190     1.1154600     1.4138390
  H       -1.6138590     2.1267960     0.0620980
  H       -1.2653590    -1.4521000     1.2170140
  H       -1.4050610    -2.1469230    -0.4038060
  H        0.9414700     2.0498950     0.4019050
  H        0.4084350     1.5789030    -1.2051520
  H        0.9345707    -1.9540946     0.0673014
units angstrom
no_reorient  #important for SAPT in psi4, default
symmetry c1  #important for SAPT in psi4, default
}

set PROPERTIES_ORIGIN ["COM"]
properties('MP2/aug-cc-pvtz', properties = ['dipole'])
--------------------------------------------------------------------------

    Molecular point group: c1
  Charge       = 0
  Multiplicity = 1
  Basis Set: AUG-CC-PVTZ
    Blend: AUG-CC-PVTZ
  Basis Set: (AUG-CC-PVTZ AUX)
    Blend: AUG-CC-PVTZ-JKFIT

    Orbital Energies [Eh]
    ---------------------

    Doubly Occupied:

       1A    -20.510702     2A    -15.576974     3A    -11.346389
       4A    -11.278473     5A    -11.240489     6A    -11.239788
       7A    -11.238467     8A     -1.366680     9A     -1.236747
      10A     -1.090316    11A     -1.018961    12A     -0.898982
      13A     -0.845619    14A     -0.762447    15A     -0.695265
      16A     -0.652242    17A     -0.639297    18A     -0.613046
      19A     -0.596497    20A     -0.589609    21A     -0.571339
      22A     -0.505297    23A     -0.497897    24A     -0.487755
      25A     -0.484429    26A     -0.411245    27A     -0.387730

  @DF-RHF Final Energy:  -324.03230786319659

   => Energetics <=

    Nuclear Repulsion Energy =            313.8316661983612903
    One-Electron Energy =               -1062.1625891288940693
    Two-Electron Energy =                 424.2986150673361863
    Total Energy =                       -324.0323078631965927
  Basis Set: (AUG-CC-PVTZ AUX)
    Blend: AUG-CC-PVTZ-RI
    Molecular point group: c1

    Geometry (in Angstrom), charge = 0, multiplicity = 1:

       Center              X                  Y                   Z               Mass
    ------------   -----------------  -----------------  -----------------  -----------------
         O            2.295715325490    -0.030887085341     0.036219420794    15.994914619570
         N            0.319942325490    -1.150291085341    -0.057626579206    14.003074004430
         C           -1.824474674510     0.001721914659    -0.306324579206    12.000000000000
         C           -1.154686674510     1.218690914659     0.321897420794    12.000000000000
         C           -1.118925674510    -1.264088085341     0.155207420794    12.000000000000
         C            0.296882325490     1.305897914659    -0.144423579206    12.000000000000
         C            1.064805325490     0.002069914659    -0.018542579206    12.000000000000
         H           -2.883076674510    -0.057336085341    -0.030516579206     1.007825032230
         H           -1.771590674510     0.072269914659    -1.399279579206     1.007825032230
         H           -1.190037674510     1.127768914659     1.415183420794     1.007825032230
         H           -1.689477674510     2.139104914659     0.063442420794     1.007825032230
         H           -1.340977674510    -1.439791085341     1.218358420794     1.007825032230
         H           -1.480679674510    -2.134614085341    -0.402461579206     1.007825032230
         H            0.865851325490     2.062203914659     0.403249420794     1.007825032230
         H            0.332816325490     1.591211914659    -1.203807579206     1.007825032230
         H            0.858952025490    -1.941785685341     0.068645820794     1.007825032230

  Basis Set: AUG-CC-PVTZ
    Blend: AUG-CC-PVTZ
  Basis Set: (AUG-CC-PVTZ AUX)
    Blend: AUG-CC-PVTZ-JKFIT
	 Reference Energy          =    -324.0323078631965927 [Eh]
	 Singles Energy            =      -0.0000000000000000 [Eh]
	 Same-Spin Energy          =      -0.3333972132816356 [Eh]
	 Opposite-Spin Energy      =      -1.0902977580453073 [Eh]
	 Correlation Energy        =      -1.4236949713269429 [Eh]
	 Total Energy              =    -325.4560028345235310 [Eh]

	 ================> DF-SCS-MP2 Energies <==================
	-----------------------------------------------------------
	 SCS Same-Spin Scale       =       0.3333333333333333 [-]
	 SCS Opposite-Spin Scale   =       1.2000000000000000 [-]
	 SCS Same-Spin Energy      =      -0.1111324044272119 [Eh]
	 SCS Opposite-Spin Energy  =      -1.3083573096543686 [Eh]
	 SCS Correlation Energy    =      -1.4194897140815805 [Eh]
	 SCS Total Energy          =    -325.4517975772781710 [Eh]
	-----------------------------------------------------------

  Dipole Moment: [D]
     X:    -4.2490      Y:    -0.5440      Z:     0.1538     Total:     4.2865

*** Psi4 exiting successfully. Buy a developer a beer!
