                               Psi4 1.3.2 release

  ==> Input File <==

--------------------------------------------------------------------------
#psi4
#
memory 32 gb

molecule  {
0 1
  O        2.3713340    -0.0431960     0.0348750
  N        0.3955610    -1.1626000    -0.0589710
  C       -1.7488560    -0.0105870    -0.3076690
  C       -1.0790680     1.2063820     0.3205530
  C       -1.0433070    -1.2763970     0.1538630
  C        0.3725010     1.2935890    -0.1457680
  C        1.2489498     0.1576589    -0.0141925
  H       -2.8074580    -0.0696450    -0.0318610
  H       -1.6959720     0.0599610    -1.4006240
  H       -1.1144190     1.1154600     1.4138390
  H       -1.6138590     2.1267960     0.0620980
  H       -1.2653590    -1.4521000     1.2170140
  H       -1.4050610    -2.1469230    -0.4038060
  H        0.9414700     2.0498950     0.4019050
  H        0.4084350     1.5789030    -1.2051520
  H        0.9624730    -1.9950670     0.0738380
units angstrom
no_reorient  #important for SAPT in psi4, default
symmetry c1  #important for SAPT in psi4, default
}

set PROPERTIES_ORIGIN ["COM"]
properties('MP2/aug-cc-pvtz', properties = ['dipole'])
--------------------------------------------------------------------------

    Molecular point group: c1
  Charge       = 0
  Multiplicity = 1
  Basis Set: AUG-CC-PVTZ
    Blend: AUG-CC-PVTZ
  Basis Set: (AUG-CC-PVTZ AUX)
    Blend: AUG-CC-PVTZ-JKFIT

    Orbital Energies [Eh]
    ---------------------

    Doubly Occupied:

       1A    -20.546672     2A    -15.540985     3A    -11.357410
       4A    -11.255624     5A    -11.246306     6A    -11.244536
       7A    -11.231124     8A     -1.443140     9A     -1.182547
      10A     -1.083392    11A     -1.018564    12A     -0.893602
      13A     -0.822943    14A     -0.736375    15A     -0.686966
      16A     -0.662910    17A     -0.644749    18A     -0.621937
      19A     -0.604238    20A     -0.581121    21A     -0.572233
      22A     -0.517863    23A     -0.497302    24A     -0.492283
      25A     -0.486509    26A     -0.411148    27A     -0.359585

  @DF-RHF Final Energy:  -323.99488492981408

   => Energetics <=

    Nuclear Repulsion Energy =            312.8595121167879256
    One-Electron Energy =               -1060.2246660028554288
    Two-Electron Energy =                 423.3702689562533692
    Total Energy =                       -323.9948849298140772
  Basis Set: (AUG-CC-PVTZ AUX)
    Blend: AUG-CC-PVTZ-RI
    Molecular point group: c1

    Geometry (in Angstrom), charge = 0, multiplicity = 1:

       Center              X                  Y                   Z               Mass
    ------------   -----------------  -----------------  -----------------  -----------------
         O            2.282285916622    -0.050807478852     0.035463158065    15.994914619570
         N            0.306512916622    -1.170211478852    -0.058382841935    14.003074004430
         C           -1.837904083378    -0.018198478852    -0.307080841935    12.000000000000
         C           -1.168116083378     1.198770521148     0.321141158065    12.000000000000
         C           -1.132355083378    -1.284008478852     0.154451158065    12.000000000000
         C            0.283452916622     1.285977521148    -0.145179841935    12.000000000000
         C            1.159901716622     0.150047421148    -0.013604341935    12.000000000000
         H           -2.896506083378    -0.077256478852    -0.031272841935     1.007825032230
         H           -1.785020083378     0.052349521148    -1.400035841935     1.007825032230
         H           -1.203467083378     1.107848521148     1.414427158065     1.007825032230
         H           -1.702907083378     2.119184521148     0.062686158065     1.007825032230
         H           -1.354407083378    -1.459711478852     1.217602158065     1.007825032230
         H           -1.494109083378    -2.154534478852    -0.403217841935     1.007825032230
         H            0.852421916622     2.042283521148     0.402493158065     1.007825032230
         H            0.319386916622     1.571291521148    -1.204563841935     1.007825032230
         H            0.873424916622    -2.002678478852     0.074426158065     1.007825032230

  Basis Set: AUG-CC-PVTZ
    Blend: AUG-CC-PVTZ
  Basis Set: (AUG-CC-PVTZ AUX)
    Blend: AUG-CC-PVTZ-JKFIT
	 Reference Energy          =    -323.9948849298140772 [Eh]
	 Singles Energy            =      -0.0000000000000000 [Eh]
	 Same-Spin Energy          =      -0.3337580847156540 [Eh]
	 Opposite-Spin Energy      =      -1.0912000181804005 [Eh]
	 Correlation Energy        =      -1.4249581028960545 [Eh]
	 Total Energy              =    -325.4198430327101050 [Eh]

	 ================> DF-SCS-MP2 Energies <==================
	-----------------------------------------------------------
	 SCS Same-Spin Scale       =       0.3333333333333333 [-]
	 SCS Opposite-Spin Scale   =       1.2000000000000000 [-]
	 SCS Same-Spin Energy      =      -0.1112526949052180 [Eh]
	 SCS Opposite-Spin Energy  =      -1.3094400218164806 [Eh]
	 SCS Correlation Energy    =      -1.4206927167216985 [Eh]
	 SCS Total Energy          =    -325.4155776465357803 [Eh]
	-----------------------------------------------------------

  Dipole Moment: [D]
     X:    -2.9178      Y:     0.7099      Z:     0.1969     Total:     3.0094

*** Psi4 exiting successfully. Buy a developer a beer!
