                               Psi4 1.3.2 release

  ==> Input File <==

--------------------------------------------------------------------------
#psi4
#
memory 32 gb

molecule  {
0 1
  O        2.3693018    -0.0860673     0.0378525
  N        0.3955610    -1.1626000    -0.0589710
  C       -1.7488560    -0.0105870    -0.3076690
  C       -1.0790680     1.2063820     0.3205530
  C       -1.0433070    -1.2763970     0.1538630
  C        0.3725010     1.2935890    -0.1457680
  C        1.1404240    -0.0102390    -0.0198870
  H       -2.8074580    -0.0696450    -0.0318610
  H       -1.6959720     0.0599610    -1.4006240
  H       -1.1144190     1.1154600     1.4138390
  H       -1.6138590     2.1267960     0.0620980
  H       -1.2653590    -1.4521000     1.2170140
  H       -1.4050610    -2.1469230    -0.4038060
  H        0.9414700     2.0498950     0.4019050
  H        0.4084350     1.5789030    -1.2051520
  H        0.9624730    -1.9950670     0.0738380
units angstrom
no_reorient  #important for SAPT in psi4, default
symmetry c1  #important for SAPT in psi4, default
}

set PROPERTIES_ORIGIN ["COM"]
properties('MP2/aug-cc-pvtz', properties = ['dipole'])
--------------------------------------------------------------------------

    Molecular point group: c1
  Charge       = 0
  Multiplicity = 1
  Basis Set: AUG-CC-PVTZ
    Blend: AUG-CC-PVTZ
  Basis Set: (AUG-CC-PVTZ AUX)
    Blend: AUG-CC-PVTZ-JKFIT

    Orbital Energies [Eh]
    ---------------------

    Doubly Occupied:

       1A    -20.509615     2A    -15.579385     3A    -11.346078
       4A    -11.277125     5A    -11.241129     6A    -11.240534
       7A    -11.240020     8A     -1.366058     9A     -1.229515
      10A     -1.088609    11A     -1.019018    12A     -0.897232
      13A     -0.843615    14A     -0.754536    15A     -0.692389
      16A     -0.650736    17A     -0.638443    18A     -0.613041
      19A     -0.594391    20A     -0.588912    21A     -0.571365
      22A     -0.504627    23A     -0.496628    24A     -0.488474
      25A     -0.484505    26A     -0.411820    27A     -0.384835

  @DF-RHF Final Energy:  -324.03231874284398

   => Energetics <=

    Nuclear Repulsion Energy =            313.5582810579390411
    One-Electron Energy =               -1061.6759284532447509
    Two-Electron Energy =                 424.0853286524617829
    Total Energy =                       -324.0323187428439837
  Basis Set: (AUG-CC-PVTZ AUX)
    Blend: AUG-CC-PVTZ-RI
    Molecular point group: c1

    Geometry (in Angstrom), charge = 0, multiplicity = 1:

       Center              X                  Y                   Z               Mass
    ------------   -----------------  -----------------  -----------------  -----------------
         O            2.293727380050    -0.066419862751     0.038649696858    15.994914619570
         N            0.319986580050    -1.142952562751    -0.058173803142    14.003074004430
         C           -1.824430419950     0.009060437249    -0.306871803142    12.000000000000
         C           -1.154642419950     1.226029437249     0.321350196858    12.000000000000
         C           -1.118881419950    -1.256749562751     0.154660196858    12.000000000000
         C            0.296926580050     1.313236437249    -0.144970803142    12.000000000000
         C            1.064849580050     0.009408437249    -0.019089803142    12.000000000000
         H           -2.883032419950    -0.049997562751    -0.031063803142     1.007825032230
         H           -1.771546419950     0.079608437249    -1.399826803142     1.007825032230
         H           -1.189993419950     1.135107437249     1.414636196858     1.007825032230
         H           -1.689433419950     2.146443437249     0.062895196858     1.007825032230
         H           -1.340933419950    -1.432452562751     1.217811196858     1.007825032230
         H           -1.480635419950    -2.127275562751    -0.403008803142     1.007825032230
         H            0.865895580050     2.069542437249     0.402702196858     1.007825032230
         H            0.332860580050     1.598550437249    -1.204354803142     1.007825032230
         H            0.886898580050    -1.975419562751     0.074635196858     1.007825032230

  Basis Set: AUG-CC-PVTZ
    Blend: AUG-CC-PVTZ
  Basis Set: (AUG-CC-PVTZ AUX)
    Blend: AUG-CC-PVTZ-JKFIT
	 Reference Energy          =    -324.0323187428439837 [Eh]
	 Singles Energy            =      -0.0000000000000000 [Eh]
	 Same-Spin Energy          =      -0.3337939036667850 [Eh]
	 Opposite-Spin Energy      =      -1.0911460153709465 [Eh]
	 Correlation Energy        =      -1.4249399190377314 [Eh]
	 Total Energy              =    -325.4572586618817240 [Eh]

	 ================> DF-SCS-MP2 Energies <==================
	-----------------------------------------------------------
	 SCS Same-Spin Scale       =       0.3333333333333333 [-]
	 SCS Opposite-Spin Scale   =       1.2000000000000000 [-]
	 SCS Same-Spin Energy      =      -0.1112646345555950 [Eh]
	 SCS Opposite-Spin Energy  =      -1.3093752184451357 [Eh]
	 SCS Correlation Energy    =      -1.4206398530007307 [Eh]
	 SCS Total Energy          =    -325.4529585958447342 [Eh]
	-----------------------------------------------------------

  Dipole Moment: [D]
     X:    -4.2365      Y:    -0.4584      Z:     0.1507     Total:     4.2639

*** Psi4 exiting successfully. Buy a developer a beer!
