                               Psi4 1.3.2 release

  ==> Input File <==

--------------------------------------------------------------------------
#psi4
#
memory 32 gb

molecule  {
0 1
  O        2.3713340    -0.0431960     0.0348750
  N        0.3955610    -1.1626000    -0.0589710
  C       -1.7488560    -0.0105870    -0.3076690
  C       -1.0790680     1.2063820     0.3205530
  C       -1.0433070    -1.2763970     0.1538630
  C        0.3725010     1.2935890    -0.1457680
  C        1.2178503    -0.0647632    -0.0053158
  H       -2.8074580    -0.0696450    -0.0318610
  H       -1.6959720     0.0599610    -1.4006240
  H       -1.1144190     1.1154600     1.4138390
  H       -1.6138590     2.1267960     0.0620980
  H       -1.2653590    -1.4521000     1.2170140
  H       -1.4050610    -2.1469230    -0.4038060
  H        0.9414700     2.0498950     0.4019050
  H        0.4084350     1.5789030    -1.2051520
  H        0.9624730    -1.9950670     0.0738380
units angstrom
no_reorient  #important for SAPT in psi4, default
symmetry c1  #important for SAPT in psi4, default
}

set PROPERTIES_ORIGIN ["COM"]
properties('MP2/aug-cc-pvtz', properties = ['dipole'])
--------------------------------------------------------------------------

    Molecular point group: c1
  Charge       = 0
  Multiplicity = 1
  Basis Set: AUG-CC-PVTZ
    Blend: AUG-CC-PVTZ
  Basis Set: (AUG-CC-PVTZ AUX)
    Blend: AUG-CC-PVTZ-JKFIT

    Orbital Energies [Eh]
    ---------------------

    Doubly Occupied:

       1A    -20.522182     2A    -15.576233     3A    -11.341121
       4A    -11.278131     5A    -11.236327     6A    -11.233996
       7A    -11.231106     8A     -1.419170     9A     -1.235159
      10A     -1.080730    11A     -1.007317    12A     -0.887914
      13A     -0.835319    14A     -0.745895    15A     -0.695300
      16A     -0.654204    17A     -0.648598    18A     -0.610804
      19A     -0.600722    20A     -0.590099    21A     -0.568533
      22A     -0.515690    23A     -0.501527    24A     -0.486128
      25A     -0.480755    26A     -0.400214    27A     -0.392307

  @DF-RHF Final Energy:  -324.02499633623961

   => Energetics <=

    Nuclear Repulsion Energy =            313.5179556522967914
    One-Electron Energy =               -1061.5349439468079709
    Two-Electron Energy =                 423.9919919582715693
    Total Energy =                       -324.0249963362396102
  Basis Set: (AUG-CC-PVTZ AUX)
    Blend: AUG-CC-PVTZ-RI
    Molecular point group: c1

    Geometry (in Angstrom), charge = 0, multiplicity = 1:

       Center              X                  Y                   Z               Mass
    ------------   -----------------  -----------------  -----------------  -----------------
         O            2.286052949778    -0.023865842314     0.034387937459    15.994914619570
         N            0.310279949778    -1.143269842314    -0.059458062541    14.003074004430
         C           -1.834137050222     0.008743157686    -0.308156062541    12.000000000000
         C           -1.164349050222     1.225712157686     0.320065937459    12.000000000000
         C           -1.128588050222    -1.257066842314     0.153375937459    12.000000000000
         C            0.287219949778     1.312919157686    -0.146255062541    12.000000000000
         C            1.132569249778    -0.045433042314    -0.005802862541    12.000000000000
         H           -2.892739050222    -0.050314842314    -0.032348062541     1.007825032230
         H           -1.781253050222     0.079291157686    -1.401111062541     1.007825032230
         H           -1.199700050222     1.134790157686     1.413351937459     1.007825032230
         H           -1.699140050222     2.146126157686     0.061610937459     1.007825032230
         H           -1.350640050222    -1.432769842314     1.216526937459     1.007825032230
         H           -1.490342050222    -2.127592842314    -0.404293062541     1.007825032230
         H            0.856188949778     2.069225157686     0.401417937459     1.007825032230
         H            0.323153949778     1.598233157686    -1.205639062541     1.007825032230
         H            0.877191949778    -1.975736842314     0.073350937459     1.007825032230

  Basis Set: AUG-CC-PVTZ
    Blend: AUG-CC-PVTZ
  Basis Set: (AUG-CC-PVTZ AUX)
    Blend: AUG-CC-PVTZ-JKFIT
	 Reference Energy          =    -324.0249963362396102 [Eh]
	 Singles Energy            =      -0.0000000000000000 [Eh]
	 Same-Spin Energy          =      -0.3321126161039241 [Eh]
	 Opposite-Spin Energy      =      -1.0880355025320201 [Eh]
	 Correlation Energy        =      -1.4201481186359441 [Eh]
	 Total Energy              =    -325.4451444548755603 [Eh]

	 ================> DF-SCS-MP2 Energies <==================
	-----------------------------------------------------------
	 SCS Same-Spin Scale       =       0.3333333333333333 [-]
	 SCS Opposite-Spin Scale   =       1.2000000000000000 [-]
	 SCS Same-Spin Energy      =      -0.1107042053679747 [Eh]
	 SCS Opposite-Spin Energy  =      -1.3056426030384241 [Eh]
	 SCS Correlation Energy    =      -1.4163468084063988 [Eh]
	 SCS Total Energy          =    -325.4413431446459981 [Eh]
	-----------------------------------------------------------

  Dipole Moment: [D]
     X:    -3.6765      Y:    -0.7848      Z:     0.2229     Total:     3.7660

*** Psi4 exiting successfully. Buy a developer a beer!
