                               Psi4 1.4a3.dev225

  ==> Input File <==

--------------------------------------------------------------------------
#psi4
#
memory 32 gb

molecule  {
0 1
  O        2.3713340    -0.0431960     0.0348750
  N        0.3955610    -1.1626000    -0.0589710
  C       -1.7488560    -0.0105870    -0.3076690
  C       -1.0790680     1.2063820     0.3205530
  C       -1.0433070    -1.2763970     0.1538630
  C        0.3725010     1.2935890    -0.1457680
  C        1.1151367     0.0326955    -0.0240322
  H       -2.8074580    -0.0696450    -0.0318610
  H       -1.6959720     0.0599610    -1.4006240
  H       -1.1144190     1.1154600     1.4138390
  H       -1.6138590     2.1267960     0.0620980
  H       -1.2653590    -1.4521000     1.2170140
  H       -1.4050610    -2.1469230    -0.4038060
  H        0.9414700     2.0498950     0.4019050
  H        0.4084350     1.5789030    -1.2051520
  H        0.9624730    -1.9950670     0.0738380
units angstrom
no_reorient  #important for SAPT in psi4, default
symmetry c1  #important for SAPT in psi4, default
}

set PROPERTIES_ORIGIN ["COM"]
properties('MP2/aug-cc-pvtz', properties = ['dipole'])
--------------------------------------------------------------------------

    Molecular point group: c1
  Charge       = 0
  Multiplicity = 1
  Basis Set: AUG-CC-PVTZ
    Blend: AUG-CC-PVTZ
  Basis Set: (AUG-CC-PVTZ AUX)
    Blend: AUG-CC-PVTZ-JKFIT

    Orbital Energies [Eh]
    ---------------------

    Doubly Occupied:

       1A    -20.508872     2A    -15.580837     3A    -11.350308
       4A    -11.276079     5A    -11.242799     6A    -11.241006
       7A    -11.240862     8A     -1.350230     9A     -1.223891
      10A     -1.091938    11A     -1.024069    12A     -0.900914
      13A     -0.844500    14A     -0.756139    15A     -0.691229
      16A     -0.651812    17A     -0.636367    18A     -0.615130
      19A     -0.594300    20A     -0.587419    21A     -0.572531
      22A     -0.502444    23A     -0.497112    24A     -0.484996
      25A     -0.483083    26A     -0.414217    27A     -0.381729

  @DF-RHF Final Energy:  -324.02613350147010

   => Energetics <=

    Nuclear Repulsion Energy =            313.4817666156694713
    One-Electron Energy =               -1061.5261769666801683
    Two-Electron Energy =                 424.0182768495405981
    Total Energy =                       -324.0261335014700990
  Basis Set: (AUG-CC-PVTZ AUX)
    Blend: AUG-CC-PVTZ-RI
    Molecular point group: c1

    Geometry (in Angstrom), charge = 0, multiplicity = 1:

       Center              X                  Y                   Z               Mass
    ------------   -----------------  -----------------  -----------------  -----------------
         O            2.298494485393    -0.035670860219     0.036655025334    15.994914619570
         N            0.322721485393    -1.155074860219    -0.057190974666    14.003074004430
         C           -1.821695514607    -0.003061860219    -0.305888974666    12.000000000000
         C           -1.151907514607     1.213907139781     0.322333025334    12.000000000000
         C           -1.116146514607    -1.268871860219     0.155643025334    12.000000000000
         C            0.299661485393     1.301114139781    -0.143987974666    12.000000000000
         C            1.042297185393     0.040220639781    -0.022252174666    12.000000000000
         H           -2.880297514607    -0.062119860219    -0.030080974666     1.007825032230
         H           -1.768811514607     0.067486139781    -1.398843974666     1.007825032230
         H           -1.187258514607     1.122985139781     1.415619025334     1.007825032230
         H           -1.686698514607     2.134321139781     0.063878025334     1.007825032230
         H           -1.338198514607    -1.444574860219     1.218794025334     1.007825032230
         H           -1.477900514607    -2.139397860219    -0.402025974666     1.007825032230
         H            0.868630485393     2.057420139781     0.403685025334     1.007825032230
         H            0.335595485393     1.586428139781    -1.203371974666     1.007825032230
         H            0.889633485393    -1.987541860219     0.075618025334     1.007825032230

  Basis Set: AUG-CC-PVTZ
    Blend: AUG-CC-PVTZ
  Basis Set: (AUG-CC-PVTZ AUX)
    Blend: AUG-CC-PVTZ-JKFIT
	 Reference Energy          =    -324.0261335014700990 [Eh]
	 Singles Energy            =      -0.0000000000000000 [Eh]
	 Same-Spin Energy          =      -0.3347899305495526 [Eh]
	 Opposite-Spin Energy      =      -1.0930416372202576 [Eh]
	 Correlation Energy        =      -1.4278315677698101 [Eh]
	 Total Energy              =    -325.4539650692399277 [Eh]

	 ================> DF-SCS-MP2 Energies <==================
	-----------------------------------------------------------
	 SCS Same-Spin Scale       =       0.3333333333333333 [-]
	 SCS Opposite-Spin Scale   =       1.2000000000000000 [-]
	 SCS Same-Spin Energy      =      -0.1115966435165175 [Eh]
	 SCS Opposite-Spin Energy  =      -1.3116499646643092 [Eh]
	 SCS Correlation Energy    =      -1.4232466081808266 [Eh]
	 SCS Total Energy          =    -325.4493801096509173 [Eh]
	-----------------------------------------------------------

  Dipole Moment: [D]
     X:    -4.3279      Y:    -0.3783      Z:     0.1356     Total:     4.3465

*** Psi4 exiting successfully. Buy a developer a beer!
