                               Psi4 1.3.2 release

  ==> Input File <==

--------------------------------------------------------------------------
#psi4
#
memory 32 gb

molecule  {
0 1
  O        2.3713340    -0.0431960     0.0348750
  N        0.3955610    -1.1626000    -0.0589710
  C       -1.7488560    -0.0105870    -0.3076690
  C       -1.0790680     1.2063820     0.3205530
  C       -1.0267545    -1.4264412     0.1307540
  C        0.3725010     1.2935890    -0.1457680
  C        1.1404240    -0.0102390    -0.0198870
  H       -2.8074580    -0.0696450    -0.0318610
  H       -1.6959720     0.0599610    -1.4006240
  H       -1.1144190     1.1154600     1.4138390
  H       -1.6138590     2.1267960     0.0620980
  H       -1.2653590    -1.4521000     1.2170140
  H       -1.4050610    -2.1469230    -0.4038060
  H        0.9414700     2.0498950     0.4019050
  H        0.4084350     1.5789030    -1.2051520
  H        0.9624730    -1.9950670     0.0738380
units angstrom
no_reorient  #important for SAPT in psi4, default
symmetry c1  #important for SAPT in psi4, default
}

set PROPERTIES_ORIGIN ["COM"]
properties('MP2/aug-cc-pvtz', properties = ['dipole'])
--------------------------------------------------------------------------

    Molecular point group: c1
  Charge       = 0
  Multiplicity = 1
  Basis Set: AUG-CC-PVTZ
    Blend: AUG-CC-PVTZ
  Basis Set: (AUG-CC-PVTZ AUX)
    Blend: AUG-CC-PVTZ-JKFIT

    Orbital Energies [Eh]
    ---------------------

    Doubly Occupied:

       1A    -20.511284     2A    -15.582056     3A    -11.349526
       4A    -11.276875     5A    -11.244306     6A    -11.240441
       7A    -11.238048     8A     -1.366089     9A     -1.228703
      10A     -1.081747    11A     -1.011788    12A     -0.905325
      13A     -0.842072    14A     -0.751369    15A     -0.694998
      16A     -0.668634    17A     -0.640637    18A     -0.614112
      19A     -0.590767    20A     -0.589162    21A     -0.564946
      22A     -0.511190    23A     -0.491142    24A     -0.486589
      25A     -0.464872    26A     -0.411749    27A     -0.387052

  @DF-RHF Final Energy:  -324.00694410826355

   => Energetics <=

    Nuclear Repulsion Energy =            311.7022675933948790
    One-Electron Energy =               -1057.9274655304052430
    Two-Electron Energy =                 422.2182538287467537
    Total Energy =                       -324.0069441082635535
  Basis Set: (AUG-CC-PVTZ AUX)
    Blend: AUG-CC-PVTZ-RI
    Molecular point group: c1

    Geometry (in Angstrom), charge = 0, multiplicity = 1:

       Center              X                  Y                   Z               Mass
    ------------   -----------------  -----------------  -----------------  -----------------
         O            2.293426496716    -0.012295656069     0.038952080379    15.994914619570
         N            0.317653496716    -1.131699656069    -0.054893919621    14.003074004430
         C           -1.826763503284     0.020313343931    -0.303591919621    12.000000000000
         C           -1.156975503284     1.237282343931     0.324630080379    12.000000000000
         C           -1.104662003284    -1.395540856069     0.134831080379    12.000000000000
         C            0.294593496716     1.324489343931    -0.141690919621    12.000000000000
         C            1.062516496716     0.020661343931    -0.015809919621    12.000000000000
         H           -2.885365503284    -0.038744656069    -0.027783919621     1.007825032230
         H           -1.773879503284     0.090861343931    -1.396546919621     1.007825032230
         H           -1.192326503284     1.146360343931     1.417916080379     1.007825032230
         H           -1.691766503284     2.157696343931     0.066175080379     1.007825032230
         H           -1.343266503284    -1.421199656069     1.221091080379     1.007825032230
         H           -1.482968503284    -2.116022656069    -0.399728919621     1.007825032230
         H            0.863562496716     2.080795343931     0.405982080379     1.007825032230
         H            0.330527496716     1.609803343931    -1.201074919621     1.007825032230
         H            0.884565496716    -1.964166656069     0.077915080379     1.007825032230

  Basis Set: AUG-CC-PVTZ
    Blend: AUG-CC-PVTZ
  Basis Set: (AUG-CC-PVTZ AUX)
    Blend: AUG-CC-PVTZ-JKFIT
	 Reference Energy          =    -324.0069441082635535 [Eh]
	 Singles Energy            =      -0.0000000000000000 [Eh]
	 Same-Spin Energy          =      -0.3337845509863921 [Eh]
	 Opposite-Spin Energy      =      -1.0923510375232106 [Eh]
	 Correlation Energy        =      -1.4261355885096028 [Eh]
	 Total Energy              =    -325.4330796967731771 [Eh]

	 ================> DF-SCS-MP2 Energies <==================
	-----------------------------------------------------------
	 SCS Same-Spin Scale       =       0.3333333333333333 [-]
	 SCS Opposite-Spin Scale   =       1.2000000000000000 [-]
	 SCS Same-Spin Energy      =      -0.1112615169954640 [Eh]
	 SCS Opposite-Spin Energy  =      -1.3108212450278527 [Eh]
	 SCS Correlation Energy    =      -1.4220827620233167 [Eh]
	 SCS Total Energy          =    -325.4290268702868616 [Eh]
	-----------------------------------------------------------

  Dipole Moment: [D]
     X:    -4.2042      Y:    -0.6360      Z:     0.1221     Total:     4.2538

*** Psi4 exiting successfully. Buy a developer a beer!
