                               Psi4 1.3.2 release

  ==> Input File <==

--------------------------------------------------------------------------
#psi4
#
memory 32 gb

molecule  {
0 1
  O        2.3713340    -0.0431960     0.0348750
  N        0.3955610    -1.1626000    -0.0589710
  C       -1.7488560    -0.0105870    -0.3076690
  C       -1.0753618     1.1806712     0.3265198
  C       -1.0433070    -1.2763970     0.1538630
  C        0.3725010     1.2935890    -0.1457680
  C        1.1404240    -0.0102390    -0.0198870
  H       -2.8074580    -0.0696450    -0.0318610
  H       -1.6959720     0.0599610    -1.4006240
  H       -1.1144190     1.1154600     1.4138390
  H       -1.6138590     2.1267960     0.0620980
  H       -1.2653590    -1.4521000     1.2170140
  H       -1.4050610    -2.1469230    -0.4038060
  H        0.9414700     2.0498950     0.4019050
  H        0.4084350     1.5789030    -1.2051520
  H        0.9624730    -1.9950670     0.0738380
units angstrom
no_reorient  #important for SAPT in psi4, default
symmetry c1  #important for SAPT in psi4, default
}

set PROPERTIES_ORIGIN ["COM"]
properties('MP2/aug-cc-pvtz', properties = ['dipole'])
--------------------------------------------------------------------------

    Molecular point group: c1
  Charge       = 0
  Multiplicity = 1
  Basis Set: AUG-CC-PVTZ
    Blend: AUG-CC-PVTZ
  Basis Set: (AUG-CC-PVTZ AUX)
    Blend: AUG-CC-PVTZ-JKFIT

    Orbital Energies [Eh]
    ---------------------

    Doubly Occupied:

       1A    -20.509864     2A    -15.581671     3A    -11.345563
       4A    -11.278060     5A    -11.240530     6A    -11.239591
       7A    -11.238680     8A     -1.365322     9A     -1.232212
      10A     -1.090169    11A     -1.019150    12A     -0.897237
      13A     -0.842503    14A     -0.755799    15A     -0.693797
      16A     -0.650137    17A     -0.637944    18A     -0.613865
      19A     -0.593551    20A     -0.588406    21A     -0.571523
      22A     -0.504870    23A     -0.496165    24A     -0.488535
      25A     -0.485338    26A     -0.409449    27A     -0.386771

  @DF-RHF Final Energy:  -324.03167648810961

   => Energetics <=

    Nuclear Repulsion Energy =            313.8454422633129752
    One-Electron Energy =               -1062.2408342201213145
    Two-Electron Energy =                 424.3637154686987287
    Total Energy =                       -324.0316764881096105
  Basis Set: (AUG-CC-PVTZ AUX)
    Blend: AUG-CC-PVTZ-RI
    Molecular point group: c1

    Geometry (in Angstrom), charge = 0, multiplicity = 1:

       Center              X                  Y                   Z               Mass
    ------------   -----------------  -----------------  -----------------  -----------------
         O            2.294982548679    -0.027355963801     0.035430174797    15.994914619570
         N            0.319209548679    -1.146759963801    -0.058415825203    14.003074004430
         C           -1.825207451321     0.005253036199    -0.307113825203    12.000000000000
         C           -1.151713251321     1.196511236199     0.327074974797    12.000000000000
         C           -1.119658451321    -1.260556963801     0.154418174797    12.000000000000
         C            0.296149548679     1.309429036199    -0.145212825203    12.000000000000
         C            1.064072548679     0.005601036199    -0.019331825203    12.000000000000
         H           -2.883809451321    -0.053804963801    -0.031305825203     1.007825032230
         H           -1.772323451321     0.075801036199    -1.400068825203     1.007825032230
         H           -1.190770451321     1.131300036199     1.414394174797     1.007825032230
         H           -1.690210451321     2.142636036199     0.062653174797     1.007825032230
         H           -1.341710451321    -1.436259963801     1.217569174797     1.007825032230
         H           -1.481412451321    -2.131082963801    -0.403250825203     1.007825032230
         H            0.865118548679     2.065735036199     0.402460174797     1.007825032230
         H            0.332083548679     1.594743036199    -1.204596825203     1.007825032230
         H            0.886121548679    -1.979226963801     0.074393174797     1.007825032230

  Basis Set: AUG-CC-PVTZ
    Blend: AUG-CC-PVTZ
  Basis Set: (AUG-CC-PVTZ AUX)
    Blend: AUG-CC-PVTZ-JKFIT
	 Reference Energy          =    -324.0316764881096105 [Eh]
	 Singles Energy            =      -0.0000000000000000 [Eh]
	 Same-Spin Energy          =      -0.3339129929873251 [Eh]
	 Opposite-Spin Energy      =      -1.0912822662192732 [Eh]
	 Correlation Energy        =      -1.4251952592065984 [Eh]
	 Total Energy              =    -325.4568717473161996 [Eh]

	 ================> DF-SCS-MP2 Energies <==================
	-----------------------------------------------------------
	 SCS Same-Spin Scale       =       0.3333333333333333 [-]
	 SCS Opposite-Spin Scale   =       1.2000000000000000 [-]
	 SCS Same-Spin Energy      =      -0.1113043309957750 [Eh]
	 SCS Opposite-Spin Energy  =      -1.3095387194631278 [Eh]
	 SCS Correlation Energy    =      -1.4208430504589029 [Eh]
	 SCS Total Energy          =    -325.4525195385685379 [Eh]
	-----------------------------------------------------------

  Dipole Moment: [D]
     X:    -4.2312      Y:    -0.5869      Z:     0.1613     Total:     4.2747

*** Psi4 exiting successfully. Buy a developer a beer!
