                               Psi4 1.4a3.dev225

  ==> Input File <==

--------------------------------------------------------------------------
#psi4
#
memory 32 gb

molecule  {
0 1
  O        2.3713340    -0.0431960     0.0348750
  N        0.3955610    -1.1626000    -0.0589710
  C       -1.7488560    -0.0105870    -0.3076690
  C       -1.0790680     1.2063820     0.3205530
  C       -1.0433070    -1.2763970     0.1538630
  C        0.3725010     1.2935890    -0.1457680
  C        1.1404240    -0.0102390    -0.0198870
  H       -2.8074580    -0.0696450    -0.0318610
  H       -1.6959720     0.0599610    -1.4006240
  H       -1.1144190     1.1154600     1.4138390
  H       -1.6138590     2.1267960     0.0620980
  H       -1.2653590    -1.4521000     1.2170140
  H       -1.4050610    -2.1469230    -0.4038060
  H        0.9414700     2.0498950     0.4019050
  H        0.4084350     1.5789030    -1.2051520
  H        0.9903753    -2.0360394     0.0803746
units angstrom
no_reorient  #important for SAPT in psi4, default
symmetry c1  #important for SAPT in psi4, default
}

set PROPERTIES_ORIGIN ["COM"]
properties('MP2/aug-cc-pvtz', properties = ['dipole'])
--------------------------------------------------------------------------

    Molecular point group: c1
  Charge       = 0
  Multiplicity = 1
  Basis Set: AUG-CC-PVTZ
    Blend: AUG-CC-PVTZ
  Basis Set: (AUG-CC-PVTZ AUX)
    Blend: AUG-CC-PVTZ-JKFIT

    Orbital Energies [Eh]
    ---------------------

    Doubly Occupied:

       1A    -20.509626     2A    -15.585896     3A    -11.345870
       4A    -11.278141     5A    -11.240279     6A    -11.239586
       7A    -11.238568     8A     -1.364460     9A     -1.227697
      10A     -1.086362    11A     -1.018423    12A     -0.895364
      13A     -0.842112    14A     -0.747856    15A     -0.690509
      16A     -0.649480    17A     -0.638480    18A     -0.612567
      19A     -0.592757    20A     -0.587234    21A     -0.570285
      22A     -0.504300    23A     -0.496042    24A     -0.487288
      25A     -0.483252    26A     -0.410651    27A     -0.385787

  @DF-RHF Final Energy:  -324.02890502222056

   => Energetics <=

    Nuclear Repulsion Energy =            313.2296551551054904
    One-Electron Energy =               -1061.0593740135598182
    Two-Electron Energy =                 423.8008138362337149
    Total Energy =                       -324.0289050222205560
  Basis Set: (AUG-CC-PVTZ AUX)
    Blend: AUG-CC-PVTZ-RI
    Molecular point group: c1

    Geometry (in Angstrom), charge = 0, multiplicity = 1:

       Center              X                  Y                   Z               Mass
    ------------   -----------------  -----------------  -----------------  -----------------
         O            2.295147624135    -0.030053459189     0.036086426859    15.994914619570
         N            0.319374624135    -1.149457459189    -0.057759573141    14.003074004430
         C           -1.825042375865     0.002555540811    -0.306457573141    12.000000000000
         C           -1.155254375865     1.219524540811     0.321764426859    12.000000000000
         C           -1.119493375865    -1.263254459189     0.155074426859    12.000000000000
         C            0.296314624135     1.306731540811    -0.144556573141    12.000000000000
         C            1.064237624135     0.002903540811    -0.018675573141    12.000000000000
         H           -2.883644375865    -0.056502459189    -0.030649573141     1.007825032230
         H           -1.772158375865     0.073103540811    -1.399412573141     1.007825032230
         H           -1.190605375865     1.128602540811     1.415050426859     1.007825032230
         H           -1.690045375865     2.139938540811     0.063309426859     1.007825032230
         H           -1.341545375865    -1.438957459189     1.218225426859     1.007825032230
         H           -1.481247375865    -2.133780459189    -0.402594573141     1.007825032230
         H            0.865283624135     2.063037540811     0.403116426859     1.007825032230
         H            0.332248624135     1.592045540811    -1.203940573141     1.007825032230
         H            0.914188924135    -2.022896859189     0.081586026859     1.007825032230

  Basis Set: AUG-CC-PVTZ
    Blend: AUG-CC-PVTZ
  Basis Set: (AUG-CC-PVTZ AUX)
    Blend: AUG-CC-PVTZ-JKFIT
	 Reference Energy          =    -324.0289050222205560 [Eh]
	 Singles Energy            =      -0.0000000000000000 [Eh]
	 Same-Spin Energy          =      -0.3341744780365086 [Eh]
	 Opposite-Spin Energy      =      -1.0921082734109904 [Eh]
	 Correlation Energy        =      -1.4262827514474989 [Eh]
	 Total Energy              =    -325.4551877736680581 [Eh]

	 ================> DF-SCS-MP2 Energies <==================
	-----------------------------------------------------------
	 SCS Same-Spin Scale       =       0.3333333333333333 [-]
	 SCS Opposite-Spin Scale   =       1.2000000000000000 [-]
	 SCS Same-Spin Energy      =      -0.1113914926788362 [Eh]
	 SCS Opposite-Spin Energy  =      -1.3105299280931884 [Eh]
	 SCS Correlation Energy    =      -1.4219214207720245 [Eh]
	 SCS Total Energy          =    -325.4508264429925930 [Eh]
	-----------------------------------------------------------

  Dipole Moment: [D]
     X:    -4.2195      Y:    -0.6114      Z:     0.1628     Total:     4.2667

*** Psi4 exiting successfully. Buy a developer a beer!
