                               Psi4 1.3.2 release

  ==> Input File <==

--------------------------------------------------------------------------
#psi4
#
memory 32 gb

molecule  {
0 1
  O        2.3713340    -0.0431960     0.0348750
  N        0.3955610    -1.1626000    -0.0589710
  C       -1.7488560    -0.0105870    -0.3076690
  C       -1.0790680     1.2063820     0.3205530
  C       -0.8460624    -1.2607973     0.1246870
  C        0.3725010     1.2935890    -0.1457680
  C        1.1404240    -0.0102390    -0.0198870
  H       -2.8074580    -0.0696450    -0.0318610
  H       -1.6959720     0.0599610    -1.4006240
  H       -1.1144190     1.1154600     1.4138390
  H       -1.6138590     2.1267960     0.0620980
  H       -1.2653590    -1.4521000     1.2170140
  H       -1.4050610    -2.1469230    -0.4038060
  H        0.9414700     2.0498950     0.4019050
  H        0.4084350     1.5789030    -1.2051520
  H        0.9624730    -1.9950670     0.0738380
units angstrom
no_reorient  #important for SAPT in psi4, default
symmetry c1  #important for SAPT in psi4, default
}

set PROPERTIES_ORIGIN ["COM"]
properties('MP2/aug-cc-pvtz', properties = ['dipole'])
--------------------------------------------------------------------------

    Molecular point group: c1
  Charge       = 0
  Multiplicity = 1
  Basis Set: AUG-CC-PVTZ
    Blend: AUG-CC-PVTZ
  Basis Set: (AUG-CC-PVTZ AUX)
    Blend: AUG-CC-PVTZ-JKFIT

    Orbital Energies [Eh]
    ---------------------

    Doubly Occupied:

       1A    -20.522087     2A    -15.588221     3A    -11.356451
       4A    -11.280234     5A    -11.242978     6A    -11.242062
       7A    -11.237730     8A     -1.382652     9A     -1.291390
      10A     -1.089846    11A     -1.008353    12A     -0.899651
      13A     -0.858855    14A     -0.768142    15A     -0.716569
      16A     -0.663264    17A     -0.643930    18A     -0.610558
      19A     -0.607033    20A     -0.595906    21A     -0.567384
      22A     -0.508730    23A     -0.494888    24A     -0.485732
      25A     -0.461243    26A     -0.413643    27A     -0.371778

  @DF-RHF Final Energy:  -323.98369183908471

   => Energetics <=

    Nuclear Repulsion Energy =            316.1706114031705397
    One-Electron Energy =               -1066.4899871159132090
    Two-Electron Energy =                 426.3356838736578993
    Total Energy =                       -323.9836918390847131
  Basis Set: (AUG-CC-PVTZ AUX)
    Blend: AUG-CC-PVTZ-RI
    Molecular point group: c1

    Geometry (in Angstrom), charge = 0, multiplicity = 1:

       Center              X                  Y                   Z               Mass
    ------------   -----------------  -----------------  -----------------  -----------------
         O            2.271539548956    -0.032359839208     0.039686966476    15.994914619570
         N            0.295766548956    -1.151763839208    -0.054159033524    14.003074004430
         C           -1.848650451044     0.000249160792    -0.302857033524    12.000000000000
         C           -1.178862451044     1.217218160792     0.325364966476    12.000000000000
         C           -0.945856851044    -1.249961139208     0.129498966476    12.000000000000
         C            0.272706548956     1.304425160792    -0.140956033524    12.000000000000
         C            1.040629548956     0.000597160792    -0.015075033524    12.000000000000
         H           -2.907252451044    -0.058808839208    -0.027049033524     1.007825032230
         H           -1.795766451044     0.070797160792    -1.395812033524     1.007825032230
         H           -1.214213451044     1.126296160792     1.418650966476     1.007825032230
         H           -1.713653451044     2.137632160792     0.066909966476     1.007825032230
         H           -1.365153451044    -1.441263839208     1.221825966476     1.007825032230
         H           -1.504855451044    -2.136086839208    -0.398994033524     1.007825032230
         H            0.841675548956     2.060731160792     0.406716966476     1.007825032230
         H            0.308640548956     1.589739160792    -1.200340033524     1.007825032230
         H            0.862678548956    -1.984230839208     0.078649966476     1.007825032230

  Basis Set: AUG-CC-PVTZ
    Blend: AUG-CC-PVTZ
  Basis Set: (AUG-CC-PVTZ AUX)
    Blend: AUG-CC-PVTZ-JKFIT
	 Reference Energy          =    -323.9836918390847131 [Eh]
	 Singles Energy            =      -0.0000000000000000 [Eh]
	 Same-Spin Energy          =      -0.3358971412492533 [Eh]
	 Opposite-Spin Energy      =      -1.0935684633914970 [Eh]
	 Correlation Energy        =      -1.4294656046407503 [Eh]
	 Total Energy              =    -325.4131574437254812 [Eh]

	 ================> DF-SCS-MP2 Energies <==================
	-----------------------------------------------------------
	 SCS Same-Spin Scale       =       0.3333333333333333 [-]
	 SCS Opposite-Spin Scale   =       1.2000000000000000 [-]
	 SCS Same-Spin Energy      =      -0.1119657137497511 [Eh]
	 SCS Opposite-Spin Energy  =      -1.3122821560697964 [Eh]
	 SCS Correlation Energy    =      -1.4242478698195475 [Eh]
	 SCS Total Energy          =    -325.4079397089042800 [Eh]
	-----------------------------------------------------------

  Dipole Moment: [D]
     X:    -3.5186      Y:    -0.3580      Z:    -0.0400     Total:     3.5370

*** Psi4 exiting successfully. Buy a developer a beer!
