                               Psi4 1.4a3.dev225

  ==> Input File <==

--------------------------------------------------------------------------
#psi4
#
memory 32 gb

molecule  {
0 1
  O        2.3713340    -0.0431960     0.0348750
  N        0.3955610    -1.1626000    -0.0589710
  C       -1.7488560    -0.0105870    -0.3076690
  C       -1.0790680     1.2063820     0.3205530
  C       -0.9939959    -1.2724971     0.1465690
  C        0.3725010     1.2935890    -0.1457680
  C        1.1404240    -0.0102390    -0.0198870
  H       -2.8074580    -0.0696450    -0.0318610
  H       -1.6959720     0.0599610    -1.4006240
  H       -1.1144190     1.1154600     1.4138390
  H       -1.6138590     2.1267960     0.0620980
  H       -1.2653590    -1.4521000     1.2170140
  H       -1.4050610    -2.1469230    -0.4038060
  H        0.9414700     2.0498950     0.4019050
  H        0.4084350     1.5789030    -1.2051520
  H        0.9624730    -1.9950670     0.0738380
units angstrom
no_reorient  #important for SAPT in psi4, default
symmetry c1  #important for SAPT in psi4, default
}

set PROPERTIES_ORIGIN ["COM"]
properties('MP2/aug-cc-pvtz', properties = ['dipole'])
--------------------------------------------------------------------------

    Molecular point group: c1
  Charge       = 0
  Multiplicity = 1
  Basis Set: AUG-CC-PVTZ
    Blend: AUG-CC-PVTZ
  Basis Set: (AUG-CC-PVTZ AUX)
    Blend: AUG-CC-PVTZ-JKFIT

    Orbital Energies [Eh]
    ---------------------

    Doubly Occupied:

       1A    -20.512743     2A    -15.583673     3A    -11.348494
       4A    -11.277751     5A    -11.240361     6A    -11.239650
       7A    -11.238906     8A     -1.368775     9A     -1.244103
      10A     -1.088245    11A     -1.015872    12A     -0.896370
      13A     -0.846904    14A     -0.756827    15A     -0.699464
      16A     -0.652589    17A     -0.639480    18A     -0.610476
      19A     -0.597561    20A     -0.591489    21A     -0.570272
      22A     -0.505012    23A     -0.496063    24A     -0.487498
      25A     -0.479177    26A     -0.412497    27A     -0.385488

  @DF-RHF Final Energy:  -324.03013791977867

   => Energetics <=

    Nuclear Repulsion Energy =            314.1315091739936634
    One-Electron Energy =               -1062.7518148176509385
    Two-Electron Energy =                 424.5901677238786078
    Total Energy =                       -324.0301379197786673
  Basis Set: (AUG-CC-PVTZ AUX)
    Blend: AUG-CC-PVTZ-RI
    Molecular point group: c1

    Geometry (in Angstrom), charge = 0, multiplicity = 1:

       Center              X                  Y                   Z               Mass
    ------------   -----------------  -----------------  -----------------  -----------------
         O            2.289458499405    -0.030942660972     0.037036434489    15.994914619570
         N            0.313685499405    -1.150346660972    -0.056809565511    14.003074004430
         C           -1.830731500595     0.001666339028    -0.305507565511    12.000000000000
         C           -1.160943500595     1.218635339028     0.322714434489    12.000000000000
         C           -1.075871400595    -1.260243760972     0.148730434489    12.000000000000
         C            0.290625499405     1.305842339028    -0.143606565511    12.000000000000
         C            1.058548499405     0.002014339028    -0.017725565511    12.000000000000
         H           -2.889333500595    -0.057391660972    -0.029699565511     1.007825032230
         H           -1.777847500595     0.072214339028    -1.398462565511     1.007825032230
         H           -1.196294500595     1.127713339028     1.416000434489     1.007825032230
         H           -1.695734500595     2.139049339028     0.064259434489     1.007825032230
         H           -1.347234500595    -1.439846660972     1.219175434489     1.007825032230
         H           -1.486936500595    -2.134669660972    -0.401644565511     1.007825032230
         H            0.859594499405     2.062148339028     0.404066434489     1.007825032230
         H            0.326559499405     1.591156339028    -1.202990565511     1.007825032230
         H            0.880597499405    -1.982813660972     0.075999434489     1.007825032230

  Basis Set: AUG-CC-PVTZ
    Blend: AUG-CC-PVTZ
  Basis Set: (AUG-CC-PVTZ AUX)
    Blend: AUG-CC-PVTZ-JKFIT
	 Reference Energy          =    -324.0301379197786673 [Eh]
	 Singles Energy            =      -0.0000000000000000 [Eh]
	 Same-Spin Energy          =      -0.3340038199992533 [Eh]
	 Opposite-Spin Energy      =      -1.0912329882725103 [Eh]
	 Correlation Energy        =      -1.4252368082717637 [Eh]
	 Total Energy              =    -325.4553747280504581 [Eh]

	 ================> DF-SCS-MP2 Energies <==================
	-----------------------------------------------------------
	 SCS Same-Spin Scale       =       0.3333333333333333 [-]
	 SCS Opposite-Spin Scale   =       1.2000000000000000 [-]
	 SCS Same-Spin Energy      =      -0.1113346066664178 [Eh]
	 SCS Opposite-Spin Energy  =      -1.3094795859270123 [Eh]
	 SCS Correlation Energy    =      -1.4208141925934301 [Eh]
	 SCS Total Energy          =    -325.4509521123720788 [Eh]
	-----------------------------------------------------------

  Dipole Moment: [D]
     X:    -4.0767      Y:    -0.5392      Z:     0.1210     Total:     4.1140

*** Psi4 exiting successfully. Buy a developer a beer!
