                               Psi4 1.3.2 release

  ==> Input File <==

--------------------------------------------------------------------------
#psi4
#
memory 32 gb

molecule  {
0 1
  O        2.3713340    -0.0431960     0.0348750
  N        0.3955610    -1.1626000    -0.0589710
  C       -1.7488560    -0.0105870    -0.3076690
  C       -1.0502426     1.0527893     0.3541610
  C       -1.0433070    -1.2763970     0.1538630
  C        0.3725010     1.2935890    -0.1457680
  C        1.1404240    -0.0102390    -0.0198870
  H       -2.8074580    -0.0696450    -0.0318610
  H       -1.6959720     0.0599610    -1.4006240
  H       -1.1144190     1.1154600     1.4138390
  H       -1.6138590     2.1267960     0.0620980
  H       -1.2653590    -1.4521000     1.2170140
  H       -1.4050610    -2.1469230    -0.4038060
  H        0.9414700     2.0498950     0.4019050
  H        0.4084350     1.5789030    -1.2051520
  H        0.9624730    -1.9950670     0.0738380
units angstrom
no_reorient  #important for SAPT in psi4, default
symmetry c1  #important for SAPT in psi4, default
}

set PROPERTIES_ORIGIN ["COM"]
properties('MP2/aug-cc-pvtz', properties = ['dipole'])
--------------------------------------------------------------------------

    Molecular point group: c1
  Charge       = 0
  Multiplicity = 1
  Basis Set: AUG-CC-PVTZ
    Blend: AUG-CC-PVTZ
  Basis Set: (AUG-CC-PVTZ AUX)
    Blend: AUG-CC-PVTZ-JKFIT

    Orbital Energies [Eh]
    ---------------------

    Doubly Occupied:

       1A    -20.509035     2A    -15.582530     3A    -11.343585
       4A    -11.277628     5A    -11.246180     6A    -11.241014
       7A    -11.238254     8A     -1.365116     9A     -1.235490
      10A     -1.101691    11A     -1.022626    12A     -0.899704
      13A     -0.837761    14A     -0.761529    15A     -0.699273
      16A     -0.648365    17A     -0.636383    18A     -0.621751
      19A     -0.596038    20A     -0.582707    21A     -0.575412
      22A     -0.517365    23A     -0.502469    24A     -0.492141
      25A     -0.463182    26A     -0.398790    27A     -0.387544

  @DF-RHF Final Energy:  -324.00615072021964

   => Energetics <=

    Nuclear Repulsion Energy =            315.5207873324680463
    One-Electron Energy =               -1065.4867487413505387
    Two-Electron Energy =                 425.9598106886629125
    Total Energy =                       -324.0061507202196367
  Basis Set: (AUG-CC-PVTZ AUX)
    Blend: AUG-CC-PVTZ-RI
    Molecular point group: c1

    Geometry (in Angstrom), charge = 0, multiplicity = 1:

       Center              X                  Y                   Z               Mass
    ------------   -----------------  -----------------  -----------------  -----------------
         O            2.291939899786    -0.011865831887     0.032082040039    15.994914619570
         N            0.316166899786    -1.131269831887    -0.061763959961    14.003074004430
         C           -1.828250100214     0.020743168113    -0.310461959961    12.000000000000
         C           -1.129636700214     1.084119468113     0.351368040039    12.000000000000
         C           -1.122701100214    -1.245066831887     0.151070040039    12.000000000000
         C            0.293106899786     1.324919168113    -0.148560959961    12.000000000000
         C            1.061029899786     0.021091168113    -0.022679959961    12.000000000000
         H           -2.886852100214    -0.038314831887    -0.034653959961     1.007825032230
         H           -1.775366100214     0.091291168113    -1.403416959961     1.007825032230
         H           -1.193813100214     1.146790168113     1.411046040039     1.007825032230
         H           -1.693253100214     2.158126168113     0.059305040039     1.007825032230
         H           -1.344753100214    -1.420769831887     1.214221040039     1.007825032230
         H           -1.484455100214    -2.115592831887    -0.406598959961     1.007825032230
         H            0.862075899786     2.081225168113     0.399112040039     1.007825032230
         H            0.329040899786     1.610233168113    -1.207944959961     1.007825032230
         H            0.883078899786    -1.963736831887     0.071045040039     1.007825032230

  Basis Set: AUG-CC-PVTZ
    Blend: AUG-CC-PVTZ
  Basis Set: (AUG-CC-PVTZ AUX)
    Blend: AUG-CC-PVTZ-JKFIT
	 Reference Energy          =    -324.0061507202196367 [Eh]
	 Singles Energy            =      -0.0000000000000000 [Eh]
	 Same-Spin Energy          =      -0.3351701672997145 [Eh]
	 Opposite-Spin Energy      =      -1.0933198103485737 [Eh]
	 Correlation Energy        =      -1.4284899776482882 [Eh]
	 Total Energy              =    -325.4346406978679056 [Eh]

	 ================> DF-SCS-MP2 Energies <==================
	-----------------------------------------------------------
	 SCS Same-Spin Scale       =       0.3333333333333333 [-]
	 SCS Opposite-Spin Scale   =       1.2000000000000000 [-]
	 SCS Same-Spin Energy      =      -0.1117233890999048 [Eh]
	 SCS Opposite-Spin Energy  =      -1.3119837724182883 [Eh]
	 SCS Correlation Energy    =      -1.4237071615181931 [Eh]
	 SCS Total Energy          =    -325.4298578817378029 [Eh]
	-----------------------------------------------------------

  Dipole Moment: [D]
     X:    -4.1842      Y:    -0.6753      Z:     0.1670     Total:     4.2416

*** Psi4 exiting successfully. Buy a developer a beer!
