                               Psi4 1.3.2 release

  ==> Input File <==

--------------------------------------------------------------------------
#psi4
#
memory 32 gb

molecule  {
0 1
  O        2.3713340    -0.0431960     0.0348750
  N        0.3955610    -1.1626000    -0.0589710
  C       -1.7488560    -0.0105870    -0.3076690
  C       -1.0790680     1.2063820     0.3205530
  C       -1.0433070    -1.2763970     0.1538630
  C        0.3725010     1.2935890    -0.1457680
  C        0.9406931    -0.0048913    -0.0287728
  H       -2.8074580    -0.0696450    -0.0318610
  H       -1.6959720     0.0599610    -1.4006240
  H       -1.1144190     1.1154600     1.4138390
  H       -1.6138590     2.1267960     0.0620980
  H       -1.2653590    -1.4521000     1.2170140
  H       -1.4050610    -2.1469230    -0.4038060
  H        0.9414700     2.0498950     0.4019050
  H        0.4084350     1.5789030    -1.2051520
  H        0.9624730    -1.9950670     0.0738380
units angstrom
no_reorient  #important for SAPT in psi4, default
symmetry c1  #important for SAPT in psi4, default
}

set PROPERTIES_ORIGIN ["COM"]
properties('MP2/aug-cc-pvtz', properties = ['dipole'])
--------------------------------------------------------------------------

    Molecular point group: c1
  Charge       = 0
  Multiplicity = 1
  Basis Set: AUG-CC-PVTZ
    Blend: AUG-CC-PVTZ
  Basis Set: (AUG-CC-PVTZ AUX)
    Blend: AUG-CC-PVTZ-JKFIT

    Orbital Energies [Eh]
    ---------------------

    Doubly Occupied:

       1A    -20.471129     2A    -15.612226     3A    -11.346817
       4A    -11.289266     5A    -11.251111     6A    -11.246148
       7A    -11.245078     8A     -1.327683     9A     -1.193254
      10A     -1.110290    11A     -1.035769    12A     -0.917065
      13A     -0.866372    14A     -0.785129    15A     -0.704671
      16A     -0.670772    17A     -0.642437    18A     -0.624856
      19A     -0.609219    20A     -0.591105    21A     -0.542707
      22A     -0.503935    23A     -0.497180    24A     -0.484094
      25A     -0.460249    26A     -0.381671    27A     -0.361147

  @DF-RHF Final Energy:  -323.96820741187003

   => Energetics <=

    Nuclear Repulsion Energy =            314.5883284445856702
    One-Electron Energy =               -1063.5703108507464094
    Two-Electron Energy =                 425.0137749942907703
    Total Energy =                       -323.9682074118700257
  Basis Set: (AUG-CC-PVTZ AUX)
    Blend: AUG-CC-PVTZ-RI
    Molecular point group: c1

    Geometry (in Angstrom), charge = 0, multiplicity = 1:

       Center              X                  Y                   Z               Mass
    ------------   -----------------  -----------------  -----------------  -----------------
         O            2.319624562249    -0.031118030692     0.037229246701    15.994914619570
         N            0.343851562249    -1.150522030692    -0.056616753299    14.003074004430
         C           -1.800565437751     0.001490969308    -0.305314753299    12.000000000000
         C           -1.130777437751     1.218459969308     0.322907246701    12.000000000000
         C           -1.095016437751    -1.264319030692     0.156217246701    12.000000000000
         C            0.320791562249     1.305666969308    -0.143413753299    12.000000000000
         C            0.888983662249     0.007186669308    -0.026418553299    12.000000000000
         H           -2.859167437751    -0.057567030692    -0.029506753299     1.007825032230
         H           -1.747681437751     0.072038969308    -1.398269753299     1.007825032230
         H           -1.166128437751     1.127537969308     1.416193246701     1.007825032230
         H           -1.665568437751     2.138873969308     0.064452246701     1.007825032230
         H           -1.317068437751    -1.440022030692     1.219368246701     1.007825032230
         H           -1.456770437751    -2.134845030692    -0.401451753299     1.007825032230
         H            0.889760562249     2.061972969308     0.404259246701     1.007825032230
         H            0.356725562249     1.590980969308    -1.202797753299     1.007825032230
         H            0.910763562249    -1.982989030692     0.076192246701     1.007825032230

  Basis Set: AUG-CC-PVTZ
    Blend: AUG-CC-PVTZ
  Basis Set: (AUG-CC-PVTZ AUX)
    Blend: AUG-CC-PVTZ-JKFIT
	 Reference Energy          =    -323.9682074118700257 [Eh]
	 Singles Energy            =      -0.0000000000000000 [Eh]
	 Same-Spin Energy          =      -0.3384334895169666 [Eh]
	 Opposite-Spin Energy      =      -1.0997468749127306 [Eh]
	 Correlation Energy        =      -1.4381803644296971 [Eh]
	 Total Energy              =    -325.4063877762997095 [Eh]

	 ================> DF-SCS-MP2 Energies <==================
	-----------------------------------------------------------
	 SCS Same-Spin Scale       =       0.3333333333333333 [-]
	 SCS Opposite-Spin Scale   =       1.2000000000000000 [-]
	 SCS Same-Spin Energy      =      -0.1128111631723222 [Eh]
	 SCS Opposite-Spin Energy  =      -1.3196962498952767 [Eh]
	 SCS Correlation Energy    =      -1.4325074130675988 [Eh]
	 SCS Total Energy          =    -325.4007148249376087 [Eh]
	-----------------------------------------------------------

  Dipole Moment: [D]
     X:    -5.6912      Y:    -0.8620      Z:     0.0319     Total:     5.7562

*** Psi4 exiting successfully. Buy a developer a beer!
