                               Psi4 1.3.2 release

  ==> Input File <==

--------------------------------------------------------------------------
#psi4
#
memory 32 gb

molecule  {
0 1
  O        2.3713340    -0.0431960     0.0348750
  N        0.3955610    -1.1626000    -0.0589710
  C       -1.7488560    -0.0105870    -0.3076690
  C       -1.0790680     1.2063820     0.3205530
  C       -1.0368372    -1.3256231     0.1651896
  C        0.3725010     1.2935890    -0.1457680
  C        1.1404240    -0.0102390    -0.0198870
  H       -2.8074580    -0.0696450    -0.0318610
  H       -1.6959720     0.0599610    -1.4006240
  H       -1.1144190     1.1154600     1.4138390
  H       -1.6138590     2.1267960     0.0620980
  H       -1.2653590    -1.4521000     1.2170140
  H       -1.4050610    -2.1469230    -0.4038060
  H        0.9414700     2.0498950     0.4019050
  H        0.4084350     1.5789030    -1.2051520
  H        0.9624730    -1.9950670     0.0738380
units angstrom
no_reorient  #important for SAPT in psi4, default
symmetry c1  #important for SAPT in psi4, default
}

set PROPERTIES_ORIGIN ["COM"]
properties('MP2/aug-cc-pvtz', properties = ['dipole'])
--------------------------------------------------------------------------

    Molecular point group: c1
  Charge       = 0
  Multiplicity = 1
  Basis Set: AUG-CC-PVTZ
    Blend: AUG-CC-PVTZ
  Basis Set: (AUG-CC-PVTZ AUX)
    Blend: AUG-CC-PVTZ-JKFIT

    Orbital Energies [Eh]
    ---------------------

    Doubly Occupied:

       1A    -20.510575     2A    -15.581379     3A    -11.347045
       4A    -11.276671     5A    -11.241636     6A    -11.239632
       7A    -11.238175     8A     -1.365651     9A     -1.230388
      10A     -1.085106    11A     -1.015264    12A     -0.899249
      13A     -0.842850    14A     -0.754079    15A     -0.691474
      16A     -0.655192    17A     -0.640758    18A     -0.613832
      19A     -0.592052    20A     -0.588787    21A     -0.568785
      22A     -0.508596    23A     -0.491500    24A     -0.487490
      25A     -0.480396    26A     -0.411153    27A     -0.388373

  @DF-RHF Final Energy:  -324.03033780674394

   => Energetics <=

    Nuclear Repulsion Energy =            312.8672327280536933
    One-Electron Energy =               -1060.3029684613832160
    Two-Electron Energy =                 423.4053979265855219
    Total Energy =                       -324.0303378067439439
  Basis Set: (AUG-CC-PVTZ AUX)
    Blend: AUG-CC-PVTZ-RI
    Molecular point group: c1

    Geometry (in Angstrom), charge = 0, multiplicity = 1:

       Center              X                  Y                   Z               Mass
    ------------   -----------------  -----------------  -----------------  -----------------
         O            2.294647798190    -0.024507592772     0.034780950716    15.994914619570
         N            0.318874798190    -1.143911592772    -0.059065049284    14.003074004430
         C           -1.825542201810     0.008101407228    -0.307763049284    12.000000000000
         C           -1.155754201810     1.225070407228     0.320458950716    12.000000000000
         C           -1.113523401810    -1.306934692772     0.165095550716    12.000000000000
         C            0.295814798190     1.312277407228    -0.145862049284    12.000000000000
         C            1.063737798190     0.008449407228    -0.019981049284    12.000000000000
         H           -2.884144201810    -0.050956592772    -0.031955049284     1.007825032230
         H           -1.772658201810     0.078649407228    -1.400718049284     1.007825032230
         H           -1.191105201810     1.134148407228     1.413744950716     1.007825032230
         H           -1.690545201810     2.145484407228     0.062003950716     1.007825032230
         H           -1.342045201810    -1.433411592772     1.216919950716     1.007825032230
         H           -1.481747201810    -2.128234592772    -0.403900049284     1.007825032230
         H            0.864783798190     2.068583407228     0.401810950716     1.007825032230
         H            0.331748798190     1.597591407228    -1.205246049284     1.007825032230
         H            0.885786798190    -1.976378592772     0.073743950716     1.007825032230

  Basis Set: AUG-CC-PVTZ
    Blend: AUG-CC-PVTZ
  Basis Set: (AUG-CC-PVTZ AUX)
    Blend: AUG-CC-PVTZ-JKFIT
	 Reference Energy          =    -324.0303378067439439 [Eh]
	 Singles Energy            =      -0.0000000000000000 [Eh]
	 Same-Spin Energy          =      -0.3335623221609035 [Eh]
	 Opposite-Spin Energy      =      -1.0911310754326773 [Eh]
	 Correlation Energy        =      -1.4246933975935807 [Eh]
	 Total Energy              =    -325.4550312043375015 [Eh]

	 ================> DF-SCS-MP2 Energies <==================
	-----------------------------------------------------------
	 SCS Same-Spin Scale       =       0.3333333333333333 [-]
	 SCS Opposite-Spin Scale   =       1.2000000000000000 [-]
	 SCS Same-Spin Energy      =      -0.1111874407203012 [Eh]
	 SCS Opposite-Spin Energy  =      -1.3093572905192128 [Eh]
	 SCS Correlation Energy    =      -1.4205447312395139 [Eh]
	 SCS Total Energy          =    -325.4508825379834320 [Eh]
	-----------------------------------------------------------

  Dipole Moment: [D]
     X:    -4.2242      Y:    -0.6067      Z:     0.1735     Total:     4.2710

*** Psi4 exiting successfully. Buy a developer a beer!
