                               Psi4 1.3.2 release

  ==> Input File <==

--------------------------------------------------------------------------
#psi4
#
memory 32 gb

molecule  {
0 1
  O        2.3713340    -0.0431960     0.0348750
  N        0.3955610    -1.1626000    -0.0589710
  C       -1.7488560    -0.0105870    -0.3076690
  C       -1.0894619     1.3094124     0.2952842
  C       -1.0433070    -1.2763970     0.1538630
  C        0.3725010     1.2935890    -0.1457680
  C        1.1404240    -0.0102390    -0.0198870
  H       -2.8074580    -0.0696450    -0.0318610
  H       -1.6959720     0.0599610    -1.4006240
  H       -1.1144190     1.1154600     1.4138390
  H       -1.6138590     2.1267960     0.0620980
  H       -1.2653590    -1.4521000     1.2170140
  H       -1.4050610    -2.1469230    -0.4038060
  H        0.9414700     2.0498950     0.4019050
  H        0.4084350     1.5789030    -1.2051520
  H        0.9624730    -1.9950670     0.0738380
units angstrom
no_reorient  #important for SAPT in psi4, default
symmetry c1  #important for SAPT in psi4, default
}

set PROPERTIES_ORIGIN ["COM"]
properties('MP2/aug-cc-pvtz', properties = ['dipole'])
--------------------------------------------------------------------------

    Molecular point group: c1
  Charge       = 0
  Multiplicity = 1
  Basis Set: AUG-CC-PVTZ
    Blend: AUG-CC-PVTZ
  Basis Set: (AUG-CC-PVTZ AUX)
    Blend: AUG-CC-PVTZ-JKFIT

    Orbital Energies [Eh]
    ---------------------

    Doubly Occupied:

       1A    -20.511663     2A    -15.581861     3A    -11.348775
       4A    -11.279582     5A    -11.242569     6A    -11.239542
       7A    -11.238817     8A     -1.366579     9A     -1.230961
      10A     -1.081813    11A     -1.017388    12A     -0.897818
      13A     -0.849085    14A     -0.751652    15A     -0.690963
      16A     -0.656883    17A     -0.643801    18A     -0.612393
      19A     -0.599018    20A     -0.587367    21A     -0.568256
      22A     -0.512859    23A     -0.500650    24A     -0.482099
      25A     -0.463936    26A     -0.415869    27A     -0.386811

  @DF-RHF Final Energy:  -324.01972472699555

   => Energetics <=

    Nuclear Repulsion Energy =            312.2710880414024928
    One-Electron Energy =               -1059.0636063880588154
    Two-Electron Energy =                 422.7727936196608312
    Total Energy =                       -324.0197247269955483
  Basis Set: (AUG-CC-PVTZ AUX)
    Blend: AUG-CC-PVTZ-RI
    Molecular point group: c1

    Geometry (in Angstrom), charge = 0, multiplicity = 1:

       Center              X                  Y                   Z               Mass
    ------------   -----------------  -----------------  -----------------  -----------------
         O            2.296690471450    -0.042950181362     0.039213693531    15.994914619570
         N            0.320917471450    -1.162354181362    -0.054632306469    14.003074004430
         C           -1.823499528550    -0.010341181362    -0.303330306469    12.000000000000
         C           -1.164105428550     1.309658218638     0.299622893531    12.000000000000
         C           -1.117950528550    -1.276151181362     0.158201693531    12.000000000000
         C            0.297857471450     1.293834818638    -0.141429306469    12.000000000000
         C            1.065780471450    -0.009993181362    -0.015548306469    12.000000000000
         H           -2.882101528550    -0.069399181362    -0.027522306469     1.007825032230
         H           -1.770615528550     0.060206818638    -1.396285306469     1.007825032230
         H           -1.189062528550     1.115705818638     1.418177693531     1.007825032230
         H           -1.688502528550     2.127041818638     0.066436693531     1.007825032230
         H           -1.340002528550    -1.451854181362     1.221352693531     1.007825032230
         H           -1.479704528550    -2.146677181362    -0.399467306469     1.007825032230
         H            0.866826471450     2.050140818638     0.406243693531     1.007825032230
         H            0.333791471450     1.579148818638    -1.200813306469     1.007825032230
         H            0.887829471450    -1.994821181362     0.078176693531     1.007825032230

  Basis Set: AUG-CC-PVTZ
    Blend: AUG-CC-PVTZ
  Basis Set: (AUG-CC-PVTZ AUX)
    Blend: AUG-CC-PVTZ-JKFIT
	 Reference Energy          =    -324.0197247269955483 [Eh]
	 Singles Energy            =      -0.0000000000000000 [Eh]
	 Same-Spin Energy          =      -0.3336313187370333 [Eh]
	 Opposite-Spin Energy      =      -1.0916302300783620 [Eh]
	 Correlation Energy        =      -1.4252615488153952 [Eh]
	 Total Energy              =    -325.4449862758109475 [Eh]

	 ================> DF-SCS-MP2 Energies <==================
	-----------------------------------------------------------
	 SCS Same-Spin Scale       =       0.3333333333333333 [-]
	 SCS Opposite-Spin Scale   =       1.2000000000000000 [-]
	 SCS Same-Spin Energy      =      -0.1112104395790111 [Eh]
	 SCS Opposite-Spin Energy  =      -1.3099562760940344 [Eh]
	 SCS Correlation Energy    =      -1.4211667156730456 [Eh]
	 SCS Total Energy          =    -325.4408914426686010 [Eh]
	-----------------------------------------------------------

  Dipole Moment: [D]
     X:    -4.2239      Y:    -0.5756      Z:     0.1384     Total:     4.2652

*** Psi4 exiting successfully. Buy a developer a beer!
