                               Psi4 1.4a3.dev225

  ==> Input File <==

--------------------------------------------------------------------------
#psi4
#
memory 32 gb

molecule  {
0 1
  O        2.3713340    -0.0431960     0.0348750
  N        0.3955610    -1.1626000    -0.0589710
  C       -1.7488560    -0.0105870    -0.3076690
  C       -1.0790680     1.2063820     0.3205530
  C       -1.0433070    -1.2763970     0.1538630
  C        0.3725010     1.2935890    -0.1457680
  C        1.1675555     0.0317355    -0.0184634
  H       -2.8074580    -0.0696450    -0.0318610
  H       -1.6959720     0.0599610    -1.4006240
  H       -1.1144190     1.1154600     1.4138390
  H       -1.6138590     2.1267960     0.0620980
  H       -1.2653590    -1.4521000     1.2170140
  H       -1.4050610    -2.1469230    -0.4038060
  H        0.9414700     2.0498950     0.4019050
  H        0.4084350     1.5789030    -1.2051520
  H        0.9624730    -1.9950670     0.0738380
units angstrom
no_reorient  #important for SAPT in psi4, default
symmetry c1  #important for SAPT in psi4, default
}

set PROPERTIES_ORIGIN ["COM"]
properties('MP2/aug-cc-pvtz', properties = ['dipole'])
--------------------------------------------------------------------------

    Molecular point group: c1
  Charge       = 0
  Multiplicity = 1
  Basis Set: AUG-CC-PVTZ
    Blend: AUG-CC-PVTZ
  Basis Set: (AUG-CC-PVTZ AUX)
    Blend: AUG-CC-PVTZ-JKFIT

    Orbital Energies [Eh]
    ---------------------

    Doubly Occupied:

       1A    -20.519300     2A    -15.572287     3A    -11.348615
       4A    -11.272739     5A    -11.240892     6A    -11.239483
       7A    -11.237834     8A     -1.383285     9A     -1.218736
      10A     -1.086049    11A     -1.018145    12A     -0.895430
      13A     -0.838627    14A     -0.748443    15A     -0.689317
      16A     -0.650220    17A     -0.641110    18A     -0.613091
      19A     -0.596089    20A     -0.587834    21A     -0.574580
      22A     -0.506398    23A     -0.498422    24A     -0.488684
      25A     -0.483378    26A     -0.415961    27A     -0.382560

  @DF-RHF Final Energy:  -324.03051958962664

   => Energetics <=

    Nuclear Repulsion Energy =            313.3284667306887741
    One-Electron Energy =               -1061.2229490382130734
    Two-Electron Energy =                 423.8639627178976639
    Total Energy =                       -324.0305195896266355
  Basis Set: (AUG-CC-PVTZ AUX)
    Blend: AUG-CC-PVTZ-RI
    Molecular point group: c1

    Geometry (in Angstrom), charge = 0, multiplicity = 1:

       Center              X                  Y                   Z               Mass
    ------------   -----------------  -----------------  -----------------  -----------------
         O            2.292145079208    -0.035554576940     0.035980485414    15.994914619570
         N            0.316372079208    -1.154958576940    -0.057865514586    14.003074004430
         C           -1.828044920792    -0.002945576940    -0.306563514586    12.000000000000
         C           -1.158256920792     1.214023423060     0.321658485414    12.000000000000
         C           -1.122495920792    -1.268755576940     0.154968485414    12.000000000000
         C            0.293312079208     1.301230423060    -0.144662514586    12.000000000000
         C            1.088366579208     0.039376923060    -0.017357914586    12.000000000000
         H           -2.886646920792    -0.062003576940    -0.030755514586     1.007825032230
         H           -1.775160920792     0.067602423060    -1.399518514586     1.007825032230
         H           -1.193607920792     1.123101423060     1.414944485414     1.007825032230
         H           -1.693047920792     2.134437423060     0.063203485414     1.007825032230
         H           -1.344547920792    -1.444458576940     1.218119485414     1.007825032230
         H           -1.484249920792    -2.139281576940    -0.402700514586     1.007825032230
         H            0.862281079208     2.057536423060     0.403010485414     1.007825032230
         H            0.329246079208     1.586544423060    -1.204046514586     1.007825032230
         H            0.883284079208    -1.987425576940     0.074943485414     1.007825032230

  Basis Set: AUG-CC-PVTZ
    Blend: AUG-CC-PVTZ
  Basis Set: (AUG-CC-PVTZ AUX)
    Blend: AUG-CC-PVTZ-JKFIT
	 Reference Energy          =    -324.0305195896266355 [Eh]
	 Singles Energy            =      -0.0000000000000000 [Eh]
	 Same-Spin Energy          =      -0.3335479800452011 [Eh]
	 Opposite-Spin Energy      =      -1.0907669363179897 [Eh]
	 Correlation Energy        =      -1.4243149163631910 [Eh]
	 Total Energy              =    -325.4548345059898224 [Eh]

	 ================> DF-SCS-MP2 Energies <==================
	-----------------------------------------------------------
	 SCS Same-Spin Scale       =       0.3333333333333333 [-]
	 SCS Opposite-Spin Scale   =       1.2000000000000000 [-]
	 SCS Same-Spin Energy      =      -0.1111826600150670 [Eh]
	 SCS Opposite-Spin Energy  =      -1.3089203235815876 [Eh]
	 SCS Correlation Energy    =      -1.4201029835966545 [Eh]
	 SCS Total Energy          =    -325.4506225732233133 [Eh]
	-----------------------------------------------------------

  Dipole Moment: [D]
     X:    -3.9072      Y:    -0.2832      Z:     0.1695     Total:     3.9211

*** Psi4 exiting successfully. Buy a developer a beer!
