                               Psi4 1.3.2 release

  ==> Input File <==

--------------------------------------------------------------------------
#psi4
#
memory 32 gb

molecule  {
0 1
  O        2.3713340    -0.0431960     0.0348750
  N        0.3955610    -1.1626000    -0.0589710
  C       -1.7488560    -0.0105870    -0.3076690
  C       -0.9793251     1.1042266     0.3918345
  C       -1.0433070    -1.2763970     0.1538630
  C        0.3725010     1.2935890    -0.1457680
  C        1.1404240    -0.0102390    -0.0198870
  H       -2.8074580    -0.0696450    -0.0318610
  H       -1.6959720     0.0599610    -1.4006240
  H       -1.1144190     1.1154600     1.4138390
  H       -1.6138590     2.1267960     0.0620980
  H       -1.2653590    -1.4521000     1.2170140
  H       -1.4050610    -2.1469230    -0.4038060
  H        0.9414700     2.0498950     0.4019050
  H        0.4084350     1.5789030    -1.2051520
  H        0.9624730    -1.9950670     0.0738380
units angstrom
no_reorient  #important for SAPT in psi4, default
symmetry c1  #important for SAPT in psi4, default
}

set PROPERTIES_ORIGIN ["COM"]
properties('MP2/aug-cc-pvtz', properties = ['dipole'])
--------------------------------------------------------------------------

    Molecular point group: c1
  Charge       = 0
  Multiplicity = 1
  Basis Set: AUG-CC-PVTZ
    Blend: AUG-CC-PVTZ
  Basis Set: (AUG-CC-PVTZ AUX)
    Blend: AUG-CC-PVTZ-JKFIT

    Orbital Energies [Eh]
    ---------------------

    Doubly Occupied:

       1A    -20.509571     2A    -15.582508     3A    -11.344126
       4A    -11.276603     5A    -11.244864     6A    -11.241990
       7A    -11.238588     8A     -1.365577     9A     -1.234374
      10A     -1.096527    11A     -1.024767    12A     -0.892436
      13A     -0.843954    14A     -0.762515    15A     -0.697423
      16A     -0.649319    17A     -0.636363    18A     -0.619244
      19A     -0.600799    20A     -0.581979    21A     -0.571851
      22A     -0.516101    23A     -0.502628    24A     -0.494988
      25A     -0.461688    26A     -0.399334    27A     -0.387345

  @DF-RHF Final Energy:  -324.00663878653057

   => Energetics <=

    Nuclear Repulsion Energy =            315.2348586494289862
    One-Electron Energy =               -1064.9280728521964647
    Two-Electron Energy =                 425.6865754162368489
    Total Energy =                       -324.0066387865305728
  Basis Set: (AUG-CC-PVTZ AUX)
    Blend: AUG-CC-PVTZ-RI
    Molecular point group: c1

    Geometry (in Angstrom), charge = 0, multiplicity = 1:

       Center              X                  Y                   Z               Mass
    ------------   -----------------  -----------------  -----------------  -----------------
         O            2.283349775382    -0.018096350532     0.027518708679    15.994914619570
         N            0.307576775382    -1.137500350532    -0.066327291321    14.003074004430
         C           -1.836840224618     0.014512649468    -0.315025291321    12.000000000000
         C           -1.067309324618     1.129326249468     0.384478208679    12.000000000000
         C           -1.131291224618    -1.251297350532     0.146506708679    12.000000000000
         C            0.284516775382     1.318688649468    -0.153124291321    12.000000000000
         C            1.052439775382     0.014860649468    -0.027243291321    12.000000000000
         H           -2.895442224618    -0.044545350532    -0.039217291321     1.007825032230
         H           -1.783956224618     0.085060649468    -1.407980291321     1.007825032230
         H           -1.202403224618     1.140559649468     1.406482708679     1.007825032230
         H           -1.701843224618     2.151895649468     0.054741708679     1.007825032230
         H           -1.353343224618    -1.427000350532     1.209657708679     1.007825032230
         H           -1.493045224618    -2.121823350532    -0.411162291321     1.007825032230
         H            0.853485775382     2.074994649468     0.394548708679     1.007825032230
         H            0.320450775382     1.604002649468    -1.212508291321     1.007825032230
         H            0.874488775382    -1.969967350532     0.066481708679     1.007825032230

  Basis Set: AUG-CC-PVTZ
    Blend: AUG-CC-PVTZ
  Basis Set: (AUG-CC-PVTZ AUX)
    Blend: AUG-CC-PVTZ-JKFIT
	 Reference Energy          =    -324.0066387865305728 [Eh]
	 Singles Energy            =      -0.0000000000000000 [Eh]
	 Same-Spin Energy          =      -0.3348878029014222 [Eh]
	 Opposite-Spin Energy      =      -1.0931952750607175 [Eh]
	 Correlation Energy        =      -1.4280830779621396 [Eh]
	 Total Energy              =    -325.4347218644927011 [Eh]

	 ================> DF-SCS-MP2 Energies <==================
	-----------------------------------------------------------
	 SCS Same-Spin Scale       =       0.3333333333333333 [-]
	 SCS Opposite-Spin Scale   =       1.2000000000000000 [-]
	 SCS Same-Spin Energy      =      -0.1116292676338074 [Eh]
	 SCS Opposite-Spin Energy  =      -1.3118343300728610 [Eh]
	 SCS Correlation Energy    =      -1.4234635977066683 [Eh]
	 SCS Total Energy          =    -325.4301023842372160 [Eh]
	-----------------------------------------------------------

  Dipole Moment: [D]
     X:    -4.1627      Y:    -0.6618      Z:     0.1786     Total:     4.2188

*** Psi4 exiting successfully. Buy a developer a beer!
