                               Psi4 1.4a3.dev225

  ==> Input File <==

--------------------------------------------------------------------------
#psi4
#
memory 32 gb

molecule  {
0 1
  O        2.3713340    -0.0431960     0.0348750
  N        0.3955610    -1.1626000    -0.0589710
  C       -1.7488560    -0.0105870    -0.3076690
  C       -1.0790680     1.2063820     0.3205530
  C       -1.0433070    -1.2763970     0.1538630
  C        0.3725010     1.2935890    -0.1457680
  C        1.1132925    -0.0522135    -0.0213106
  H       -2.8074580    -0.0696450    -0.0318610
  H       -1.6959720     0.0599610    -1.4006240
  H       -1.1144190     1.1154600     1.4138390
  H       -1.6138590     2.1267960     0.0620980
  H       -1.2653590    -1.4521000     1.2170140
  H       -1.4050610    -2.1469230    -0.4038060
  H        0.9414700     2.0498950     0.4019050
  H        0.4084350     1.5789030    -1.2051520
  H        0.9624730    -1.9950670     0.0738380
units angstrom
no_reorient  #important for SAPT in psi4, default
symmetry c1  #important for SAPT in psi4, default
}

set PROPERTIES_ORIGIN ["COM"]
properties('MP2/aug-cc-pvtz', properties = ['dipole'])
--------------------------------------------------------------------------

    Molecular point group: c1
  Charge       = 0
  Multiplicity = 1
  Basis Set: AUG-CC-PVTZ
    Blend: AUG-CC-PVTZ
  Basis Set: (AUG-CC-PVTZ AUX)
    Blend: AUG-CC-PVTZ-JKFIT

    Orbital Energies [Eh]
    ---------------------

    Doubly Occupied:

       1A    -20.500759     2A    -15.590554     3A    -11.343322
       4A    -11.283857     5A    -11.242610     6A    -11.238978
       7A    -11.237994     8A     -1.351863     9A     -1.242783
      10A     -1.091035    11A     -1.019647    12A     -0.899292
      13A     -0.848568    14A     -0.761707    15A     -0.698211
      16A     -0.653519    17A     -0.636382    18A     -0.612349
      19A     -0.598054    20A     -0.587327    21A     -0.563794
      22A     -0.503668    23A     -0.495081    24A     -0.487121
      25A     -0.485130    26A     -0.403387    27A     -0.388263

  @DF-RHF Final Energy:  -324.02855010002554

   => Energetics <=

    Nuclear Repulsion Energy =            313.7467415296080162
    One-Electron Energy =               -1062.0200743145298929
    Two-Electron Energy =                 424.2447826848963359
    Total Energy =                       -324.0285501000255408
  Basis Set: (AUG-CC-PVTZ AUX)
    Blend: AUG-CC-PVTZ-RI
    Molecular point group: c1

    Geometry (in Angstrom), charge = 0, multiplicity = 1:

       Center              X                  Y                   Z               Mass
    ------------   -----------------  -----------------  -----------------  -----------------
         O            2.298717870417    -0.025385967590     0.036325362239    15.994914619570
         N            0.322944870417    -1.144789967590    -0.057520637761    14.003074004430
         C           -1.821472129583     0.007223032410    -0.306218637761    12.000000000000
         C           -1.151684129583     1.224192032410     0.322003362239    12.000000000000
         C           -1.115923129583    -1.258586967590     0.155313362239    12.000000000000
         C            0.299884870417     1.311399032410    -0.144317637761    12.000000000000
         C            1.040676370417    -0.034403467590    -0.019860237761    12.000000000000
         H           -2.880074129583    -0.051834967590    -0.030410637761     1.007825032230
         H           -1.768588129583     0.077771032410    -1.399173637761     1.007825032230
         H           -1.187035129583     1.133270032410     1.415289362239     1.007825032230
         H           -1.686475129583     2.144606032410     0.063548362239     1.007825032230
         H           -1.337975129583    -1.434289967590     1.218464362239     1.007825032230
         H           -1.477677129583    -2.129112967590    -0.402355637761     1.007825032230
         H            0.868853870417     2.067705032410     0.403355362239     1.007825032230
         H            0.335818870417     1.596713032410    -1.203701637761     1.007825032230
         H            0.889856870417    -1.977256967590     0.075288362239     1.007825032230

  Basis Set: AUG-CC-PVTZ
    Blend: AUG-CC-PVTZ
  Basis Set: (AUG-CC-PVTZ AUX)
    Blend: AUG-CC-PVTZ-JKFIT
	 Reference Energy          =    -324.0285501000255408 [Eh]
	 Singles Energy            =      -0.0000000000000000 [Eh]
	 Same-Spin Energy          =      -0.3341079355680748 [Eh]
	 Opposite-Spin Energy      =      -1.0917326653512482 [Eh]
	 Correlation Energy        =      -1.4258406009193232 [Eh]
	 Total Energy              =    -325.4543907009448844 [Eh]

	 ================> DF-SCS-MP2 Energies <==================
	-----------------------------------------------------------
	 SCS Same-Spin Scale       =       0.3333333333333333 [-]
	 SCS Opposite-Spin Scale   =       1.2000000000000000 [-]
	 SCS Same-Spin Energy      =      -0.1113693118560249 [Eh]
	 SCS Opposite-Spin Energy  =      -1.3100791984214979 [Eh]
	 SCS Correlation Energy    =      -1.4214485102775227 [Eh]
	 SCS Total Energy          =    -325.4499986103030551 [Eh]
	-----------------------------------------------------------

  Dipole Moment: [D]
     X:    -4.5647      Y:    -0.8559      Z:     0.1458     Total:     4.6466

*** Psi4 exiting successfully. Buy a developer a beer!
