                               Psi4 1.3.2 release

  ==> Input File <==

--------------------------------------------------------------------------
#psi4
#
memory 32 gb

molecule  {
0 1
  O        2.3713340    -0.0431960     0.0348750
  N        0.3955610    -1.1626000    -0.0589710
  C       -1.7488560    -0.0105870    -0.3076690
  C       -1.0790680     1.2063820     0.3205530
  C       -1.0433070    -1.2763970     0.1538630
  C        0.3725010     1.2935890    -0.1457680
  C        1.0176031     0.0609451    -0.0420784
  H       -2.8074580    -0.0696450    -0.0318610
  H       -1.6959720     0.0599610    -1.4006240
  H       -1.1144190     1.1154600     1.4138390
  H       -1.6138590     2.1267960     0.0620980
  H       -1.2653590    -1.4521000     1.2170140
  H       -1.4050610    -2.1469230    -0.4038060
  H        0.9414700     2.0498950     0.4019050
  H        0.4084350     1.5789030    -1.2051520
  H        0.9624730    -1.9950670     0.0738380
units angstrom
no_reorient  #important for SAPT in psi4, default
symmetry c1  #important for SAPT in psi4, default
}

set PROPERTIES_ORIGIN ["COM"]
properties('MP2/aug-cc-pvtz', properties = ['dipole'])
--------------------------------------------------------------------------

    Molecular point group: c1
  Charge       = 0
  Multiplicity = 1
  Basis Set: AUG-CC-PVTZ
    Blend: AUG-CC-PVTZ
  Basis Set: (AUG-CC-PVTZ AUX)
    Blend: AUG-CC-PVTZ-JKFIT

    Orbital Energies [Eh]
    ---------------------

    Doubly Occupied:

       1A    -20.491616     2A    -15.593565     3A    -11.354520
       4A    -11.279472     5A    -11.247405     6A    -11.245954
       7A    -11.243616     8A     -1.312195     9A     -1.212781
      10A     -1.105712    11A     -1.035159    12A     -0.911808
      13A     -0.853159    14A     -0.768980    15A     -0.695180
      16A     -0.658939    17A     -0.636899    18A     -0.623813
      19A     -0.604563    20A     -0.584862    21A     -0.557452
      22A     -0.502366    23A     -0.494742    24A     -0.485916
      25A     -0.468508    26A     -0.402094    27A     -0.371216

  @DF-RHF Final Energy:  -323.99224272938994

   => Energetics <=

    Nuclear Repulsion Energy =            313.8770567264205624
    One-Electron Energy =               -1062.2536189473717059
    Two-Electron Energy =                 424.3843194915612571
    Total Energy =                       -323.9922427293899432
  Basis Set: (AUG-CC-PVTZ AUX)
    Blend: AUG-CC-PVTZ-RI
    Molecular point group: c1

    Geometry (in Angstrom), charge = 0, multiplicity = 1:

       Center              X                  Y                   Z               Mass
    ------------   -----------------  -----------------  -----------------  -----------------
         O            2.310308575816    -0.039092689504     0.038840932945    15.994914619570
         N            0.334535575816    -1.158496689504    -0.055005067055    14.003074004430
         C           -1.809881424184    -0.006483689504    -0.303703067055    12.000000000000
         C           -1.140093424184     1.210485310496     0.324518932945    12.000000000000
         C           -1.104332424184    -1.272293689504     0.157828932945    12.000000000000
         C            0.311475575816     1.297692310496    -0.141802067055    12.000000000000
         C            0.956577675816     0.065048410496    -0.038112467055    12.000000000000
         H           -2.868483424184    -0.065541689504    -0.027895067055     1.007825032230
         H           -1.756997424184     0.064064310496    -1.396658067055     1.007825032230
         H           -1.175444424184     1.119563310496     1.417804932945     1.007825032230
         H           -1.674884424184     2.130899310496     0.066063932945     1.007825032230
         H           -1.326384424184    -1.447996689504     1.220979932945     1.007825032230
         H           -1.466086424184    -2.142819689504    -0.399840067055     1.007825032230
         H            0.880444575816     2.053998310496     0.405870932945     1.007825032230
         H            0.347409575816     1.583006310496    -1.201186067055     1.007825032230
         H            0.901447575816    -1.990963689504     0.077803932945     1.007825032230

  Basis Set: AUG-CC-PVTZ
    Blend: AUG-CC-PVTZ
  Basis Set: (AUG-CC-PVTZ AUX)
    Blend: AUG-CC-PVTZ-JKFIT
	 Reference Energy          =    -323.9922427293899432 [Eh]
	 Singles Energy            =      -0.0000000000000000 [Eh]
	 Same-Spin Energy          =      -0.3377760709336560 [Eh]
	 Opposite-Spin Energy      =      -1.0984237575892033 [Eh]
	 Correlation Energy        =      -1.4361998285228592 [Eh]
	 Total Energy              =    -325.4284425579127742 [Eh]

	 ================> DF-SCS-MP2 Energies <==================
	-----------------------------------------------------------
	 SCS Same-Spin Scale       =       0.3333333333333333 [-]
	 SCS Opposite-Spin Scale   =       1.2000000000000000 [-]
	 SCS Same-Spin Energy      =      -0.1125920236445520 [Eh]
	 SCS Opposite-Spin Energy  =      -1.3181085091070439 [Eh]
	 SCS Correlation Energy    =      -1.4307005327515958 [Eh]
	 SCS Total Energy          =    -325.4229432621415299 [Eh]
	-----------------------------------------------------------

  Dipole Moment: [D]
     X:    -4.9703      Y:    -0.3929      Z:     0.0680     Total:     4.9863

*** Psi4 exiting successfully. Buy a developer a beer!
