                               Psi4 1.3.2 release

  ==> Input File <==

--------------------------------------------------------------------------
#psi4
#
memory 32 gb

molecule  {
0 1
  O        2.3611785    -0.1718062     0.0337695
  N        0.3955610    -1.1626000    -0.0589710
  C       -1.7488560    -0.0105870    -0.3076690
  C       -1.0790680     1.2063820     0.3205530
  C       -1.0433070    -1.2763970     0.1538630
  C        0.3725010     1.2935890    -0.1457680
  C        1.1404240    -0.0102390    -0.0198870
  H       -2.8074580    -0.0696450    -0.0318610
  H       -1.6959720     0.0599610    -1.4006240
  H       -1.1144190     1.1154600     1.4138390
  H       -1.6138590     2.1267960     0.0620980
  H       -1.2653590    -1.4521000     1.2170140
  H       -1.4050610    -2.1469230    -0.4038060
  H        0.9414700     2.0498950     0.4019050
  H        0.4084350     1.5789030    -1.2051520
  H        0.9624730    -1.9950670     0.0738380
units angstrom
no_reorient  #important for SAPT in psi4, default
symmetry c1  #important for SAPT in psi4, default
}

set PROPERTIES_ORIGIN ["COM"]
properties('MP2/aug-cc-pvtz', properties = ['dipole'])
--------------------------------------------------------------------------

    Molecular point group: c1
  Charge       = 0
  Multiplicity = 1
  Basis Set: AUG-CC-PVTZ
    Blend: AUG-CC-PVTZ
  Basis Set: (AUG-CC-PVTZ AUX)
    Blend: AUG-CC-PVTZ-JKFIT

    Orbital Energies [Eh]
    ---------------------

    Doubly Occupied:

       1A    -20.508313     2A    -15.574807     3A    -11.346081
       4A    -11.274562     5A    -11.244955     6A    -11.242688
       7A    -11.239965     8A     -1.367611     9A     -1.224655
      10A     -1.089291    11A     -1.019503    12A     -0.897602
      13A     -0.843285    14A     -0.754053    15A     -0.691034
      16A     -0.650468    17A     -0.637587    18A     -0.613499
      19A     -0.593901    20A     -0.589304    21A     -0.572277
      22A     -0.504294    23A     -0.495935    24A     -0.490319
      25A     -0.485462    26A     -0.412628    27A     -0.380833

  @DF-RHF Final Energy:  -324.02950744089361

   => Energetics <=

    Nuclear Repulsion Energy =            313.6961915527959377
    One-Electron Energy =               -1061.9615754605006259
    Two-Electron Energy =                 424.2358764668111348
    Total Energy =                       -324.0295074408936102
  Basis Set: (AUG-CC-PVTZ AUX)
    Blend: AUG-CC-PVTZ-RI
    Molecular point group: c1

    Geometry (in Angstrom), charge = 0, multiplicity = 1:

       Center              X                  Y                   Z               Mass
    ------------   -----------------  -----------------  -----------------  -----------------
         O            2.286915613008    -0.138315941100     0.035225910363    15.994914619570
         N            0.321298113008    -1.129109741100    -0.057514589637    14.003074004430
         C           -1.823118886992     0.022903258900    -0.306212589637    12.000000000000
         C           -1.153330886992     1.239872258900     0.322009410363    12.000000000000
         C           -1.117569886992    -1.242906741100     0.155319410363    12.000000000000
         C            0.298238113008     1.327079258900    -0.144311589637    12.000000000000
         C            1.066161113008     0.023251258900    -0.018430589637    12.000000000000
         H           -2.881720886992    -0.036154741100    -0.030404589637     1.007825032230
         H           -1.770234886992     0.093451258900    -1.399167589637     1.007825032230
         H           -1.188681886992     1.148950258900     1.415295410363     1.007825032230
         H           -1.688121886992     2.160286258900     0.063554410363     1.007825032230
         H           -1.339621886992    -1.418609741100     1.218470410363     1.007825032230
         H           -1.479323886992    -2.113432741100    -0.402349589637     1.007825032230
         H            0.867207113008     2.083385258900     0.403361410363     1.007825032230
         H            0.334172113008     1.612393258900    -1.203695589637     1.007825032230
         H            0.888210113008    -1.961576741100     0.075294410363     1.007825032230

  Basis Set: AUG-CC-PVTZ
    Blend: AUG-CC-PVTZ
  Basis Set: (AUG-CC-PVTZ AUX)
    Blend: AUG-CC-PVTZ-JKFIT
	 Reference Energy          =    -324.0295074408936102 [Eh]
	 Singles Energy            =      -0.0000000000000000 [Eh]
	 Same-Spin Energy          =      -0.3339064807997235 [Eh]
	 Opposite-Spin Energy      =      -1.0912882871726399 [Eh]
	 Correlation Energy        =      -1.4251947679723633 [Eh]
	 Total Energy              =    -325.4547022088659673 [Eh]

	 ================> DF-SCS-MP2 Energies <==================
	-----------------------------------------------------------
	 SCS Same-Spin Scale       =       0.3333333333333333 [-]
	 SCS Opposite-Spin Scale   =       1.2000000000000000 [-]
	 SCS Same-Spin Energy      =      -0.1113021602665745 [Eh]
	 SCS Opposite-Spin Energy  =      -1.3095459446071678 [Eh]
	 SCS Correlation Energy    =      -1.4208481048737422 [Eh]
	 SCS Total Energy          =    -325.4503555457673656 [Eh]
	-----------------------------------------------------------

  Dipole Moment: [D]
     X:    -4.2262      Y:    -0.2175      Z:     0.1530     Total:     4.2346

*** Psi4 exiting successfully. Buy a developer a beer!
