                               Psi4 1.3.2 release

  ==> Input File <==

--------------------------------------------------------------------------
#psi4
#
memory 32 gb

molecule  {
0 1
  O        2.3713340    -0.0431960     0.0348750
  N        0.4359393    -1.1878777    -0.0538385
  C       -1.7488560    -0.0105870    -0.3076690
  C       -1.0790680     1.2063820     0.3205530
  C       -1.0433070    -1.2763970     0.1538630
  C        0.3725010     1.2935890    -0.1457680
  C        1.1404240    -0.0102390    -0.0198870
  H       -2.8074580    -0.0696450    -0.0318610
  H       -1.6959720     0.0599610    -1.4006240
  H       -1.1144190     1.1154600     1.4138390
  H       -1.6138590     2.1267960     0.0620980
  H       -1.2653590    -1.4521000     1.2170140
  H       -1.4050610    -2.1469230    -0.4038060
  H        0.9414700     2.0498950     0.4019050
  H        0.4084350     1.5789030    -1.2051520
  H        0.9624730    -1.9950670     0.0738380
units angstrom
no_reorient  #important for SAPT in psi4, default
symmetry c1  #important for SAPT in psi4, default
}

set PROPERTIES_ORIGIN ["COM"]
properties('MP2/aug-cc-pvtz', properties = ['dipole'])
--------------------------------------------------------------------------

    Molecular point group: c1
  Charge       = 0
  Multiplicity = 1
  Basis Set: AUG-CC-PVTZ
    Blend: AUG-CC-PVTZ
  Basis Set: (AUG-CC-PVTZ AUX)
    Blend: AUG-CC-PVTZ-JKFIT

    Orbital Energies [Eh]
    ---------------------

    Doubly Occupied:

       1A    -20.507110     2A    -15.577549     3A    -11.344657
       4A    -11.280361     5A    -11.241776     6A    -11.240750
       7A    -11.240150     8A     -1.364557     9A     -1.225105
      10A     -1.091194    11A     -1.016960    12A     -0.898543
      13A     -0.842403    14A     -0.763652    15A     -0.687959
      16A     -0.651965    17A     -0.636445    18A     -0.612715
      19A     -0.597541    20A     -0.587656    21A     -0.568118
      22A     -0.504526    23A     -0.497915    24A     -0.488240
      25A     -0.485417    26A     -0.409859    27A     -0.386116

  @DF-RHF Final Energy:  -324.03116202424866

   => Energetics <=

    Nuclear Repulsion Energy =            312.9315173360583344
    One-Electron Energy =               -1060.4268804479333994
    Two-Electron Energy =                 423.4642010876264635
    Total Energy =                       -324.0311620242486583
  Basis Set: (AUG-CC-PVTZ AUX)
    Blend: AUG-CC-PVTZ-RI
    Molecular point group: c1

    Geometry (in Angstrom), charge = 0, multiplicity = 1:

       Center              X                  Y                   Z               Mass
    ------------   -----------------  -----------------  -----------------  -----------------
         O            2.289724102496    -0.026897332215     0.035427457712    15.994914619570
         N            0.354329402496    -1.171579032215    -0.053286042288    14.003074004430
         C           -1.830465897504     0.005711667785    -0.307116542288    12.000000000000
         C           -1.160677897504     1.222680667785     0.321105457712    12.000000000000
         C           -1.124916897504    -1.260098332215     0.154415457712    12.000000000000
         C            0.290891102496     1.309887667785    -0.145215542288    12.000000000000
         C            1.058814102496     0.006059667785    -0.019334542288    12.000000000000
         H           -2.889067897504    -0.053346332215    -0.031308542288     1.007825032230
         H           -1.777581897504     0.076259667785    -1.400071542288     1.007825032230
         H           -1.196028897504     1.131758667785     1.414391457712     1.007825032230
         H           -1.695468897504     2.143094667785     0.062650457712     1.007825032230
         H           -1.346968897504    -1.435801332215     1.217566457712     1.007825032230
         H           -1.486670897504    -2.130624332215    -0.403253542288     1.007825032230
         H            0.859860102496     2.066193667785     0.402457457712     1.007825032230
         H            0.326825102496     1.595201667785    -1.204599542288     1.007825032230
         H            0.880863102496    -1.978768332215     0.074390457712     1.007825032230

  Basis Set: AUG-CC-PVTZ
    Blend: AUG-CC-PVTZ
  Basis Set: (AUG-CC-PVTZ AUX)
    Blend: AUG-CC-PVTZ-JKFIT
	 Reference Energy          =    -324.0311620242486583 [Eh]
	 Singles Energy            =      -0.0000000000000000 [Eh]
	 Same-Spin Energy          =      -0.3331553025006932 [Eh]
	 Opposite-Spin Energy      =      -1.0904099420650544 [Eh]
	 Correlation Energy        =      -1.4235652445657476 [Eh]
	 Total Energy              =    -325.4547272688143948 [Eh]

	 ================> DF-SCS-MP2 Energies <==================
	-----------------------------------------------------------
	 SCS Same-Spin Scale       =       0.3333333333333333 [-]
	 SCS Opposite-Spin Scale   =       1.2000000000000000 [-]
	 SCS Same-Spin Energy      =      -0.1110517675002311 [Eh]
	 SCS Opposite-Spin Energy  =      -1.3084919304780651 [Eh]
	 SCS Correlation Energy    =      -1.4195436979782963 [Eh]
	 SCS Total Energy          =    -325.4507057222269282 [Eh]
	-----------------------------------------------------------

  Dipole Moment: [D]
     X:    -4.3192      Y:    -0.5254      Z:     0.1551     Total:     4.3538

*** Psi4 exiting successfully. Buy a developer a beer!
