                               Psi4 1.3.2 release

  ==> Input File <==

--------------------------------------------------------------------------
#psi4
#
memory 32 gb

molecule  {
0 1
  O        2.3713340    -0.0431960     0.0348750
  N        0.3955610    -1.1626000    -0.0589710
  C       -1.7488560    -0.0105870    -0.3076690
  C       -1.0834031     1.1870835     0.3026880
  C       -1.0433070    -1.2763970     0.1538630
  C        0.3725010     1.2935890    -0.1457680
  C        1.1404240    -0.0102390    -0.0198870
  H       -2.8074580    -0.0696450    -0.0318610
  H       -1.6959720     0.0599610    -1.4006240
  H       -1.1144190     1.1154600     1.4138390
  H       -1.6138590     2.1267960     0.0620980
  H       -1.2653590    -1.4521000     1.2170140
  H       -1.4050610    -2.1469230    -0.4038060
  H        0.9414700     2.0498950     0.4019050
  H        0.4084350     1.5789030    -1.2051520
  H        0.9624730    -1.9950670     0.0738380
units angstrom
no_reorient  #important for SAPT in psi4, default
symmetry c1  #important for SAPT in psi4, default
}

set PROPERTIES_ORIGIN ["COM"]
properties('MP2/aug-cc-pvtz', properties = ['dipole'])
--------------------------------------------------------------------------

    Molecular point group: c1
  Charge       = 0
  Multiplicity = 1
  Basis Set: AUG-CC-PVTZ
    Blend: AUG-CC-PVTZ
  Basis Set: (AUG-CC-PVTZ AUX)
    Blend: AUG-CC-PVTZ-JKFIT

    Orbital Energies [Eh]
    ---------------------

    Doubly Occupied:

       1A    -20.510077     2A    -15.581793     3A    -11.345978
       4A    -11.278463     5A    -11.240955     6A    -11.239405
       7A    -11.238733     8A     -1.365501     9A     -1.232339
      10A     -1.091109    11A     -1.019303    12A     -0.898216
      13A     -0.842130    14A     -0.754564    15A     -0.693957
      16A     -0.651267    17A     -0.638546    18A     -0.613076
      19A     -0.595690    20A     -0.588108    21A     -0.571342
      22A     -0.504574    23A     -0.495656    24A     -0.489259
      25A     -0.483476    26A     -0.410405    27A     -0.386871

  @DF-RHF Final Energy:  -324.03165976859901

   => Energetics <=

    Nuclear Repulsion Energy =            313.8360563904669220
    One-Electron Energy =               -1062.2138461891431689
    Two-Electron Energy =                 424.3461300300772905
    Total Energy =                       -324.0316597685990132
  Basis Set: (AUG-CC-PVTZ AUX)
    Blend: AUG-CC-PVTZ-RI
    Molecular point group: c1

    Geometry (in Angstrom), charge = 0, multiplicity = 1:

       Center              X                  Y                   Z               Mass
    ------------   -----------------  -----------------  -----------------  -----------------
         O            2.295956578607    -0.028132675539     0.038316882969    15.994914619570
         N            0.320183578607    -1.147536675539    -0.055529117031    14.003074004430
         C           -1.824233421393     0.004476324461    -0.304227117031    12.000000000000
         C           -1.158780521393     1.202146824461     0.306129882969    12.000000000000
         C           -1.118684421393    -1.261333675539     0.157304882969    12.000000000000
         C            0.297123578607     1.308652324461    -0.142326117031    12.000000000000
         C            1.065046578607     0.004824324461    -0.016445117031    12.000000000000
         H           -2.882835421393    -0.054581675539    -0.028419117031     1.007825032230
         H           -1.771349421393     0.075024324461    -1.397182117031     1.007825032230
         H           -1.189796421393     1.130523324461     1.417280882969     1.007825032230
         H           -1.689236421393     2.141859324461     0.065539882969     1.007825032230
         H           -1.340736421393    -1.437036675539     1.220455882969     1.007825032230
         H           -1.480438421393    -2.131859675539    -0.400364117031     1.007825032230
         H            0.866092578607     2.064958324461     0.405346882969     1.007825032230
         H            0.333057578607     1.593966324461    -1.201710117031     1.007825032230
         H            0.887095578607    -1.980003675539     0.077279882969     1.007825032230

  Basis Set: AUG-CC-PVTZ
    Blend: AUG-CC-PVTZ
  Basis Set: (AUG-CC-PVTZ AUX)
    Blend: AUG-CC-PVTZ-JKFIT
	 Reference Energy          =    -324.0316597685990132 [Eh]
	 Singles Energy            =      -0.0000000000000000 [Eh]
	 Same-Spin Energy          =      -0.3339547138073465 [Eh]
	 Opposite-Spin Energy      =      -1.0913245823366626 [Eh]
	 Correlation Energy        =      -1.4252792961440091 [Eh]
	 Total Energy              =    -325.4569390647430396 [Eh]

	 ================> DF-SCS-MP2 Energies <==================
	-----------------------------------------------------------
	 SCS Same-Spin Scale       =       0.3333333333333333 [-]
	 SCS Opposite-Spin Scale   =       1.2000000000000000 [-]
	 SCS Same-Spin Energy      =      -0.1113182379357822 [Eh]
	 SCS Opposite-Spin Energy  =      -1.3095894988039951 [Eh]
	 SCS Correlation Energy    =      -1.4209077367397773 [Eh]
	 SCS Total Energy          =    -325.4525675053387772 [Eh]
	-----------------------------------------------------------

  Dipole Moment: [D]
     X:    -4.2335      Y:    -0.5843      Z:     0.1481     Total:     4.2762

*** Psi4 exiting successfully. Buy a developer a beer!
