                               Psi4 1.3.2 release

  ==> Input File <==

--------------------------------------------------------------------------
#psi4
#
memory 32 gb

molecule  {
0 1
  O        2.3713340    -0.0431960     0.0348750
  N        0.3955610    -1.1626000    -0.0589710
  C       -1.7488560    -0.0105870    -0.3076690
  C       -1.0790680     1.2063820     0.3205530
  C       -1.0433070    -1.2763970     0.1538630
  C        0.3725010     1.2935890    -0.1457680
  C        1.2550840    -0.0940486     0.0018762
  H       -2.8074580    -0.0696450    -0.0318610
  H       -1.6959720     0.0599610    -1.4006240
  H       -1.1144190     1.1154600     1.4138390
  H       -1.6138590     2.1267960     0.0620980
  H       -1.2653590    -1.4521000     1.2170140
  H       -1.4050610    -2.1469230    -0.4038060
  H        0.9414700     2.0498950     0.4019050
  H        0.4084350     1.5789030    -1.2051520
  H        0.9624730    -1.9950670     0.0738380
units angstrom
no_reorient  #important for SAPT in psi4, default
symmetry c1  #important for SAPT in psi4, default
}

set PROPERTIES_ORIGIN ["COM"]
properties('MP2/aug-cc-pvtz', properties = ['dipole'])
--------------------------------------------------------------------------

    Molecular point group: c1
  Charge       = 0
  Multiplicity = 1
  Basis Set: AUG-CC-PVTZ
    Blend: AUG-CC-PVTZ
  Basis Set: (AUG-CC-PVTZ AUX)
    Blend: AUG-CC-PVTZ-JKFIT

    Orbital Energies [Eh]
    ---------------------

    Doubly Occupied:

       1A    -20.528801     2A    -15.574750     3A    -11.339811
       4A    -11.278353     5A    -11.234317     6A    -11.230703
       7A    -11.225590     8A     -1.448827     9A     -1.236201
      10A     -1.077692    11A     -1.002010    12A     -0.883982
      13A     -0.830546    14A     -0.741822    15A     -0.698109
      16A     -0.664545    17A     -0.649208    18A     -0.612797
      19A     -0.604817    20A     -0.592223    21A     -0.567275
      22A     -0.520537    23A     -0.502864    24A     -0.483489
      25A     -0.478383    26A     -0.398538    27A     -0.385432

  @DF-RHF Final Energy:  -324.00942382465644

   => Energetics <=

    Nuclear Repulsion Energy =            313.5766236351728935
    One-Electron Energy =               -1061.5888492229250915
    Two-Electron Energy =                 424.0028017630958175
    Total Energy =                       -324.0094238246564373
  Basis Set: (AUG-CC-PVTZ AUX)
    Blend: AUG-CC-PVTZ-RI
    Molecular point group: c1

    Geometry (in Angstrom), charge = 0, multiplicity = 1:

       Center              X                  Y                   Z               Mass
    ------------   -----------------  -----------------  -----------------  -----------------
         O            2.281542890695    -0.020318548216     0.033516781895    15.994914619570
         N            0.305769890695    -1.139722548216    -0.060329218105    14.003074004430
         C           -1.838647109305     0.012290451784    -0.309027218105    12.000000000000
         C           -1.168859109305     1.229259451784     0.319194781895    12.000000000000
         C           -1.133098109305    -1.253519548216     0.152504781895    12.000000000000
         C            0.282709890695     1.316466451784    -0.147126218105    12.000000000000
         C            1.165292890695    -0.071171148216     0.000517981895    12.000000000000
         H           -2.897249109305    -0.046767548216    -0.033219218105     1.007825032230
         H           -1.785763109305     0.082838451784    -1.401982218105     1.007825032230
         H           -1.204210109305     1.138337451784     1.412480781895     1.007825032230
         H           -1.703650109305     2.149673451784     0.060739781895     1.007825032230
         H           -1.355150109305    -1.429222548216     1.215655781895     1.007825032230
         H           -1.494852109305    -2.124045548216    -0.405164218105     1.007825032230
         H            0.851678890695     2.072772451784     0.400546781895     1.007825032230
         H            0.318643890695     1.601780451784    -1.206510218105     1.007825032230
         H            0.872681890695    -1.972189548216     0.072479781895     1.007825032230

  Basis Set: AUG-CC-PVTZ
    Blend: AUG-CC-PVTZ
  Basis Set: (AUG-CC-PVTZ AUX)
    Blend: AUG-CC-PVTZ-JKFIT
	 Reference Energy          =    -324.0094238246564373 [Eh]
	 Singles Energy            =      -0.0000000000000000 [Eh]
	 Same-Spin Energy          =      -0.3316270889419553 [Eh]
	 Opposite-Spin Energy      =      -1.0870825775445567 [Eh]
	 Correlation Energy        =      -1.4187096664865120 [Eh]
	 Total Energy              =    -325.4281334911429440 [Eh]

	 ================> DF-SCS-MP2 Energies <==================
	-----------------------------------------------------------
	 SCS Same-Spin Scale       =       0.3333333333333333 [-]
	 SCS Opposite-Spin Scale   =       1.2000000000000000 [-]
	 SCS Same-Spin Energy      =      -0.1105423629806517 [Eh]
	 SCS Opposite-Spin Energy  =      -1.3044990930534681 [Eh]
	 SCS Correlation Energy    =      -1.4150414560341198 [Eh]
	 SCS Total Energy          =    -325.4244652806905833 [Eh]
	-----------------------------------------------------------

  Dipole Moment: [D]
     X:    -3.3718      Y:    -0.9283      Z:     0.2572     Total:     3.5067

*** Psi4 exiting successfully. Buy a developer a beer!
