                               Psi4 1.3.2 release

  ==> Input File <==

--------------------------------------------------------------------------
#psi4
#
memory 32 gb

molecule  {
0 1
  O        2.3713340    -0.0431960     0.0348750
  N        0.3955610    -1.1626000    -0.0589710
  C       -1.7488560    -0.0105870    -0.3076690
  C       -1.0790680     1.2063820     0.3205530
  C       -1.0433070    -1.2763970     0.1538630
  C        0.3725010     1.2935890    -0.1457680
  C        1.3401549    -0.0155867    -0.0110012
  H       -2.8074580    -0.0696450    -0.0318610
  H       -1.6959720     0.0599610    -1.4006240
  H       -1.1144190     1.1154600     1.4138390
  H       -1.6138590     2.1267960     0.0620980
  H       -1.2653590    -1.4521000     1.2170140
  H       -1.4050610    -2.1469230    -0.4038060
  H        0.9414700     2.0498950     0.4019050
  H        0.4084350     1.5789030    -1.2051520
  H        0.9624730    -1.9950670     0.0738380
units angstrom
no_reorient  #important for SAPT in psi4, default
symmetry c1  #important for SAPT in psi4, default
}

set PROPERTIES_ORIGIN ["COM"]
properties('MP2/aug-cc-pvtz', properties = ['dipole'])
--------------------------------------------------------------------------

    Molecular point group: c1
  Charge       = 0
  Multiplicity = 1
  Basis Set: AUG-CC-PVTZ
    Blend: AUG-CC-PVTZ
  Basis Set: (AUG-CC-PVTZ AUX)
    Blend: AUG-CC-PVTZ-JKFIT

    Orbital Energies [Eh]
    ---------------------

    Doubly Occupied:

       1A    -20.551932     2A    -15.549204     3A    -11.339173
       4A    -11.264510     5A    -11.231239     6A    -11.227811
       7A    -11.227616     8A     -1.530641     9A     -1.197434
      10A     -1.068017    11A     -0.993438    12A     -0.877468
      13A     -0.819634    14A     -0.734994    15A     -0.700090
      16A     -0.680425    17A     -0.661516    18A     -0.640075
      19A     -0.606341    20A     -0.590436    21A     -0.565966
      22A     -0.526649    23A     -0.499826    24A     -0.483885
      25A     -0.477980    26A     -0.386847    27A     -0.372358

  @DF-RHF Final Energy:  -323.95601619494266

   => Energetics <=

    Nuclear Repulsion Energy =            313.6252278847431398
    One-Electron Energy =               -1061.5514789472026678
    Two-Electron Energy =                 423.9702348675168651
    Total Energy =                       -323.9560161949426629
  Basis Set: (AUG-CC-PVTZ AUX)
    Blend: AUG-CC-PVTZ-RI
    Molecular point group: c1

    Geometry (in Angstrom), charge = 0, multiplicity = 1:

       Center              X                  Y                   Z               Mass
    ------------   -----------------  -----------------  -----------------  -----------------
         O            2.271238387376    -0.029822513838     0.035076600952    15.994914619570
         N            0.295465387376    -1.149226513838    -0.058769399048    14.003074004430
         C           -1.848951612624     0.002786486162    -0.307467399048    12.000000000000
         C           -1.179163612624     1.219755486162     0.320754600952    12.000000000000
         C           -1.143402612624    -1.263023513838     0.154064600952    12.000000000000
         C            0.272405387376     1.306962486162    -0.145566399048    12.000000000000
         C            1.240059287376    -0.002213213838    -0.010799599048    12.000000000000
         H           -2.907553612624    -0.056271513838    -0.031659399048     1.007825032230
         H           -1.796067612624     0.073334486162    -1.400422399048     1.007825032230
         H           -1.214514612624     1.128833486162     1.414040600952     1.007825032230
         H           -1.713954612624     2.140169486162     0.062299600952     1.007825032230
         H           -1.365454612624    -1.438726513838     1.217215600952     1.007825032230
         H           -1.505156612624    -2.133549513838    -0.403604399048     1.007825032230
         H            0.841374387376     2.063268486162     0.402106600952     1.007825032230
         H            0.308339387376     1.592276486162    -1.204950399048     1.007825032230
         H            0.862377387376    -1.981693513838     0.074039600952     1.007825032230

  Basis Set: AUG-CC-PVTZ
    Blend: AUG-CC-PVTZ
  Basis Set: (AUG-CC-PVTZ AUX)
    Blend: AUG-CC-PVTZ-JKFIT
	 Reference Energy          =    -323.9560161949426629 [Eh]
	 Singles Energy            =      -0.0000000000000000 [Eh]
	 Same-Spin Energy          =      -0.3303063125847525 [Eh]
	 Opposite-Spin Energy      =      -1.0844994864378354 [Eh]
	 Correlation Energy        =      -1.4148057990225880 [Eh]
	 Total Energy              =    -325.3708219939652508 [Eh]

	 ================> DF-SCS-MP2 Energies <==================
	-----------------------------------------------------------
	 SCS Same-Spin Scale       =       0.3333333333333333 [-]
	 SCS Opposite-Spin Scale   =       1.2000000000000000 [-]
	 SCS Same-Spin Energy      =      -0.1101021041949175 [Eh]
	 SCS Opposite-Spin Energy  =      -1.3013993837254025 [Eh]
	 SCS Correlation Energy    =      -1.4115014879203200 [Eh]
	 SCS Total Energy          =    -325.3675176828629674 [Eh]
	-----------------------------------------------------------

  Dipole Moment: [D]
     X:    -2.3516      Y:    -0.2567      Z:     0.2844     Total:     2.3826

*** Psi4 exiting successfully. Buy a developer a beer!
