                               Psi4 1.3.2 release

  ==> Input File <==

--------------------------------------------------------------------------
#psi4
#
memory 32 gb

molecule  {
0 1
  O        2.3713340    -0.0431960     0.0348750
  N        0.4771759    -1.2117206    -0.0486647
  C       -1.7488560    -0.0105870    -0.3076690
  C       -1.0790680     1.2063820     0.3205530
  C       -1.0433070    -1.2763970     0.1538630
  C        0.3725010     1.2935890    -0.1457680
  C        1.1404240    -0.0102390    -0.0198870
  H       -2.8074580    -0.0696450    -0.0318610
  H       -1.6959720     0.0599610    -1.4006240
  H       -1.1144190     1.1154600     1.4138390
  H       -1.6138590     2.1267960     0.0620980
  H       -1.2653590    -1.4521000     1.2170140
  H       -1.4050610    -2.1469230    -0.4038060
  H        0.9414700     2.0498950     0.4019050
  H        0.4084350     1.5789030    -1.2051520
  H        0.9624730    -1.9950670     0.0738380
units angstrom
no_reorient  #important for SAPT in psi4, default
symmetry c1  #important for SAPT in psi4, default
}

set PROPERTIES_ORIGIN ["COM"]
properties('MP2/aug-cc-pvtz', properties = ['dipole'])
--------------------------------------------------------------------------

    Molecular point group: c1
  Charge       = 0
  Multiplicity = 1
  Basis Set: AUG-CC-PVTZ
    Blend: AUG-CC-PVTZ
  Basis Set: (AUG-CC-PVTZ AUX)
    Blend: AUG-CC-PVTZ-JKFIT

    Orbital Energies [Eh]
    ---------------------

    Doubly Occupied:

       1A    -20.504265     2A    -15.573386     3A    -11.343712
       4A    -11.282372     5A    -11.243250     6A    -11.242546
       7A    -11.241192     8A     -1.363960     9A     -1.219532
      10A     -1.094334    11A     -1.015681    12A     -0.900562
      13A     -0.841618    14A     -0.773115    15A     -0.683678
      16A     -0.653125    17A     -0.634297    18A     -0.613122
      19A     -0.599417    20A     -0.586144    21A     -0.565000
      22A     -0.504132    23A     -0.498714    24A     -0.489046
      25A     -0.486405    26A     -0.408443    27A     -0.385404

  @DF-RHF Final Energy:  -324.02257827192324

   => Energetics <=

    Nuclear Repulsion Energy =            312.3800811344713679
    One-Electron Energy =               -1059.3124153976086745
    Two-Electron Energy =                 422.9097559912141264
    Total Energy =                       -324.0225782719232370
  Basis Set: (AUG-CC-PVTZ AUX)
    Blend: AUG-CC-PVTZ-RI
    Molecular point group: c1

    Geometry (in Angstrom), charge = 0, multiplicity = 1:

       Center              X                  Y                   Z               Mass
    ------------   -----------------  -----------------  -----------------  -----------------
         O            2.283895411607    -0.023527197578     0.034696153945    15.994914619570
         N            0.389737311607    -1.192051797578    -0.048843546055    14.003074004430
         C           -1.836294588393     0.009081802422    -0.307847846055    12.000000000000
         C           -1.166506588393     1.226050802422     0.320374153945    12.000000000000
         C           -1.130745588393    -1.256728197578     0.153684153945    12.000000000000
         C            0.285062411607     1.313257802422    -0.145946846055    12.000000000000
         C            1.052985411607     0.009429802422    -0.020065846055    12.000000000000
         H           -2.894896588393    -0.049976197578    -0.032039846055     1.007825032230
         H           -1.783410588393     0.079629802422    -1.400802846055     1.007825032230
         H           -1.201857588393     1.135128802422     1.413660153945     1.007825032230
         H           -1.701297588393     2.146464802422     0.061919153945     1.007825032230
         H           -1.352797588393    -1.432431197578     1.216835153945     1.007825032230
         H           -1.492499588393    -2.127254197578    -0.403984846055     1.007825032230
         H            0.854031411607     2.069563802422     0.401726153945     1.007825032230
         H            0.320996411607     1.598571802422    -1.205330846055     1.007825032230
         H            0.875034411607    -1.975398197578     0.073659153945     1.007825032230

  Basis Set: AUG-CC-PVTZ
    Blend: AUG-CC-PVTZ
  Basis Set: (AUG-CC-PVTZ AUX)
    Blend: AUG-CC-PVTZ-JKFIT
	 Reference Energy          =    -324.0225782719232370 [Eh]
	 Singles Energy            =      -0.0000000000000000 [Eh]
	 Same-Spin Energy          =      -0.3327063749272332 [Eh]
	 Opposite-Spin Energy      =      -1.0900960295238249 [Eh]
	 Correlation Energy        =      -1.4228024044510581 [Eh]
	 Total Energy              =    -325.4453806763742705 [Eh]

	 ================> DF-SCS-MP2 Energies <==================
	-----------------------------------------------------------
	 SCS Same-Spin Scale       =       0.3333333333333333 [-]
	 SCS Opposite-Spin Scale   =       1.2000000000000000 [-]
	 SCS Same-Spin Energy      =      -0.1109021249757444 [Eh]
	 SCS Opposite-Spin Energy  =      -1.3081152354285899 [Eh]
	 SCS Correlation Energy    =      -1.4190173604043343 [Eh]
	 SCS Total Energy          =    -325.4415956323275623 [Eh]
	-----------------------------------------------------------

  Dipole Moment: [D]
     X:    -4.4020      Y:    -0.4629      Z:     0.1506     Total:     4.4289

*** Psi4 exiting successfully. Buy a developer a beer!
