                               Psi4 1.4a3.dev225

  ==> Input File <==

--------------------------------------------------------------------------
#psi4
#
memory 32 gb

molecule  {
0 1
  O        2.3713340    -0.0431960     0.0348750
  N        0.3955610    -1.1626000    -0.0589710
  C       -1.7488560    -0.0105870    -0.3076690
  C       -1.0790680     1.2063820     0.3205530
  C       -1.0433070    -1.2763970     0.1538630
  C        0.3725010     1.2935890    -0.1457680
  C        1.1903567    -0.0115759    -0.0176655
  H       -2.8074580    -0.0696450    -0.0318610
  H       -1.6959720     0.0599610    -1.4006240
  H       -1.1144190     1.1154600     1.4138390
  H       -1.6138590     2.1267960     0.0620980
  H       -1.2653590    -1.4521000     1.2170140
  H       -1.4050610    -2.1469230    -0.4038060
  H        0.9414700     2.0498950     0.4019050
  H        0.4084350     1.5789030    -1.2051520
  H        0.9624730    -1.9950670     0.0738380
units angstrom
no_reorient  #important for SAPT in psi4, default
symmetry c1  #important for SAPT in psi4, default
}

set PROPERTIES_ORIGIN ["COM"]
properties('MP2/aug-cc-pvtz', properties = ['dipole'])
--------------------------------------------------------------------------

    Molecular point group: c1
  Charge       = 0
  Multiplicity = 1
  Basis Set: AUG-CC-PVTZ
    Blend: AUG-CC-PVTZ
  Basis Set: (AUG-CC-PVTZ AUX)
    Blend: AUG-CC-PVTZ-JKFIT

    Orbital Energies [Eh]
    ---------------------

    Doubly Occupied:

       1A    -20.520219     2A    -15.573783     3A    -11.344652
       4A    -11.275129     5A    -11.238024     6A    -11.237103
       7A    -11.236292     8A     -1.399345     9A     -1.225714
      10A     -1.083057    11A     -1.012887    12A     -0.891737
      13A     -0.837797    14A     -0.747215    15A     -0.691510
      16A     -0.649694    17A     -0.645975    18A     -0.611511
      19A     -0.598797    20A     -0.587720    21A     -0.572168
      22A     -0.510566    23A     -0.499819    24A     -0.488278
      25A     -0.482645    26A     -0.410190    27A     -0.387225

  @DF-RHF Final Energy:  -324.03200827886110

   => Energetics <=

    Nuclear Repulsion Energy =            313.4081019032753943
    One-Electron Energy =               -1061.3621121125117952
    Two-Electron Energy =                 423.9220019303753588
    Total Energy =                       -324.0320082788610989
  Basis Set: (AUG-CC-PVTZ AUX)
    Blend: AUG-CC-PVTZ-RI
    Molecular point group: c1

    Geometry (in Angstrom), charge = 0, multiplicity = 1:

       Center              X                  Y                   Z               Mass
    ------------   -----------------  -----------------  -----------------  -----------------
         O            2.289383205982    -0.030308335686     0.035883837051    15.994914619570
         N            0.313610205982    -1.149712335686    -0.057962162949    14.003074004430
         C           -1.830806794018     0.002300664314    -0.306660162949    12.000000000000
         C           -1.161018794018     1.219269664314     0.321561837051    12.000000000000
         C           -1.125257794018    -1.263509335686     0.154871837051    12.000000000000
         C            0.290550205982     1.306476664314    -0.144759162949    12.000000000000
         C            1.108405905982     0.001311764314    -0.016656662949    12.000000000000
         H           -2.889408794018    -0.056757335686    -0.030852162949     1.007825032230
         H           -1.777922794018     0.072848664314    -1.399615162949     1.007825032230
         H           -1.196369794018     1.128347664314     1.414847837051     1.007825032230
         H           -1.695809794018     2.139683664314     0.063106837051     1.007825032230
         H           -1.347309794018    -1.439212335686     1.218022837051     1.007825032230
         H           -1.487011794018    -2.134035335686    -0.402797162949     1.007825032230
         H            0.859519205982     2.062782664314     0.402913837051     1.007825032230
         H            0.326484205982     1.591790664314    -1.204143162949     1.007825032230
         H            0.880522205982    -1.982179335686     0.074846837051     1.007825032230

  Basis Set: AUG-CC-PVTZ
    Blend: AUG-CC-PVTZ
  Basis Set: (AUG-CC-PVTZ AUX)
    Blend: AUG-CC-PVTZ-JKFIT
	 Reference Energy          =    -324.0320082788610989 [Eh]
	 Singles Energy            =      -0.0000000000000000 [Eh]
	 Same-Spin Energy          =      -0.3327273564741193 [Eh]
	 Opposite-Spin Energy      =      -1.0892047336667203 [Eh]
	 Correlation Energy        =      -1.4219320901408397 [Eh]
	 Total Energy              =    -325.4539403690019412 [Eh]

	 ================> DF-SCS-MP2 Energies <==================
	-----------------------------------------------------------
	 SCS Same-Spin Scale       =       0.3333333333333333 [-]
	 SCS Opposite-Spin Scale   =       1.2000000000000000 [-]
	 SCS Same-Spin Energy      =      -0.1109091188247064 [Eh]
	 SCS Opposite-Spin Energy  =      -1.3070456804000643 [Eh]
	 SCS Correlation Energy    =      -1.4179547992247707 [Eh]
	 SCS Total Energy          =    -325.4499630780858865 [Eh]
	-----------------------------------------------------------

  Dipole Moment: [D]
     X:    -3.8136      Y:    -0.5003      Z:     0.1892     Total:     3.8510

*** Psi4 exiting successfully. Buy a developer a beer!
