                               Psi4 1.4a3.dev225

  ==> Input File <==

--------------------------------------------------------------------------
#psi4
#
memory 32 gb

molecule  {
0 1
  O        2.3713340    -0.0431960     0.0348750
  N        0.3955610    -1.1626000    -0.0589710
  C       -1.7488560    -0.0105870    -0.3076690
  C       -1.0790680     1.2063820     0.3205530
  C       -1.0433070    -1.2763970     0.1538630
  C        0.3725010     1.2935890    -0.1457680
  C        1.1204509    -0.0097042    -0.0207756
  H       -2.8074580    -0.0696450    -0.0318610
  H       -1.6959720     0.0599610    -1.4006240
  H       -1.1144190     1.1154600     1.4138390
  H       -1.6138590     2.1267960     0.0620980
  H       -1.2653590    -1.4521000     1.2170140
  H       -1.4050610    -2.1469230    -0.4038060
  H        0.9414700     2.0498950     0.4019050
  H        0.4084350     1.5789030    -1.2051520
  H        0.9624730    -1.9950670     0.0738380
units angstrom
no_reorient  #important for SAPT in psi4, default
symmetry c1  #important for SAPT in psi4, default
}

set PROPERTIES_ORIGIN ["COM"]
properties('MP2/aug-cc-pvtz', properties = ['dipole'])
--------------------------------------------------------------------------

    Molecular point group: c1
  Charge       = 0
  Multiplicity = 1
  Basis Set: AUG-CC-PVTZ
    Blend: AUG-CC-PVTZ
  Basis Set: (AUG-CC-PVTZ AUX)
    Blend: AUG-CC-PVTZ-JKFIT

    Orbital Energies [Eh]
    ---------------------

    Doubly Occupied:

       1A    -20.506145     2A    -15.584751     3A    -11.346582
       4A    -11.279523     5A    -11.241464     6A    -11.240482
       7A    -11.239302     8A     -1.354157     9A     -1.233060
      10A     -1.090312    11A     -1.020857    12A     -0.899103
      13A     -0.846043    14A     -0.757870    15A     -0.693927
      16A     -0.651993    17A     -0.637158    18A     -0.613361
      19A     -0.595559    20A     -0.587468    21A     -0.569369
      22A     -0.503317    23A     -0.496321    24A     -0.486122
      25A     -0.484572    26A     -0.409977    27A     -0.385694

  @DF-RHF Final Energy:  -324.03054423088849

   => Energetics <=

    Nuclear Repulsion Energy =            313.5865610155536274
    One-Electron Energy =               -1061.7252309617451829
    Two-Electron Energy =                 424.1081257153031174
    Total Energy =                       -324.0305442308884949
  Basis Set: (AUG-CC-PVTZ AUX)
    Blend: AUG-CC-PVTZ-RI
    Molecular point group: c1

    Geometry (in Angstrom), charge = 0, multiplicity = 1:

       Center              X                  Y                   Z               Mass
    ------------   -----------------  -----------------  -----------------  -----------------
         O            2.297850784768    -0.030535051742     0.036260558536    15.994914619570
         N            0.322077784768    -1.149939051742    -0.057585441464    14.003074004430
         C           -1.822339215232     0.002073948258    -0.306283441464    12.000000000000
         C           -1.152551215232     1.219042948258     0.321938558536    12.000000000000
         C           -1.116790215232    -1.263736051742     0.155248558536    12.000000000000
         C            0.299017784768     1.306249948258    -0.144382441464    12.000000000000
         C            1.046967684768     0.002956748258    -0.019390041464    12.000000000000
         H           -2.880941215232    -0.056984051742    -0.030475441464     1.007825032230
         H           -1.769455215232     0.072621948258    -1.399238441464     1.007825032230
         H           -1.187902215232     1.128120948258     1.415224558536     1.007825032230
         H           -1.687342215232     2.139456948258     0.063483558536     1.007825032230
         H           -1.338842215232    -1.439439051742     1.218399558536     1.007825032230
         H           -1.478544215232    -2.134262051742    -0.402420441464     1.007825032230
         H            0.867986784768     2.062555948258     0.403290558536     1.007825032230
         H            0.334951784768     1.591563948258    -1.203766441464     1.007825032230
         H            0.888989784768    -1.982406051742     0.075223558536     1.007825032230

  Basis Set: AUG-CC-PVTZ
    Blend: AUG-CC-PVTZ
  Basis Set: (AUG-CC-PVTZ AUX)
    Blend: AUG-CC-PVTZ-JKFIT
	 Reference Energy          =    -324.0305442308884949 [Eh]
	 Singles Energy            =      -0.0000000000000000 [Eh]
	 Same-Spin Energy          =      -0.3342245218732615 [Eh]
	 Opposite-Spin Energy      =      -1.0919771642520812 [Eh]
	 Correlation Energy        =      -1.4262016861253426 [Eh]
	 Total Energy              =    -325.4567459170138477 [Eh]

	 ================> DF-SCS-MP2 Energies <==================
	-----------------------------------------------------------
	 SCS Same-Spin Scale       =       0.3333333333333333 [-]
	 SCS Opposite-Spin Scale   =       1.2000000000000000 [-]
	 SCS Same-Spin Energy      =      -0.1114081739577538 [Eh]
	 SCS Opposite-Spin Energy  =      -1.3103725971024975 [Eh]
	 SCS Correlation Energy    =      -1.4217807710602512 [Eh]
	 SCS Total Energy          =    -325.4523250019487364 [Eh]
	-----------------------------------------------------------

  Dipole Moment: [D]
     X:    -4.3930      Y:    -0.6096      Z:     0.1460     Total:     4.4375

*** Psi4 exiting successfully. Buy a developer a beer!
