                               Psi4 1.3.2 release

  ==> Input File <==

--------------------------------------------------------------------------
#psi4
#
memory 32 gb

molecule  {
0 1
  O        2.3713340    -0.0431960     0.0348750
  N        0.3955610    -1.1626000    -0.0589710
  C       -1.7488560    -0.0105870    -0.3076690
  C       -1.0790680     1.2063820     0.3205530
  C       -1.0433070    -1.2763970     0.1538630
  C        0.3725010     1.2935890    -0.1457680
  C        1.0392746     0.1614988    -0.0364678
  H       -2.8074580    -0.0696450    -0.0318610
  H       -1.6959720     0.0599610    -1.4006240
  H       -1.1144190     1.1154600     1.4138390
  H       -1.6138590     2.1267960     0.0620980
  H       -1.2653590    -1.4521000     1.2170140
  H       -1.4050610    -2.1469230    -0.4038060
  H        0.9414700     2.0498950     0.4019050
  H        0.4084350     1.5789030    -1.2051520
  H        0.9624730    -1.9950670     0.0738380
units angstrom
no_reorient  #important for SAPT in psi4, default
symmetry c1  #important for SAPT in psi4, default
}

set PROPERTIES_ORIGIN ["COM"]
properties('MP2/aug-cc-pvtz', properties = ['dipole'])
--------------------------------------------------------------------------

    Molecular point group: c1
  Charge       = 0
  Multiplicity = 1
  Basis Set: AUG-CC-PVTZ
    Blend: AUG-CC-PVTZ
  Basis Set: (AUG-CC-PVTZ AUX)
    Blend: AUG-CC-PVTZ-JKFIT

    Orbital Energies [Eh]
    ---------------------

    Doubly Occupied:

       1A    -20.504075     2A    -15.578288     3A    -11.363392
       4A    -11.269640     5A    -11.252212     6A    -11.244670
       7A    -11.243301     8A     -1.308086     9A     -1.201449
      10A     -1.115417    11A     -1.040243    12A     -0.913530
      13A     -0.842125    14A     -0.760238    15A     -0.693433
      16A     -0.652796    17A     -0.634921    18A     -0.628060
      19A     -0.603997    20A     -0.581970    21A     -0.564955
      22A     -0.503243    23A     -0.498256    24A     -0.481966
      25A     -0.459065    26A     -0.409503    27A     -0.367038

  @DF-RHF Final Energy:  -323.96066076249724

   => Energetics <=

    Nuclear Repulsion Energy =            313.5422682737305422
    One-Electron Energy =               -1061.5741215811613074
    Two-Electron Energy =                 424.0711925449335240
    Total Energy =                       -323.9606607624972412
  Basis Set: (AUG-CC-PVTZ AUX)
    Blend: AUG-CC-PVTZ-RI
    Molecular point group: c1

    Geometry (in Angstrom), charge = 0, multiplicity = 1:

       Center              X                  Y                   Z               Mass
    ------------   -----------------  -----------------  -----------------  -----------------
         O            2.307683541360    -0.051272599854     0.038161329858    15.994914619570
         N            0.331910541360    -1.170676599854    -0.055684670142    14.003074004430
         C           -1.812506458640    -0.018663599854    -0.304382670142    12.000000000000
         C           -1.142718458640     1.198305400146     0.323839329858    12.000000000000
         C           -1.106957458640    -1.284473599854     0.157149329858    12.000000000000
         C            0.308850541360     1.285512400146    -0.142481670142    12.000000000000
         C            0.975624141360     0.153422200146    -0.033181470142    12.000000000000
         H           -2.871108458640    -0.077721599854    -0.028574670142     1.007825032230
         H           -1.759622458640     0.051884400146    -1.397337670142     1.007825032230
         H           -1.178069458640     1.107383400146     1.417125329858     1.007825032230
         H           -1.677509458640     2.118719400146     0.065384329858     1.007825032230
         H           -1.329009458640    -1.460176599854     1.220300329858     1.007825032230
         H           -1.468711458640    -2.154999599854    -0.400519670142     1.007825032230
         H            0.877819541360     2.041818400146     0.405191329858     1.007825032230
         H            0.344784541360     1.570826400146    -1.201865670142     1.007825032230
         H            0.898822541360    -2.003143599854     0.077124329858     1.007825032230

  Basis Set: AUG-CC-PVTZ
    Blend: AUG-CC-PVTZ
  Basis Set: (AUG-CC-PVTZ AUX)
    Blend: AUG-CC-PVTZ-JKFIT
	 Reference Energy          =    -323.9606607624972412 [Eh]
	 Singles Energy            =      -0.0000000000000000 [Eh]
	 Same-Spin Energy          =      -0.3394536405206005 [Eh]
	 Opposite-Spin Energy      =      -1.1015525856136383 [Eh]
	 Correlation Energy        =      -1.4410062261342387 [Eh]
	 Total Energy              =    -325.4016669886314617 [Eh]

	 ================> DF-SCS-MP2 Energies <==================
	-----------------------------------------------------------
	 SCS Same-Spin Scale       =       0.3333333333333333 [-]
	 SCS Opposite-Spin Scale   =       1.2000000000000000 [-]
	 SCS Same-Spin Energy      =      -0.1131512135068668 [Eh]
	 SCS Opposite-Spin Energy  =      -1.3218631027363659 [Eh]
	 SCS Correlation Energy    =      -1.4350143162432327 [Eh]
	 SCS Total Energy          =    -325.3956750787404530 [Eh]
	-----------------------------------------------------------

  Dipole Moment: [D]
     X:    -4.5799      Y:     0.2368      Z:     0.0640     Total:     4.5865

*** Psi4 exiting successfully. Buy a developer a beer!
