                               Psi4 1.3.2 release

  ==> Input File <==

--------------------------------------------------------------------------
#psi4
#
memory 32 gb

molecule  {
0 1
  O        2.3713340    -0.0431960     0.0348750
  N        0.3955610    -1.1626000    -0.0589710
  C       -1.7488560    -0.0105870    -0.3076690
  C       -1.0790680     1.2063820     0.3205530
  C       -1.0433070    -1.2763970     0.1538630
  C        0.3725010     1.2935890    -0.1457680
  C        1.0898493     0.0756299    -0.0281774
  H       -2.8074580    -0.0696450    -0.0318610
  H       -1.6959720     0.0599610    -1.4006240
  H       -1.1144190     1.1154600     1.4138390
  H       -1.6138590     2.1267960     0.0620980
  H       -1.2653590    -1.4521000     1.2170140
  H       -1.4050610    -2.1469230    -0.4038060
  H        0.9414700     2.0498950     0.4019050
  H        0.4084350     1.5789030    -1.2051520
  H        0.9624730    -1.9950670     0.0738380
units angstrom
no_reorient  #important for SAPT in psi4, default
symmetry c1  #important for SAPT in psi4, default
}

set PROPERTIES_ORIGIN ["COM"]
properties('MP2/aug-cc-pvtz', properties = ['dipole'])
--------------------------------------------------------------------------

    Molecular point group: c1
  Charge       = 0
  Multiplicity = 1
  Basis Set: AUG-CC-PVTZ
    Blend: AUG-CC-PVTZ
  Basis Set: (AUG-CC-PVTZ AUX)
    Blend: AUG-CC-PVTZ-JKFIT

    Orbital Energies [Eh]
    ---------------------

    Doubly Occupied:

       1A    -20.507609     2A    -15.580118     3A    -11.354842
       4A    -11.273905     5A    -11.245734     6A    -11.242726
       7A    -11.241673     8A     -1.335419     9A     -1.216239
      10A     -1.097451    11A     -1.029784    12A     -0.905153
      13A     -0.844394    14A     -0.757459    15A     -0.690521
      16A     -0.652643    17A     -0.634934    18A     -0.618594
      19A     -0.596992    20A     -0.584325    21A     -0.572379
      22A     -0.501305    23A     -0.498114    24A     -0.485011
      25A     -0.476444    26A     -0.414790    27A     -0.376804

  @DF-RHF Final Energy:  -324.01232438572930

   => Energetics <=

    Nuclear Repulsion Energy =            313.4670213946456556
    One-Electron Energy =               -1061.4879691235266819
    Two-Electron Energy =                 424.0086233431517826
    Total Energy =                       -324.0123243857293005
  Basis Set: (AUG-CC-PVTZ AUX)
    Blend: AUG-CC-PVTZ-RI
    Molecular point group: c1

    Geometry (in Angstrom), charge = 0, multiplicity = 1:

       Center              X                  Y                   Z               Mass
    ------------   -----------------  -----------------  -----------------  -----------------
         O            2.301557508086    -0.040871436060     0.037157126842    15.994914619570
         N            0.325784508086    -1.160275436060    -0.056688873158    14.003074004430
         C           -1.818632491914    -0.008262436060    -0.305386873158    12.000000000000
         C           -1.148844491914     1.208706563940     0.322835126842    12.000000000000
         C           -1.113083491914    -1.274072436060     0.156145126842    12.000000000000
         C            0.302724508086     1.295913563940    -0.143485873158    12.000000000000
         C            1.020072808086     0.077954463940    -0.025895273158    12.000000000000
         H           -2.877234491914    -0.067320436060    -0.029578873158     1.007825032230
         H           -1.765748491914     0.062285563940    -1.398341873158     1.007825032230
         H           -1.184195491914     1.117784563940     1.416121126842     1.007825032230
         H           -1.683635491914     2.129120563940     0.064380126842     1.007825032230
         H           -1.335135491914    -1.449775436060     1.219296126842     1.007825032230
         H           -1.474837491914    -2.144598436060    -0.401523873158     1.007825032230
         H            0.871693508086     2.052219563940     0.404187126842     1.007825032230
         H            0.338658508086     1.581227563940    -1.202869873158     1.007825032230
         H            0.892696508086    -1.992742436060     0.076120126842     1.007825032230

  Basis Set: AUG-CC-PVTZ
    Blend: AUG-CC-PVTZ
  Basis Set: (AUG-CC-PVTZ AUX)
    Blend: AUG-CC-PVTZ-JKFIT
	 Reference Energy          =    -324.0123243857293005 [Eh]
	 Singles Energy            =      -0.0000000000000000 [Eh]
	 Same-Spin Energy          =      -0.3360860007102354 [Eh]
	 Opposite-Spin Energy      =      -1.0954376222030373 [Eh]
	 Correlation Energy        =      -1.4315236229132728 [Eh]
	 Total Energy              =    -325.4438480086425898 [Eh]

	 ================> DF-SCS-MP2 Energies <==================
	-----------------------------------------------------------
	 SCS Same-Spin Scale       =       0.3333333333333333 [-]
	 SCS Opposite-Spin Scale   =       1.2000000000000000 [-]
	 SCS Same-Spin Energy      =      -0.1120286669034118 [Eh]
	 SCS Opposite-Spin Energy  =      -1.3145251466436447 [Eh]
	 SCS Correlation Energy    =      -1.4265538135470566 [Eh]
	 SCS Total Energy          =    -325.4388781992763597 [Eh]
	-----------------------------------------------------------

  Dipole Moment: [D]
     X:    -4.4134      Y:    -0.1792      Z:     0.1125     Total:     4.4185

*** Psi4 exiting successfully. Buy a developer a beer!
