                               Psi4 1.4a3.dev225

  ==> Input File <==

--------------------------------------------------------------------------
#psi4
#
memory 32 gb

molecule  {
0 1
  O        2.3713340    -0.0431960     0.0348750
  N        0.3955610    -1.1626000    -0.0589710
  C       -1.7488560    -0.0105870    -0.3076690
  C       -1.0790680     1.2063820     0.3205530
  C       -1.0433070    -1.2763970     0.1538630
  C        0.3725010     1.2935890    -0.1457680
  C        1.1505389    -0.0274128    -0.0182289
  H       -2.8074580    -0.0696450    -0.0318610
  H       -1.6959720     0.0599610    -1.4006240
  H       -1.1144190     1.1154600     1.4138390
  H       -1.6138590     2.1267960     0.0620980
  H       -1.2653590    -1.4521000     1.2170140
  H       -1.4050610    -2.1469230    -0.4038060
  H        0.9414700     2.0498950     0.4019050
  H        0.4084350     1.5789030    -1.2051520
  H        0.9624730    -1.9950670     0.0738380
units angstrom
no_reorient  #important for SAPT in psi4, default
symmetry c1  #important for SAPT in psi4, default
}

set PROPERTIES_ORIGIN ["COM"]
properties('MP2/aug-cc-pvtz', properties = ['dipole'])
--------------------------------------------------------------------------

    Molecular point group: c1
  Charge       = 0
  Multiplicity = 1
  Basis Set: AUG-CC-PVTZ
    Blend: AUG-CC-PVTZ
  Basis Set: (AUG-CC-PVTZ AUX)
    Blend: AUG-CC-PVTZ-JKFIT

    Orbital Energies [Eh]
    ---------------------

    Doubly Occupied:

       1A    -20.510731     2A    -15.582010     3A    -11.344617
       4A    -11.279202     5A    -11.239960     6A    -11.238607
       7A    -11.237285     8A     -1.371708     9A     -1.235086
      10A     -1.087112    11A     -1.016681    12A     -0.895567
      13A     -0.843115    14A     -0.754230    15A     -0.693978
      16A     -0.650602    17A     -0.640250    18A     -0.612131
      19A     -0.595289    20A     -0.588728    21A     -0.569817
      22A     -0.506087    23A     -0.497444    24A     -0.488023
      25A     -0.483508    26A     -0.408820    27A     -0.388738

  @DF-RHF Final Energy:  -324.03332055331123

   => Energetics <=

    Nuclear Repulsion Energy =            313.5412995871838575
    One-Electron Energy =               -1061.6305913961507486
    Two-Electron Energy =                 424.0559712556556633
    Total Energy =                       -324.0333205533112277
  Basis Set: (AUG-CC-PVTZ AUX)
    Blend: AUG-CC-PVTZ-RI
    Molecular point group: c1

    Geometry (in Angstrom), charge = 0, multiplicity = 1:

       Center              X                  Y                   Z               Mass
    ------------   -----------------  -----------------  -----------------  -----------------
         O            2.294206273003    -0.028390037083     0.035952080801    15.994914619570
         N            0.318433273003    -1.147794037083    -0.057893919199    14.003074004430
         C           -1.825983726997     0.004218962917    -0.306591919199    12.000000000000
         C           -1.156195726997     1.221187962917     0.321630080801    12.000000000000
         C           -1.120434726997    -1.261591037083     0.154940080801    12.000000000000
         C            0.295373273003     1.308394962917    -0.144690919199    12.000000000000
         C            1.073411173003    -0.012606837083    -0.017151819199    12.000000000000
         H           -2.884585726997    -0.054839037083    -0.030783919199     1.007825032230
         H           -1.773099726997     0.074766962917    -1.399546919199     1.007825032230
         H           -1.191546726997     1.130265962917     1.414916080801     1.007825032230
         H           -1.690986726997     2.141601962917     0.063175080801     1.007825032230
         H           -1.342486726997    -1.437294037083     1.218091080801     1.007825032230
         H           -1.482188726997    -2.132117037083    -0.402728919199     1.007825032230
         H            0.864342273003     2.064700962917     0.402982080801     1.007825032230
         H            0.331307273003     1.593708962917    -1.204074919199     1.007825032230
         H            0.885345273003    -1.980261037083     0.074915080801     1.007825032230

  Basis Set: AUG-CC-PVTZ
    Blend: AUG-CC-PVTZ
  Basis Set: (AUG-CC-PVTZ AUX)
    Blend: AUG-CC-PVTZ-JKFIT
	 Reference Energy          =    -324.0333205533112277 [Eh]
	 Singles Energy            =      -0.0000000000000000 [Eh]
	 Same-Spin Energy          =      -0.3334539696290518 [Eh]
	 Opposite-Spin Energy      =      -1.0905484779243471 [Eh]
	 Correlation Energy        =      -1.4240024475533990 [Eh]
	 Total Energy              =    -325.4573230008646192 [Eh]

	 ================> DF-SCS-MP2 Energies <==================
	-----------------------------------------------------------
	 SCS Same-Spin Scale       =       0.3333333333333333 [-]
	 SCS Opposite-Spin Scale   =       1.2000000000000000 [-]
	 SCS Same-Spin Energy      =      -0.1111513232096839 [Eh]
	 SCS Opposite-Spin Energy  =      -1.3086581735092164 [Eh]
	 SCS Correlation Energy    =      -1.4198094967189003 [Eh]
	 SCS Total Energy          =    -325.4531300500301541 [Eh]
	-----------------------------------------------------------

  Dipole Moment: [D]
     X:    -4.1932      Y:    -0.6606      Z:     0.1673     Total:     4.2482

*** Psi4 exiting successfully. Buy a developer a beer!
