                               Psi4 1.3.2 release

  ==> Input File <==

--------------------------------------------------------------------------
#psi4
#
memory 32 gb

molecule  {
0 1
  O        2.3706129     0.0428321     0.0352791
  N        0.3955610    -1.1626000    -0.0589710
  C       -1.7488560    -0.0105870    -0.3076690
  C       -1.0790680     1.2063820     0.3205530
  C       -1.0433070    -1.2763970     0.1538630
  C        0.3725010     1.2935890    -0.1457680
  C        1.1404240    -0.0102390    -0.0198870
  H       -2.8074580    -0.0696450    -0.0318610
  H       -1.6959720     0.0599610    -1.4006240
  H       -1.1144190     1.1154600     1.4138390
  H       -1.6138590     2.1267960     0.0620980
  H       -1.2653590    -1.4521000     1.2170140
  H       -1.4050610    -2.1469230    -0.4038060
  H        0.9414700     2.0498950     0.4019050
  H        0.4084350     1.5789030    -1.2051520
  H        0.9624730    -1.9950670     0.0738380
units angstrom
no_reorient  #important for SAPT in psi4, default
symmetry c1  #important for SAPT in psi4, default
}

set PROPERTIES_ORIGIN ["COM"]
properties('MP2/aug-cc-pvtz', properties = ['dipole'])
--------------------------------------------------------------------------

    Molecular point group: c1
  Charge       = 0
  Multiplicity = 1
  Basis Set: AUG-CC-PVTZ
    Blend: AUG-CC-PVTZ
  Basis Set: (AUG-CC-PVTZ AUX)
    Blend: AUG-CC-PVTZ-JKFIT

    Orbital Energies [Eh]
    ---------------------

    Doubly Occupied:

       1A    -20.511091     2A    -15.585964     3A    -11.346277
       4A    -11.280465     5A    -11.240156     6A    -11.237573
       7A    -11.234251     8A     -1.364806     9A     -1.236182
      10A     -1.087329    11A     -1.017803    12A     -0.896398
      13A     -0.843761    14A     -0.755269    15A     -0.694169
      16A     -0.651279    17A     -0.639793    18A     -0.612232
      19A     -0.594646    20A     -0.588258    21A     -0.569569
      22A     -0.505226    23A     -0.497677    24A     -0.485497
      25A     -0.482410    26A     -0.408370    27A     -0.390255

  @DF-RHF Final Energy:  -324.03126363616059

   => Energetics <=

    Nuclear Repulsion Energy =            313.5106181744051241
    One-Electron Energy =               -1061.5703531059255056
    Two-Electron Energy =                 424.0284712953597364
    Total Energy =                       -324.0312636361605882
  Basis Set: (AUG-CC-PVTZ AUX)
    Blend: AUG-CC-PVTZ-RI
    Molecular point group: c1

    Geometry (in Angstrom), charge = 0, multiplicity = 1:

       Center              X                  Y                   Z               Mass
    ------------   -----------------  -----------------  -----------------  -----------------
         O            2.294826798731     0.041668313812     0.036491780579    15.994914619570
         N            0.319774898731    -1.163763786188    -0.057758319421    14.003074004430
         C           -1.824642101269    -0.011750786188    -0.306456319421    12.000000000000
         C           -1.154854101269     1.205218213812     0.321765680579    12.000000000000
         C           -1.119093101269    -1.277560786188     0.155075680579    12.000000000000
         C            0.296714898731     1.292425213812    -0.144555319421    12.000000000000
         C            1.064637898731    -0.011402786188    -0.018674319421    12.000000000000
         H           -2.883244101269    -0.070808786188    -0.030648319421     1.007825032230
         H           -1.771758101269     0.058797213812    -1.399411319421     1.007825032230
         H           -1.190205101269     1.114296213812     1.415051680579     1.007825032230
         H           -1.689645101269     2.125632213812     0.063310680579     1.007825032230
         H           -1.341145101269    -1.453263786188     1.218226680579     1.007825032230
         H           -1.480847101269    -2.148086786188    -0.402593319421     1.007825032230
         H            0.865683898731     2.048731213812     0.403117680579     1.007825032230
         H            0.332648898731     1.577739213812    -1.203939319421     1.007825032230
         H            0.886686898731    -1.996230786188     0.075050680579     1.007825032230

  Basis Set: AUG-CC-PVTZ
    Blend: AUG-CC-PVTZ
  Basis Set: (AUG-CC-PVTZ AUX)
    Blend: AUG-CC-PVTZ-JKFIT
	 Reference Energy          =    -324.0312636361605882 [Eh]
	 Singles Energy            =      -0.0000000000000000 [Eh]
	 Same-Spin Energy          =      -0.3338176046086396 [Eh]
	 Opposite-Spin Energy      =      -1.0913168564914577 [Eh]
	 Correlation Energy        =      -1.4251344611000973 [Eh]
	 Total Energy              =    -325.4563980972606601 [Eh]

	 ================> DF-SCS-MP2 Energies <==================
	-----------------------------------------------------------
	 SCS Same-Spin Scale       =       0.3333333333333333 [-]
	 SCS Opposite-Spin Scale   =       1.2000000000000000 [-]
	 SCS Same-Spin Energy      =      -0.1112725348695465 [Eh]
	 SCS Opposite-Spin Energy  =      -1.3095802277897493 [Eh]
	 SCS Correlation Energy    =      -1.4208527626592957 [Eh]
	 SCS Total Energy          =    -325.4521163988198964 [Eh]
	-----------------------------------------------------------

  Dipole Moment: [D]
     X:    -4.2125      Y:    -0.8182      Z:     0.1617     Total:     4.2943

*** Psi4 exiting successfully. Buy a developer a beer!
