                               Psi4 1.4a3.dev225

  ==> Input File <==

--------------------------------------------------------------------------
#psi4
#
memory 32 gb

molecule  {
0 1
  O        2.3713340    -0.0431960     0.0348750
  N        0.3955610    -1.1626000    -0.0589710
  C       -1.7488560    -0.0105870    -0.3076690
  C       -1.0790680     1.2063820     0.3205530
  C       -1.0433070    -1.2763970     0.1538630
  C        0.3725010     1.2935890    -0.1457680
  C        1.0904913    -0.0089021    -0.0221085
  H       -2.8074580    -0.0696450    -0.0318610
  H       -1.6959720     0.0599610    -1.4006240
  H       -1.1144190     1.1154600     1.4138390
  H       -1.6138590     2.1267960     0.0620980
  H       -1.2653590    -1.4521000     1.2170140
  H       -1.4050610    -2.1469230    -0.4038060
  H        0.9414700     2.0498950     0.4019050
  H        0.4084350     1.5789030    -1.2051520
  H        0.9624730    -1.9950670     0.0738380
units angstrom
no_reorient  #important for SAPT in psi4, default
symmetry c1  #important for SAPT in psi4, default
}

set PROPERTIES_ORIGIN ["COM"]
properties('MP2/aug-cc-pvtz', properties = ['dipole'])
--------------------------------------------------------------------------

    Molecular point group: c1
  Charge       = 0
  Multiplicity = 1
  Basis Set: AUG-CC-PVTZ
    Blend: AUG-CC-PVTZ
  Basis Set: (AUG-CC-PVTZ AUX)
    Blend: AUG-CC-PVTZ-JKFIT

    Orbital Energies [Eh]
    ---------------------

    Doubly Occupied:

       1A    -20.500153     2A    -15.589410     3A    -11.347141
       4A    -11.281312     5A    -11.243140     6A    -11.241583
       7A    -11.240428     8A     -1.340169     9A     -1.232958
      10A     -1.093502    11A     -1.023970    12A     -0.902260
      13A     -0.849523    14A     -0.762513    15A     -0.695480
      16A     -0.654073    17A     -0.635797    18A     -0.614387
      19A     -0.598407    20A     -0.585918    21A     -0.565616
      22A     -0.501591    23A     -0.495833    24A     -0.486234
      25A     -0.482964    26A     -0.407315    27A     -0.383271

  @DF-RHF Final Energy:  -324.02520263542993

   => Energetics <=

    Nuclear Repulsion Energy =            313.7053176919332032
    One-Electron Energy =               -1061.9511440253227192
    Two-Electron Energy =                 424.2206236979595246
    Total Energy =                       -324.0252026354299346
  Basis Set: (AUG-CC-PVTZ AUX)
    Blend: AUG-CC-PVTZ-RI
    Molecular point group: c1

    Geometry (in Angstrom), charge = 0, multiplicity = 1:

       Center              X                  Y                   Z               Mass
    ------------   -----------------  -----------------  -----------------  -----------------
         O            2.301479743644    -0.030632208844     0.036422010601    15.994914619570
         N            0.325706743644    -1.150036208844    -0.057423989399    14.003074004430
         C           -1.818710256356     0.001976791156    -0.306121989399    12.000000000000
         C           -1.148922256356     1.218945791156     0.322100010601    12.000000000000
         C           -1.113161256356    -1.263833208844     0.155410010601    12.000000000000
         C            0.302646743644     1.306152791156    -0.144220989399    12.000000000000
         C            1.020637043644     0.003661691156    -0.020561489399    12.000000000000
         H           -2.877312256356    -0.057081208844    -0.030313989399     1.007825032230
         H           -1.765826256356     0.072524791156    -1.399076989399     1.007825032230
         H           -1.184273256356     1.128023791156     1.415386010601     1.007825032230
         H           -1.683713256356     2.139359791156     0.063645010601     1.007825032230
         H           -1.335213256356    -1.439536208844     1.218561010601     1.007825032230
         H           -1.474915256356    -2.134359208844    -0.402258989399     1.007825032230
         H            0.871615743644     2.062458791156     0.403452010601     1.007825032230
         H            0.338580743644     1.591466791156    -1.203604989399     1.007825032230
         H            0.892618743644    -1.982503208844     0.075385010601     1.007825032230

  Basis Set: AUG-CC-PVTZ
    Blend: AUG-CC-PVTZ
  Basis Set: (AUG-CC-PVTZ AUX)
    Blend: AUG-CC-PVTZ-JKFIT
	 Reference Energy          =    -324.0252026354299346 [Eh]
	 Singles Energy            =      -0.0000000000000000 [Eh]
	 Same-Spin Energy          =      -0.3349168744332806 [Eh]
	 Opposite-Spin Energy      =      -1.0932436062313475 [Eh]
	 Correlation Energy        =      -1.4281604806646282 [Eh]
	 Total Energy              =    -325.4533631160945788 [Eh]

	 ================> DF-SCS-MP2 Energies <==================
	-----------------------------------------------------------
	 SCS Same-Spin Scale       =       0.3333333333333333 [-]
	 SCS Opposite-Spin Scale   =       1.2000000000000000 [-]
	 SCS Same-Spin Energy      =      -0.1116389581444269 [Eh]
	 SCS Opposite-Spin Energy  =      -1.3118923274776171 [Eh]
	 SCS Correlation Energy    =      -1.4235312856220439 [Eh]
	 SCS Total Energy          =    -325.4487339210519963 [Eh]
	-----------------------------------------------------------

  Dipole Moment: [D]
     X:    -4.6227      Y:    -0.6551      Z:     0.1275     Total:     4.6706

*** Psi4 exiting successfully. Buy a developer a beer!
