                               Psi4 1.3.2 release

  ==> Input File <==

--------------------------------------------------------------------------
#psi4
#
memory 32 gb

molecule  {
0 1
  O        2.3713340    -0.0431960     0.0348750
  N        0.3955610    -1.1626000    -0.0589710
  C       -1.7488560    -0.0105870    -0.3076690
  C       -1.0790680     1.2063820     0.3205530
  C       -1.0433070    -1.2763970     0.1538630
  C        0.3725010     1.2935890    -0.1457680
  C        1.0318982    -0.1781369    -0.0255815
  H       -2.8074580    -0.0696450    -0.0318610
  H       -1.6959720     0.0599610    -1.4006240
  H       -1.1144190     1.1154600     1.4138390
  H       -1.6138590     2.1267960     0.0620980
  H       -1.2653590    -1.4521000     1.2170140
  H       -1.4050610    -2.1469230    -0.4038060
  H        0.9414700     2.0498950     0.4019050
  H        0.4084350     1.5789030    -1.2051520
  H        0.9624730    -1.9950670     0.0738380
units angstrom
no_reorient  #important for SAPT in psi4, default
symmetry c1  #important for SAPT in psi4, default
}

set PROPERTIES_ORIGIN ["COM"]
properties('MP2/aug-cc-pvtz', properties = ['dipole'])
--------------------------------------------------------------------------

    Molecular point group: c1
  Charge       = 0
  Multiplicity = 1
  Basis Set: AUG-CC-PVTZ
    Blend: AUG-CC-PVTZ
  Basis Set: (AUG-CC-PVTZ AUX)
    Blend: AUG-CC-PVTZ-JKFIT

    Orbital Energies [Eh]
    ---------------------

    Doubly Occupied:

       1A    -20.471812     2A    -15.614360     3A    -11.330533
       4A    -11.300343     5A    -11.250046     6A    -11.238980
       7A    -11.237008     8A     -1.371849     9A     -1.229022
      10A     -1.102901    11A     -1.025014    12A     -0.910233
      13A     -0.862731    14A     -0.782387    15A     -0.720630
      16A     -0.670277    17A     -0.628175    18A     -0.610395
      19A     -0.608742    20A     -0.594538    21A     -0.539307
      22A     -0.509130    23A     -0.493333    24A     -0.490486
      25A     -0.472199    26A     -0.377354    27A     -0.372368

  @DF-RHF Final Energy:  -323.96691767100003

   => Energetics <=

    Nuclear Repulsion Energy =            314.7257381214030829
    One-Electron Energy =               -1063.7570085417455630
    Two-Electron Energy =                 425.0643527493424472
    Total Energy =                       -323.9669176710000329
  Basis Set: (AUG-CC-PVTZ AUX)
    Blend: AUG-CC-PVTZ-RI
    Molecular point group: c1

    Geometry (in Angstrom), charge = 0, multiplicity = 1:

       Center              X                  Y                   Z               Mass
    ------------   -----------------  -----------------  -----------------  -----------------
         O            2.308577033004    -0.010133065678     0.036842689588    15.994914619570
         N            0.332804033004    -1.129537065678    -0.057003310412    14.003074004430
         C           -1.811612966996     0.022475934322    -0.305701310412    12.000000000000
         C           -1.141824966996     1.239444934322     0.322520689588    12.000000000000
         C           -1.106063966996    -1.243334065678     0.155830689588    12.000000000000
         C            0.309744033004     1.326651934322    -0.143800310412    12.000000000000
         C            0.969141233004    -0.145073965678    -0.023613810412    12.000000000000
         H           -2.870214966996    -0.036582065678    -0.029893310412     1.007825032230
         H           -1.758728966996     0.093023934322    -1.398656310412     1.007825032230
         H           -1.177175966996     1.148522934322     1.415806689588     1.007825032230
         H           -1.676615966996     2.159858934322     0.064065689588     1.007825032230
         H           -1.328115966996    -1.419037065678     1.218981689588     1.007825032230
         H           -1.467817966996    -2.113860065678    -0.401838310412     1.007825032230
         H            0.878713033004     2.082957934322     0.403872689588     1.007825032230
         H            0.345678033004     1.611965934322    -1.203184310412     1.007825032230
         H            0.899716033004    -1.962004065678     0.075805689588     1.007825032230

  Basis Set: AUG-CC-PVTZ
    Blend: AUG-CC-PVTZ
  Basis Set: (AUG-CC-PVTZ AUX)
    Blend: AUG-CC-PVTZ-JKFIT
	 Reference Energy          =    -323.9669176710000329 [Eh]
	 Singles Energy            =      -0.0000000000000000 [Eh]
	 Same-Spin Energy          =      -0.3353062920182726 [Eh]
	 Opposite-Spin Energy      =      -1.0938558627540700 [Eh]
	 Correlation Energy        =      -1.4291621547723425 [Eh]
	 Total Energy              =    -325.3960798257724036 [Eh]

	 ================> DF-SCS-MP2 Energies <==================
	-----------------------------------------------------------
	 SCS Same-Spin Scale       =       0.3333333333333333 [-]
	 SCS Opposite-Spin Scale   =       1.2000000000000000 [-]
	 SCS Same-Spin Energy      =      -0.1117687640060909 [Eh]
	 SCS Opposite-Spin Energy  =      -1.3126270353048839 [Eh]
	 SCS Correlation Energy    =      -1.4243957993109748 [Eh]
	 SCS Total Energy          =    -325.3913134703109904 [Eh]
	-----------------------------------------------------------

  Dipole Moment: [D]
     X:    -5.6251      Y:    -1.5724      Z:     0.1000     Total:     5.8416

*** Psi4 exiting successfully. Buy a developer a beer!
