                               Psi4 1.3.2 release

  ==> Input File <==

--------------------------------------------------------------------------
#psi4
#
memory 32 gb

molecule  {
0 1
  O        2.3694448    -0.0861760     0.0345727
  N        0.3955610    -1.1626000    -0.0589710
  C       -1.7488560    -0.0105870    -0.3076690
  C       -1.0790680     1.2063820     0.3205530
  C       -1.0433070    -1.2763970     0.1538630
  C        0.3725010     1.2935890    -0.1457680
  C        1.1404240    -0.0102390    -0.0198870
  H       -2.8074580    -0.0696450    -0.0318610
  H       -1.6959720     0.0599610    -1.4006240
  H       -1.1144190     1.1154600     1.4138390
  H       -1.6138590     2.1267960     0.0620980
  H       -1.2653590    -1.4521000     1.2170140
  H       -1.4050610    -2.1469230    -0.4038060
  H        0.9414700     2.0498950     0.4019050
  H        0.4084350     1.5789030    -1.2051520
  H        0.9624730    -1.9950670     0.0738380
units angstrom
no_reorient  #important for SAPT in psi4, default
symmetry c1  #important for SAPT in psi4, default
}

set PROPERTIES_ORIGIN ["COM"]
properties('MP2/aug-cc-pvtz', properties = ['dipole'])
--------------------------------------------------------------------------

    Molecular point group: c1
  Charge       = 0
  Multiplicity = 1
  Basis Set: AUG-CC-PVTZ
    Blend: AUG-CC-PVTZ
  Basis Set: (AUG-CC-PVTZ AUX)
    Blend: AUG-CC-PVTZ-JKFIT

    Orbital Energies [Eh]
    ---------------------

    Doubly Occupied:

       1A    -20.509597     2A    -15.579402     3A    -11.346072
       4A    -11.277121     5A    -11.241124     6A    -11.240534
       7A    -11.240016     8A     -1.366052     9A     -1.229518
      10A     -1.088609    11A     -1.019015    12A     -0.897233
      13A     -0.843610    14A     -0.754539    15A     -0.692394
      16A     -0.650744    17A     -0.638436    18A     -0.613054
      19A     -0.594384    20A     -0.588874    21A     -0.571388
      22A     -0.504596    23A     -0.496637    24A     -0.488473
      25A     -0.484513    26A     -0.411804    27A     -0.384841

  @DF-RHF Final Energy:  -324.03231115554365

   => Energetics <=

    Nuclear Repulsion Energy =            313.5577651391539007
    One-Electron Energy =               -1061.6749983618999522
    Two-Electron Energy =                 424.0849220672024558
    Total Energy =                       -324.0323111555436526
  Basis Set: (AUG-CC-PVTZ AUX)
    Blend: AUG-CC-PVTZ-RI
    Molecular point group: c1

    Geometry (in Angstrom), charge = 0, multiplicity = 1:

       Center              X                  Y                   Z               Mass
    ------------   -----------------  -----------------  -----------------  -----------------
         O            2.293847292240    -0.066511012786     0.035899431135    15.994914619570
         N            0.319963492240    -1.142935012786    -0.057644268865    14.003074004430
         C           -1.824453507760     0.009077987214    -0.306342268865    12.000000000000
         C           -1.154665507760     1.226046987214     0.321879731135    12.000000000000
         C           -1.118904507760    -1.256732012786     0.155189731135    12.000000000000
         C            0.296903492240     1.313253987214    -0.144441268865    12.000000000000
         C            1.064826492240     0.009425987214    -0.018560268865    12.000000000000
         H           -2.883055507760    -0.049980012786    -0.030534268865     1.007825032230
         H           -1.771569507760     0.079625987214    -1.399297268865     1.007825032230
         H           -1.190016507760     1.135124987214     1.415165731135     1.007825032230
         H           -1.689456507760     2.146460987214     0.063424731135     1.007825032230
         H           -1.340956507760    -1.432435012786     1.218340731135     1.007825032230
         H           -1.480658507760    -2.127258012786    -0.402479268865     1.007825032230
         H            0.865872492240     2.069559987214     0.403231731135     1.007825032230
         H            0.332837492240     1.598567987214    -1.203825268865     1.007825032230
         H            0.886875492240    -1.975402012786     0.075164731135     1.007825032230

  Basis Set: AUG-CC-PVTZ
    Blend: AUG-CC-PVTZ
  Basis Set: (AUG-CC-PVTZ AUX)
    Blend: AUG-CC-PVTZ-JKFIT
	 Reference Energy          =    -324.0323111555436526 [Eh]
	 Singles Energy            =      -0.0000000000000000 [Eh]
	 Same-Spin Energy          =      -0.3337949282050915 [Eh]
	 Opposite-Spin Energy      =      -1.0911487881728485 [Eh]
	 Correlation Energy        =      -1.4249437163779402 [Eh]
	 Total Energy              =    -325.4572548719215774 [Eh]

	 ================> DF-SCS-MP2 Energies <==================
	-----------------------------------------------------------
	 SCS Same-Spin Scale       =       0.3333333333333333 [-]
	 SCS Opposite-Spin Scale   =       1.2000000000000000 [-]
	 SCS Same-Spin Energy      =      -0.1112649760683638 [Eh]
	 SCS Opposite-Spin Energy  =      -1.3093785458074183 [Eh]
	 SCS Correlation Energy    =      -1.4206435218757822 [Eh]
	 SCS Total Energy          =    -325.4529546774194273 [Eh]
	-----------------------------------------------------------

  Dipole Moment: [D]
     X:    -4.2368      Y:    -0.4585      Z:     0.1565     Total:     4.2644

*** Psi4 exiting successfully. Buy a developer a beer!
