                               Psi4 1.3.2 release

  ==> Input File <==

--------------------------------------------------------------------------
#psi4
#
memory 32 gb

molecule  {
0 1
  O        2.3713340    -0.0431960     0.0348750
  N        0.3955610    -1.1626000    -0.0589710
  C       -1.7488560    -0.0105870    -0.3076690
  C       -1.0790680     1.2063820     0.3205530
  C       -1.0433070    -1.2763970     0.1538630
  C        0.3725010     1.2935890    -0.1457680
  C        1.1404240    -0.0102390    -0.0198870
  H       -2.8074580    -0.0696450    -0.0318610
  H       -1.6959720     0.0599610    -1.4006240
  H       -1.1144190     1.1154600     1.4138390
  H       -1.6138590     2.1267960     0.0620980
  H       -1.2653590    -1.4521000     1.2170140
  H       -1.4050610    -2.1469230    -0.4038060
  H        0.9414700     2.0498950     0.4019050
  H        0.4084350     1.5789030    -1.2051520
  H        0.8508639    -1.8311775     0.0476916
units angstrom
no_reorient  #important for SAPT in psi4, default
symmetry c1  #important for SAPT in psi4, default
}

set PROPERTIES_ORIGIN ["COM"]
properties('MP2/aug-cc-pvtz', properties = ['dipole'])
--------------------------------------------------------------------------

    Molecular point group: c1
  Charge       = 0
  Multiplicity = 1
  Basis Set: AUG-CC-PVTZ
    Blend: AUG-CC-PVTZ
  Basis Set: (AUG-CC-PVTZ AUX)
    Blend: AUG-CC-PVTZ-JKFIT

    Orbital Energies [Eh]
    ---------------------

    Doubly Occupied:

       1A    -20.512476     2A    -15.561042     3A    -11.347393
       4A    -11.279091     5A    -11.240975     6A    -11.240247
       7A    -11.238564     8A     -1.371629     9A     -1.257679
      10A     -1.098099    11A     -1.020016    12A     -0.908119
      13A     -0.853545    14A     -0.786166    15A     -0.700353
      16A     -0.655697    17A     -0.640629    18A     -0.613858
      19A     -0.601793    20A     -0.591462    21A     -0.572589
      22A     -0.507012    23A     -0.500127    24A     -0.488616
      25A     -0.485740    26A     -0.412193    27A     -0.391149

  @DF-RHF Final Energy:  -323.98909513196463

   => Energetics <=

    Nuclear Repulsion Energy =            314.9157822784588348
    One-Electron Energy =               -1064.0572379712616566
    Two-Electron Energy =                 425.1523605608381331
    Total Energy =                       -323.9890951319646319
  Basis Set: (AUG-CC-PVTZ AUX)
    Blend: AUG-CC-PVTZ-RI
    Molecular point group: c1

    Geometry (in Angstrom), charge = 0, multiplicity = 1:

       Center              X                  Y                   Z               Mass
    ------------   -----------------  -----------------  -----------------  -----------------
         O            2.296566876505    -0.032137523552     0.036418911697    15.994914619570
         N            0.320793876505    -1.151541523552    -0.057427088303    14.003074004430
         C           -1.823623123495     0.000471476448    -0.306125088303    12.000000000000
         C           -1.153835123495     1.217440476448     0.322096911697    12.000000000000
         C           -1.118074123495    -1.265338523552     0.155406911697    12.000000000000
         C            0.297733876505     1.304647476448    -0.144224088303    12.000000000000
         C            1.065656876505     0.000819476448    -0.018343088303    12.000000000000
         H           -2.882225123495    -0.058586523552    -0.030317088303     1.007825032230
         H           -1.770739123495     0.071019476448    -1.399080088303     1.007825032230
         H           -1.189186123495     1.126518476448     1.415382911697     1.007825032230
         H           -1.688626123495     2.137854476448     0.063641911697     1.007825032230
         H           -1.340126123495    -1.441041523552     1.218557911697     1.007825032230
         H           -1.479828123495    -2.135864523552    -0.402262088303     1.007825032230
         H            0.866702876505     2.060953476448     0.403448911697     1.007825032230
         H            0.333667876505     1.589961476448    -1.203608088303     1.007825032230
         H            0.776096776505    -1.820119023552     0.049235511697     1.007825032230

  Basis Set: AUG-CC-PVTZ
    Blend: AUG-CC-PVTZ
  Basis Set: (AUG-CC-PVTZ AUX)
    Blend: AUG-CC-PVTZ-JKFIT
	 Reference Energy          =    -323.9890951319646319 [Eh]
	 Singles Energy            =      -0.0000000000000000 [Eh]
	 Same-Spin Energy          =      -0.3324382938809704 [Eh]
	 Opposite-Spin Energy      =      -1.0884408209363414 [Eh]
	 Correlation Energy        =      -1.4208791148173119 [Eh]
	 Total Energy              =    -325.4099742467819283 [Eh]

	 ================> DF-SCS-MP2 Energies <==================
	-----------------------------------------------------------
	 SCS Same-Spin Scale       =       0.3333333333333333 [-]
	 SCS Opposite-Spin Scale   =       1.2000000000000000 [-]
	 SCS Same-Spin Energy      =      -0.1108127646269901 [Eh]
	 SCS Opposite-Spin Energy  =      -1.3061289851236098 [Eh]
	 SCS Correlation Energy    =      -1.4169417497505998 [Eh]
	 SCS Total Energy          =    -325.4060368817152380 [Eh]
	-----------------------------------------------------------

  Dipole Moment: [D]
     X:    -4.2948      Y:    -0.4302      Z:     0.1411     Total:     4.3186

*** Psi4 exiting successfully. Buy a developer a beer!
