                               Psi4 1.3.2 release

  ==> Input File <==

--------------------------------------------------------------------------
#psi4
#
memory 32 gb

molecule  {
0 1
  O        2.3713340    -0.0431960     0.0348750
  N        0.3955610    -1.1626000    -0.0589710
  C       -1.7488560    -0.0105870    -0.3076690
  C       -1.0790680     1.2063820     0.3205530
  C       -1.0433070    -1.2763970     0.1538630
  C        0.3725010     1.2935890    -0.1457680
  C        1.1601358    -0.0233536    -0.0162235
  H       -2.8074580    -0.0696450    -0.0318610
  H       -1.6959720     0.0599610    -1.4006240
  H       -1.1144190     1.1154600     1.4138390
  H       -1.6138590     2.1267960     0.0620980
  H       -1.2653590    -1.4521000     1.2170140
  H       -1.4050610    -2.1469230    -0.4038060
  H        0.9414700     2.0498950     0.4019050
  H        0.4084350     1.5789030    -1.2051520
  H        0.9624730    -1.9950670     0.0738380
units angstrom
no_reorient  #important for SAPT in psi4, default
symmetry c1  #important for SAPT in psi4, default
}

set PROPERTIES_ORIGIN ["COM"]
properties('MP2/aug-cc-pvtz', properties = ['dipole'])
--------------------------------------------------------------------------

    Molecular point group: c1
  Charge       = 0
  Multiplicity = 1
  Basis Set: AUG-CC-PVTZ
    Blend: AUG-CC-PVTZ
  Basis Set: (AUG-CC-PVTZ AUX)
    Blend: AUG-CC-PVTZ-JKFIT

    Orbital Energies [Eh]
    ---------------------

    Doubly Occupied:

       1A    -20.513094     2A    -15.580031     3A    -11.344683
       4A    -11.278194     5A    -11.239332     6A    -11.238374
       7A    -11.237037     8A     -1.377973     9A     -1.232999
      10A     -1.086116    11A     -1.015771    12A     -0.894596
      13A     -0.841769    14A     -0.752504    15A     -0.693258
      16A     -0.650154    17A     -0.641518    18A     -0.611980
      19A     -0.595506    20A     -0.588803    21A     -0.570627
      22A     -0.506983    23A     -0.498067    24A     -0.488194
      25A     -0.483196    26A     -0.409458    27A     -0.388629

  @DF-RHF Final Energy:  -324.03355108238566

   => Energetics <=

    Nuclear Repulsion Energy =            313.5034738445174867
    One-Electron Energy =               -1061.5563564523747573
    Two-Electron Energy =                 424.0193315254716708
    Total Energy =                       -324.0335510823856566
  Basis Set: (AUG-CC-PVTZ AUX)
    Blend: AUG-CC-PVTZ-RI
    Molecular point group: c1

    Geometry (in Angstrom), charge = 0, multiplicity = 1:

       Center              X                  Y                   Z               Mass
    ------------   -----------------  -----------------  -----------------  -----------------
         O            2.293043815713    -0.028881721548     0.035709169876    15.994914619570
         N            0.317270815713    -1.148285721548    -0.058136830124    14.003074004430
         C           -1.827146184287     0.003727278452    -0.306834830124    12.000000000000
         C           -1.157358184287     1.220696278452     0.321387169876    12.000000000000
         C           -1.121597184287    -1.262082721548     0.154697169876    12.000000000000
         C            0.294210815713     1.307903278452    -0.144933830124    12.000000000000
         C            1.081845615713    -0.009039321548    -0.015389330124    12.000000000000
         H           -2.885748184287    -0.055330721548    -0.031026830124     1.007825032230
         H           -1.774262184287     0.074275278452    -1.399789830124     1.007825032230
         H           -1.192709184287     1.129774278452     1.414673169876     1.007825032230
         H           -1.692149184287     2.141110278452     0.062932169876     1.007825032230
         H           -1.343649184287    -1.437785721548     1.217848169876     1.007825032230
         H           -1.483351184287    -2.132608721548    -0.402971830124     1.007825032230
         H            0.863179815713     2.064209278452     0.402739169876     1.007825032230
         H            0.330144815713     1.593217278452    -1.204317830124     1.007825032230
         H            0.884182815713    -1.980752721548     0.074672169876     1.007825032230

  Basis Set: AUG-CC-PVTZ
    Blend: AUG-CC-PVTZ
  Basis Set: (AUG-CC-PVTZ AUX)
    Blend: AUG-CC-PVTZ-JKFIT
	 Reference Energy          =    -324.0335510823856566 [Eh]
	 Singles Energy            =      -0.0000000000000000 [Eh]
	 Same-Spin Energy          =      -0.3332756426528522 [Eh]
	 Opposite-Spin Energy      =      -1.0902254687361639 [Eh]
	 Correlation Energy        =      -1.4235011113890161 [Eh]
	 Total Energy              =    -325.4570521937747003 [Eh]

	 ================> DF-SCS-MP2 Energies <==================
	-----------------------------------------------------------
	 SCS Same-Spin Scale       =       0.3333333333333333 [-]
	 SCS Opposite-Spin Scale   =       1.2000000000000000 [-]
	 SCS Same-Spin Energy      =      -0.1110918808842841 [Eh]
	 SCS Opposite-Spin Energy  =      -1.3082705624833966 [Eh]
	 SCS Correlation Energy    =      -1.4193624433676806 [Eh]
	 SCS Total Energy          =    -325.4529135257533312 [Eh]
	-----------------------------------------------------------

  Dipole Moment: [D]
     X:    -4.1010      Y:    -0.6219      Z:     0.1740     Total:     4.1515

*** Psi4 exiting successfully. Buy a developer a beer!
