                               Psi4 1.3.2 release

  ==> Input File <==

--------------------------------------------------------------------------
#psi4
#
memory 32 gb

molecule  {
0 1
  O        2.3705053    -0.0646399     0.0363723
  N        0.3955610    -1.1626000    -0.0589710
  C       -1.7488560    -0.0105870    -0.3076690
  C       -1.0790680     1.2063820     0.3205530
  C       -1.0433070    -1.2763970     0.1538630
  C        0.3725010     1.2935890    -0.1457680
  C        1.1404240    -0.0102390    -0.0198870
  H       -2.8074580    -0.0696450    -0.0318610
  H       -1.6959720     0.0599610    -1.4006240
  H       -1.1144190     1.1154600     1.4138390
  H       -1.6138590     2.1267960     0.0620980
  H       -1.2653590    -1.4521000     1.2170140
  H       -1.4050610    -2.1469230    -0.4038060
  H        0.9414700     2.0498950     0.4019050
  H        0.4084350     1.5789030    -1.2051520
  H        0.9624730    -1.9950670     0.0738380
units angstrom
no_reorient  #important for SAPT in psi4, default
symmetry c1  #important for SAPT in psi4, default
}

set PROPERTIES_ORIGIN ["COM"]
properties('MP2/aug-cc-pvtz', properties = ['dipole'])
--------------------------------------------------------------------------

    Molecular point group: c1
  Charge       = 0
  Multiplicity = 1
  Basis Set: AUG-CC-PVTZ
    Blend: AUG-CC-PVTZ
  Basis Set: (AUG-CC-PVTZ AUX)
    Blend: AUG-CC-PVTZ-JKFIT

    Orbital Energies [Eh]
    ---------------------

    Doubly Occupied:

       1A    -20.509890     2A    -15.580515     3A    -11.346092
       4A    -11.277720     5A    -11.240618     6A    -11.240012
       7A    -11.239498     8A     -1.365759     9A     -1.230679
      10A     -1.088417    11A     -1.018854    12A     -0.897116
      13A     -0.843666    14A     -0.754661    15A     -0.692709
      16A     -0.650820    17A     -0.638659    18A     -0.612922
      19A     -0.594466    20A     -0.588787    21A     -0.571117
      22A     -0.504701    23A     -0.496817    24A     -0.487995
      25A     -0.484207    26A     -0.411418    27A     -0.385790

  @DF-RHF Final Energy:  -324.03257190442059

   => Energetics <=

    Nuclear Repulsion Energy =            313.5368454849267437
    One-Electron Energy =               -1061.6310230003757624
    Two-Electron Energy =                 424.0616056110284262
    Total Energy =                       -324.0325719044205925
  Basis Set: (AUG-CC-PVTZ AUX)
    Blend: AUG-CC-PVTZ-RI
    Molecular point group: c1

    Geometry (in Angstrom), charge = 0, multiplicity = 1:

       Center              X                  Y                   Z               Mass
    ------------   -----------------  -----------------  -----------------  -----------------
         O            2.294736571098    -0.048451985519     0.037408479917    15.994914619570
         N            0.319792271098    -1.146412085519    -0.057934820083    14.003074004430
         C           -1.824624728902     0.005600914481    -0.306632820083    12.000000000000
         C           -1.154836728902     1.222569914481     0.321589179917    12.000000000000
         C           -1.119075728902    -1.260209085519     0.154899179917    12.000000000000
         C            0.296732271098     1.309776914481    -0.144731820083    12.000000000000
         C            1.064655271098     0.005948914481    -0.018850820083    12.000000000000
         H           -2.883226728902    -0.053457085519    -0.030824820083     1.007825032230
         H           -1.771740728902     0.076148914481    -1.399587820083     1.007825032230
         H           -1.190187728902     1.131647914481     1.414875179917     1.007825032230
         H           -1.689627728902     2.142983914481     0.063134179917     1.007825032230
         H           -1.341127728902    -1.435912085519     1.218050179917     1.007825032230
         H           -1.480829728902    -2.130735085519    -0.402769820083     1.007825032230
         H            0.865701271098     2.066082914481     0.402941179917     1.007825032230
         H            0.332666271098     1.595090914481    -1.204115820083     1.007825032230
         H            0.886704271098    -1.978879085519     0.074874179917     1.007825032230

  Basis Set: AUG-CC-PVTZ
    Blend: AUG-CC-PVTZ
  Basis Set: (AUG-CC-PVTZ AUX)
    Blend: AUG-CC-PVTZ-JKFIT
	 Reference Energy          =    -324.0325719044205925 [Eh]
	 Singles Energy            =      -0.0000000000000000 [Eh]
	 Same-Spin Energy          =      -0.3337824861709783 [Eh]
	 Opposite-Spin Energy      =      -1.0911441854123698 [Eh]
	 Correlation Energy        =      -1.4249266715833482 [Eh]
	 Total Energy              =    -325.4574985760039567 [Eh]

	 ================> DF-SCS-MP2 Energies <==================
	-----------------------------------------------------------
	 SCS Same-Spin Scale       =       0.3333333333333333 [-]
	 SCS Opposite-Spin Scale   =       1.2000000000000000 [-]
	 SCS Same-Spin Energy      =      -0.1112608287236594 [Eh]
	 SCS Opposite-Spin Energy  =      -1.3093730224948437 [Eh]
	 SCS Correlation Energy    =      -1.4206338512185031 [Eh]
	 SCS Total Energy          =    -325.4532057556390896 [Eh]
	-----------------------------------------------------------

  Dipole Moment: [D]
     X:    -4.2360      Y:    -0.5186      Z:     0.1545     Total:     4.2704

*** Psi4 exiting successfully. Buy a developer a beer!
