                               Psi4 1.3.2 release

  ==> Input File <==

--------------------------------------------------------------------------
#psi4
#
memory 32 gb

molecule  {
0 1
  O        2.3607502    -0.1714805     0.0435931
  N        0.3955610    -1.1626000    -0.0589710
  C       -1.7488560    -0.0105870    -0.3076690
  C       -1.0790680     1.2063820     0.3205530
  C       -1.0433070    -1.2763970     0.1538630
  C        0.3725010     1.2935890    -0.1457680
  C        1.1404240    -0.0102390    -0.0198870
  H       -2.8074580    -0.0696450    -0.0318610
  H       -1.6959720     0.0599610    -1.4006240
  H       -1.1144190     1.1154600     1.4138390
  H       -1.6138590     2.1267960     0.0620980
  H       -1.2653590    -1.4521000     1.2170140
  H       -1.4050610    -2.1469230    -0.4038060
  H        0.9414700     2.0498950     0.4019050
  H        0.4084350     1.5789030    -1.2051520
  H        0.9624730    -1.9950670     0.0738380
units angstrom
no_reorient  #important for SAPT in psi4, default
symmetry c1  #important for SAPT in psi4, default
}

set PROPERTIES_ORIGIN ["COM"]
properties('MP2/aug-cc-pvtz', properties = ['dipole'])
--------------------------------------------------------------------------

    Molecular point group: c1
  Charge       = 0
  Multiplicity = 1
  Basis Set: AUG-CC-PVTZ
    Blend: AUG-CC-PVTZ
  Basis Set: (AUG-CC-PVTZ AUX)
    Blend: AUG-CC-PVTZ-JKFIT

    Orbital Energies [Eh]
    ---------------------

    Doubly Occupied:

       1A    -20.508370     2A    -15.574755     3A    -11.346097
       4A    -11.274578     5A    -11.244947     6A    -11.242714
       7A    -11.239975     8A     -1.367629     9A     -1.224648
      10A     -1.089292    11A     -1.019515    12A     -0.897600
      13A     -0.843301    14A     -0.754047    15A     -0.691022
      16A     -0.650440    17A     -0.637611    18A     -0.613459
      19A     -0.593921    20A     -0.589422    21A     -0.572205
      22A     -0.504382    23A     -0.495915    24A     -0.490314
      25A     -0.485438    26A     -0.412691    27A     -0.380805

  @DF-RHF Final Energy:  -324.02953328611528

   => Energetics <=

    Nuclear Repulsion Energy =            313.6977091259701069
    One-Electron Energy =               -1061.9642987183249261
    Two-Electron Energy =                 424.2370563062395945
    Total Energy =                       -324.0295332861152815
  Basis Set: (AUG-CC-PVTZ AUX)
    Blend: AUG-CC-PVTZ-RI
    Molecular point group: c1

    Geometry (in Angstrom), charge = 0, multiplicity = 1:

       Center              X                  Y                   Z               Mass
    ------------   -----------------  -----------------  -----------------  -----------------
         O            2.286556463423    -0.138042826414     0.043463458492    15.994914619570
         N            0.321367263423    -1.129162326414    -0.059100641508    14.003074004430
         C           -1.823049736577     0.022850673586    -0.307798641508    12.000000000000
         C           -1.153261736577     1.239819673586     0.320423358492    12.000000000000
         C           -1.117500736577    -1.242959326414     0.153733358492    12.000000000000
         C            0.298307263423     1.327026673586    -0.145897641508    12.000000000000
         C            1.066230263423     0.023198673586    -0.020016641508    12.000000000000
         H           -2.881651736577    -0.036207326414    -0.031990641508     1.007825032230
         H           -1.770165736577     0.093398673586    -1.400753641508     1.007825032230
         H           -1.188612736577     1.148897673586     1.413709358492     1.007825032230
         H           -1.688052736577     2.160233673586     0.061968358492     1.007825032230
         H           -1.339552736577    -1.418662326414     1.216884358492     1.007825032230
         H           -1.479254736577    -2.113485326414    -0.403935641508     1.007825032230
         H            0.867276263423     2.083332673586     0.401775358492     1.007825032230
         H            0.334241263423     1.612340673586    -1.205281641508     1.007825032230
         H            0.888279263423    -1.961629326414     0.073708358492     1.007825032230

  Basis Set: AUG-CC-PVTZ
    Blend: AUG-CC-PVTZ
  Basis Set: (AUG-CC-PVTZ AUX)
    Blend: AUG-CC-PVTZ-JKFIT
	 Reference Energy          =    -324.0295332861152815 [Eh]
	 Singles Energy            =      -0.0000000000000000 [Eh]
	 Same-Spin Energy          =      -0.3339032909409710 [Eh]
	 Opposite-Spin Energy      =      -1.0912794594776063 [Eh]
	 Correlation Energy        =      -1.4251827504185772 [Eh]
	 Total Energy              =    -325.4547160365338527 [Eh]

	 ================> DF-SCS-MP2 Energies <==================
	-----------------------------------------------------------
	 SCS Same-Spin Scale       =       0.3333333333333333 [-]
	 SCS Opposite-Spin Scale   =       1.2000000000000000 [-]
	 SCS Same-Spin Energy      =      -0.1113010969803237 [Eh]
	 SCS Opposite-Spin Energy  =      -1.3095353513731276 [Eh]
	 SCS Correlation Energy    =      -1.4208364483534512 [Eh]
	 SCS Total Energy          =    -325.4503697344687225 [Eh]
	-----------------------------------------------------------

  Dipole Moment: [D]
     X:    -4.2254      Y:    -0.2173      Z:     0.1356     Total:     4.2331

*** Psi4 exiting successfully. Buy a developer a beer!
