                               Psi4 1.3.2 release

  ==> Input File <==

--------------------------------------------------------------------------
#psi4
#
memory 32 gb

molecule  {
0 1
  O        2.3713340    -0.0431960     0.0348750
  N        0.3955610    -1.1626000    -0.0589710
  C       -1.7488560    -0.0105870    -0.3076690
  C       -1.1861492     1.2952040     0.2423885
  C       -1.0433070    -1.2763970     0.1538630
  C        0.3725010     1.2935890    -0.1457680
  C        1.1404240    -0.0102390    -0.0198870
  H       -2.8074580    -0.0696450    -0.0318610
  H       -1.6959720     0.0599610    -1.4006240
  H       -1.1144190     1.1154600     1.4138390
  H       -1.6138590     2.1267960     0.0620980
  H       -1.2653590    -1.4521000     1.2170140
  H       -1.4050610    -2.1469230    -0.4038060
  H        0.9414700     2.0498950     0.4019050
  H        0.4084350     1.5789030    -1.2051520
  H        0.9624730    -1.9950670     0.0738380
units angstrom
no_reorient  #important for SAPT in psi4, default
symmetry c1  #important for SAPT in psi4, default
}

set PROPERTIES_ORIGIN ["COM"]
properties('MP2/aug-cc-pvtz', properties = ['dipole'])
--------------------------------------------------------------------------

    Molecular point group: c1
  Charge       = 0
  Multiplicity = 1
  Basis Set: AUG-CC-PVTZ
    Blend: AUG-CC-PVTZ
  Basis Set: (AUG-CC-PVTZ AUX)
    Blend: AUG-CC-PVTZ-JKFIT

    Orbital Energies [Eh]
    ---------------------

    Doubly Occupied:

       1A    -20.511659     2A    -15.582037     3A    -11.349103
       4A    -11.281860     5A    -11.242402     6A    -11.241818
       7A    -11.241376     8A     -1.366506     9A     -1.231365
      10A     -1.083084    11A     -1.014306    12A     -0.906660
      13A     -0.849305    14A     -0.750356    15A     -0.692500
      16A     -0.664418    17A     -0.642015    18A     -0.607799
      19A     -0.603867    20A     -0.586233    21A     -0.568262
      22A     -0.518890    23A     -0.499511    24A     -0.476726
      25A     -0.457046    26A     -0.416249    27A     -0.387296

  @DF-RHF Final Energy:  -324.00136344786847

   => Energetics <=

    Nuclear Repulsion Energy =            311.8703246541138583
    One-Electron Energy =               -1058.1980787983502523
    Two-Electron Energy =                 422.3263906963679801
    Total Energy =                       -324.0013634478684708
  Basis Set: (AUG-CC-PVTZ AUX)
    Blend: AUG-CC-PVTZ-RI
    Molecular point group: c1

    Geometry (in Angstrom), charge = 0, multiplicity = 1:

       Center              X                  Y                   Z               Mass
    ------------   -----------------  -----------------  -----------------  -----------------
         O            2.308402050895    -0.041229140383     0.045620865857    15.994914619570
         N            0.332629050895    -1.160633140383    -0.048225134143    14.003074004430
         C           -1.811787949105    -0.008620140383    -0.296923134143    12.000000000000
         C           -1.249081149105     1.297170859617     0.253134365857    12.000000000000
         C           -1.106238949105    -1.274430140383     0.164608865857    12.000000000000
         C            0.309569050895     1.295555859617    -0.135022134143    12.000000000000
         C            1.077492050895    -0.008272140383    -0.009141134143    12.000000000000
         H           -2.870389949105    -0.067678140383    -0.021115134143     1.007825032230
         H           -1.758903949105     0.061927859617    -1.389878134143     1.007825032230
         H           -1.177350949105     1.117426859617     1.424584865857     1.007825032230
         H           -1.676790949105     2.128762859617     0.072843865857     1.007825032230
         H           -1.328290949105    -1.450133140383     1.227759865857     1.007825032230
         H           -1.467992949105    -2.144956140383    -0.393060134143     1.007825032230
         H            0.878538050895     2.051861859617     0.412650865857     1.007825032230
         H            0.345503050895     1.580869859617    -1.194406134143     1.007825032230
         H            0.899541050895    -1.993100140383     0.084583865857     1.007825032230

  Basis Set: AUG-CC-PVTZ
    Blend: AUG-CC-PVTZ
  Basis Set: (AUG-CC-PVTZ AUX)
    Blend: AUG-CC-PVTZ-JKFIT
	 Reference Energy          =    -324.0013634478684708 [Eh]
	 Singles Energy            =      -0.0000000000000000 [Eh]
	 Same-Spin Energy          =      -0.3338577729572119 [Eh]
	 Opposite-Spin Energy      =      -1.0923988552461963 [Eh]
	 Correlation Energy        =      -1.4262566282034081 [Eh]
	 Total Energy              =    -325.4276200760718893 [Eh]

	 ================> DF-SCS-MP2 Energies <==================
	-----------------------------------------------------------
	 SCS Same-Spin Scale       =       0.3333333333333333 [-]
	 SCS Opposite-Spin Scale   =       1.2000000000000000 [-]
	 SCS Same-Spin Energy      =      -0.1112859243190706 [Eh]
	 SCS Opposite-Spin Energy  =      -1.3108786262954355 [Eh]
	 SCS Correlation Energy    =      -1.4221645506145062 [Eh]
	 SCS Total Energy          =    -325.4235279984829958 [Eh]
	-----------------------------------------------------------

  Dipole Moment: [D]
     X:    -4.2346      Y:    -0.5979      Z:     0.0974     Total:     4.2777

*** Psi4 exiting successfully. Buy a developer a beer!
