                               Psi4 1.4a3.dev225

  ==> Input File <==

--------------------------------------------------------------------------
#psi4
#
memory 32 gb

molecule  {
0 1
  O        2.3713340    -0.0431960     0.0348750
  N        0.3955610    -1.1626000    -0.0589710
  C       -1.7488560    -0.0105870    -0.3076690
  C       -1.0790680     1.2063820     0.3205530
  C       -1.0433070    -1.2763970     0.1538630
  C        0.3725010     1.2935890    -0.1457680
  C        1.1303091     0.0069348    -0.0215451
  H       -2.8074580    -0.0696450    -0.0318610
  H       -1.6959720     0.0599610    -1.4006240
  H       -1.1144190     1.1154600     1.4138390
  H       -1.6138590     2.1267960     0.0620980
  H       -1.2653590    -1.4521000     1.2170140
  H       -1.4050610    -2.1469230    -0.4038060
  H        0.9414700     2.0498950     0.4019050
  H        0.4084350     1.5789030    -1.2051520
  H        0.9624730    -1.9950670     0.0738380
units angstrom
no_reorient  #important for SAPT in psi4, default
symmetry c1  #important for SAPT in psi4, default
}

set PROPERTIES_ORIGIN ["COM"]
properties('MP2/aug-cc-pvtz', properties = ['dipole'])
--------------------------------------------------------------------------

    Molecular point group: c1
  Charge       = 0
  Multiplicity = 1
  Basis Set: AUG-CC-PVTZ
    Blend: AUG-CC-PVTZ
  Basis Set: (AUG-CC-PVTZ AUX)
    Blend: AUG-CC-PVTZ-JKFIT

    Orbital Energies [Eh]
    ---------------------

    Doubly Occupied:

       1A    -20.509619     2A    -15.581295     3A    -11.347726
       4A    -11.277405     5A    -11.241151     6A    -11.240360
       7A    -11.239580     8A     -1.359342     9A     -1.228612
      10A     -1.089523    11A     -1.020769    12A     -0.898505
      13A     -0.844138    14A     -0.755333    15A     -0.692193
      16A     -0.651255    17A     -0.637726    18A     -0.613608
      19A     -0.594017    20A     -0.588479    21A     -0.571700
      22A     -0.503687    23A     -0.496850    24A     -0.486421
      25A     -0.484145    26A     -0.412599    27A     -0.384717

  @DF-RHF Final Energy:  -324.03088932227303

   => Energetics <=

    Nuclear Repulsion Energy =            313.5027684483508779
    One-Electron Energy =               -1061.5657989557009842
    Two-Electron Energy =                 424.0321411850770232
    Total Energy =                       -324.0308893222730262
  Basis Set: (AUG-CC-PVTZ AUX)
    Blend: AUG-CC-PVTZ-RI
    Molecular point group: c1

    Geometry (in Angstrom), charge = 0, multiplicity = 1:

       Center              X                  Y                   Z               Mass
    ------------   -----------------  -----------------  -----------------  -----------------
         O            2.296656676622    -0.032550507446     0.036353766852    15.994914619570
         N            0.320883676622    -1.151954507446    -0.057492233148    14.003074004430
         C           -1.823533323378     0.000058492554    -0.306190233148    12.000000000000
         C           -1.153745323378     1.217027492554     0.322031766852    12.000000000000
         C           -1.117984323378    -1.265751507446     0.155341766852    12.000000000000
         C            0.297823676622     1.304234492554    -0.144289233148    12.000000000000
         C            1.055631776622     0.017580292554    -0.020066333148    12.000000000000
         H           -2.882135323378    -0.058999507446    -0.030382233148     1.007825032230
         H           -1.770649323378     0.070606492554    -1.399145233148     1.007825032230
         H           -1.189096323378     1.126105492554     1.415317766852     1.007825032230
         H           -1.688536323378     2.137441492554     0.063576766852     1.007825032230
         H           -1.340036323378    -1.441454507446     1.218492766852     1.007825032230
         H           -1.479738323378    -2.136277507446    -0.402327233148     1.007825032230
         H            0.866792676622     2.060540492554     0.403383766852     1.007825032230
         H            0.333757676622     1.589548492554    -1.203673233148     1.007825032230
         H            0.887795676622    -1.984421507446     0.075316766852     1.007825032230

  Basis Set: AUG-CC-PVTZ
    Blend: AUG-CC-PVTZ
  Basis Set: (AUG-CC-PVTZ AUX)
    Blend: AUG-CC-PVTZ-JKFIT
	 Reference Energy          =    -324.0308893222730262 [Eh]
	 Singles Energy            =      -0.0000000000000000 [Eh]
	 Same-Spin Energy          =      -0.3341476279933838 [Eh]
	 Opposite-Spin Energy      =      -1.0918465958183174 [Eh]
	 Correlation Energy        =      -1.4259942238117014 [Eh]
	 Total Energy              =    -325.4568835460847254 [Eh]

	 ================> DF-SCS-MP2 Energies <==================
	-----------------------------------------------------------
	 SCS Same-Spin Scale       =       0.3333333333333333 [-]
	 SCS Opposite-Spin Scale   =       1.2000000000000000 [-]
	 SCS Same-Spin Energy      =      -0.1113825426644613 [Eh]
	 SCS Opposite-Spin Energy  =      -1.3102159149819810 [Eh]
	 SCS Correlation Energy    =      -1.4215984576464422 [Eh]
	 SCS Total Energy          =    -325.4524877799194655 [Eh]
	-----------------------------------------------------------

  Dipole Moment: [D]
     X:    -4.2729      Y:    -0.4981      Z:     0.1492     Total:     4.3044

*** Psi4 exiting successfully. Buy a developer a beer!
