                               Psi4 1.3.2 release

  ==> Input File <==

--------------------------------------------------------------------------
#psi4
#
memory 32 gb

molecule  {
0 1
  O        2.3713340    -0.0431960     0.0348750
  N        0.3955610    -1.1626000    -0.0589710
  C       -1.7488560    -0.0105870    -0.3076690
  C       -1.0790680     1.2063820     0.3205530
  C       -1.0433070    -1.2763970     0.1538630
  C        0.3725010     1.2935890    -0.1457680
  C        1.2415734    -0.1819768    -0.0033062
  H       -2.8074580    -0.0696450    -0.0318610
  H       -1.6959720     0.0599610    -1.4006240
  H       -1.1144190     1.1154600     1.4138390
  H       -1.6138590     2.1267960     0.0620980
  H       -1.2653590    -1.4521000     1.2170140
  H       -1.4050610    -2.1469230    -0.4038060
  H        0.9414700     2.0498950     0.4019050
  H        0.4084350     1.5789030    -1.2051520
  H        0.9624730    -1.9950670     0.0738380
units angstrom
no_reorient  #important for SAPT in psi4, default
symmetry c1  #important for SAPT in psi4, default
}

set PROPERTIES_ORIGIN ["COM"]
properties('MP2/aug-cc-pvtz', properties = ['dipole'])
--------------------------------------------------------------------------

    Molecular point group: c1
  Charge       = 0
  Multiplicity = 1
  Basis Set: AUG-CC-PVTZ
    Blend: AUG-CC-PVTZ
  Basis Set: (AUG-CC-PVTZ AUX)
    Blend: AUG-CC-PVTZ-JKFIT

    Orbital Energies [Eh]
    ---------------------

    Doubly Occupied:

       1A    -20.521264     2A    -15.589005     3A    -11.340173
       4A    -11.287878     5A    -11.236691     6A    -11.227041
       7A    -11.218218     8A     -1.430122     9A     -1.267460
      10A     -1.082805    11A     -1.003500    12A     -0.886939
      13A     -0.831957    14A     -0.748886    15A     -0.706848
      16A     -0.662429    17A     -0.651817    18A     -0.611215
      19A     -0.599075    20A     -0.596610    21A     -0.561259
      22A     -0.518660    23A     -0.503233    24A     -0.480534
      25A     -0.476122    26A     -0.409542    27A     -0.367499

  @DF-RHF Final Energy:  -323.99549367562315

   => Energetics <=

    Nuclear Repulsion Energy =            313.7516893430556593
    One-Electron Energy =               -1061.8607993347413867
    Two-Electron Energy =                 424.1136163160625756
    Total Energy =                       -323.9954936756231518
  Basis Set: (AUG-CC-PVTZ AUX)
    Blend: AUG-CC-PVTZ-RI
    Molecular point group: c1

    Geometry (in Angstrom), charge = 0, multiplicity = 1:

       Center              X                  Y                   Z               Mass
    ------------   -----------------  -----------------  -----------------  -----------------
         O            2.283179408265    -0.009667944676     0.034144517795    15.994914619570
         N            0.307406408265    -1.129071944676    -0.059701482205    14.003074004430
         C           -1.837010591735     0.022941055324    -0.308399482205    12.000000000000
         C           -1.167222591735     1.239910055324     0.319822517795    12.000000000000
         C           -1.131461591735    -1.242868944676     0.153132517795    12.000000000000
         C            0.284346408265     1.327117055324    -0.146498482205    12.000000000000
         C            1.153418808265    -0.148448744676    -0.004036682205    12.000000000000
         H           -2.895612591735    -0.036116944676    -0.032591482205     1.007825032230
         H           -1.784126591735     0.093489055324    -1.401354482205     1.007825032230
         H           -1.202573591735     1.148988055324     1.413108517795     1.007825032230
         H           -1.702013591735     2.160324055324     0.061367517795     1.007825032230
         H           -1.353513591735    -1.418571944676     1.216283517795     1.007825032230
         H           -1.493215591735    -2.113394944676    -0.404536482205     1.007825032230
         H            0.853315408265     2.083423055324     0.401174517795     1.007825032230
         H            0.320280408265     1.612431055324    -1.205882482205     1.007825032230
         H            0.874318408265    -1.961538944676     0.073107517795     1.007825032230

  Basis Set: AUG-CC-PVTZ
    Blend: AUG-CC-PVTZ
  Basis Set: (AUG-CC-PVTZ AUX)
    Blend: AUG-CC-PVTZ-JKFIT
	 Reference Energy          =    -323.9954936756231518 [Eh]
	 Singles Energy            =      -0.0000000000000000 [Eh]
	 Same-Spin Energy          =      -0.3326343195709759 [Eh]
	 Opposite-Spin Energy      =      -1.0888599112056314 [Eh]
	 Correlation Energy        =      -1.4214942307766074 [Eh]
	 Total Energy              =    -325.4169879063997541 [Eh]

	 ================> DF-SCS-MP2 Energies <==================
	-----------------------------------------------------------
	 SCS Same-Spin Scale       =       0.3333333333333333 [-]
	 SCS Opposite-Spin Scale   =       1.2000000000000000 [-]
	 SCS Same-Spin Energy      =      -0.1108781065236586 [Eh]
	 SCS Opposite-Spin Energy  =      -1.3066318934467576 [Eh]
	 SCS Correlation Energy    =      -1.4175099999704162 [Eh]
	 SCS Total Energy          =    -325.4130036755935862 [Eh]
	-----------------------------------------------------------

  Dipole Moment: [D]
     X:    -3.6921      Y:    -1.5013      Z:     0.2528     Total:     3.9937

*** Psi4 exiting successfully. Buy a developer a beer!
