                               Psi4 1.3.2 release

  ==> Input File <==

--------------------------------------------------------------------------
#psi4
#
memory 32 gb

molecule  {
0 1
  O        2.3713340    -0.0431960     0.0348750
  N        0.3175750    -1.1078652    -0.0690869
  C       -1.7488560    -0.0105870    -0.3076690
  C       -1.0790680     1.2063820     0.3205530
  C       -1.0433070    -1.2763970     0.1538630
  C        0.3725010     1.2935890    -0.1457680
  C        1.1404240    -0.0102390    -0.0198870
  H       -2.8074580    -0.0696450    -0.0318610
  H       -1.6959720     0.0599610    -1.4006240
  H       -1.1144190     1.1154600     1.4138390
  H       -1.6138590     2.1267960     0.0620980
  H       -1.2653590    -1.4521000     1.2170140
  H       -1.4050610    -2.1469230    -0.4038060
  H        0.9414700     2.0498950     0.4019050
  H        0.4084350     1.5789030    -1.2051520
  H        0.9624730    -1.9950670     0.0738380
units angstrom
no_reorient  #important for SAPT in psi4, default
symmetry c1  #important for SAPT in psi4, default
}

set PROPERTIES_ORIGIN ["COM"]
properties('MP2/aug-cc-pvtz', properties = ['dipole'])
--------------------------------------------------------------------------

    Molecular point group: c1
  Charge       = 0
  Multiplicity = 1
  Basis Set: AUG-CC-PVTZ
    Blend: AUG-CC-PVTZ
  Basis Set: (AUG-CC-PVTZ AUX)
    Blend: AUG-CC-PVTZ-JKFIT

    Orbital Energies [Eh]
    ---------------------

    Doubly Occupied:

       1A    -20.516736     2A    -15.589444     3A    -11.350482
       4A    -11.274387     5A    -11.238651     6A    -11.237290
       7A    -11.235215     8A     -1.368310     9A     -1.248198
      10A     -1.082937    11A     -1.023589    12A     -0.895370
      13A     -0.846745    14A     -0.741102    15A     -0.703749
      16A     -0.649857    17A     -0.644339    18A     -0.614208
      19A     -0.592701    20A     -0.582450    21A     -0.575178
      22A     -0.505092    23A     -0.494927    24A     -0.486282
      25A     -0.479065    26A     -0.411982    27A     -0.387661

  @DF-RHF Final Energy:  -324.01667253976814

   => Energetics <=

    Nuclear Repulsion Energy =            314.8004248603652968
    One-Electron Energy =               -1064.0822993727704215
    Two-Electron Energy =                 425.2652019726369872
    Total Energy =                       -324.0166725397681375
  Basis Set: (AUG-CC-PVTZ AUX)
    Blend: AUG-CC-PVTZ-RI
    Molecular point group: c1

    Geometry (in Angstrom), charge = 0, multiplicity = 1:

       Center              X                  Y                   Z               Mass
    ------------   -----------------  -----------------  -----------------  -----------------
         O            2.306454602025    -0.038206900164     0.037582781141    15.994914619570
         N            0.252695602025    -1.102876100164    -0.066379118859    14.003074004430
         C           -1.813735397975    -0.005597900164    -0.304961218859    12.000000000000
         C           -1.143947397975     1.211371099836     0.323260781141    12.000000000000
         C           -1.108186397975    -1.271407900164     0.156570781141    12.000000000000
         C            0.307621602025     1.298578099836    -0.143060218859    12.000000000000
         C            1.075544602025    -0.005249900164    -0.017179218859    12.000000000000
         H           -2.872337397975    -0.064655900164    -0.029153218859     1.007825032230
         H           -1.760851397975     0.064950099836    -1.397916218859     1.007825032230
         H           -1.179298397975     1.120449099836     1.416546781141     1.007825032230
         H           -1.678738397975     2.131785099836     0.064805781141     1.007825032230
         H           -1.330238397975    -1.447110900164     1.219721781141     1.007825032230
         H           -1.469940397975    -2.141933900164    -0.401098218859     1.007825032230
         H            0.876590602025     2.054884099836     0.404612781141     1.007825032230
         H            0.343555602025     1.583892099836    -1.202444218859     1.007825032230
         H            0.897593602025    -1.990077900164     0.076545781141     1.007825032230

  Basis Set: AUG-CC-PVTZ
    Blend: AUG-CC-PVTZ
  Basis Set: (AUG-CC-PVTZ AUX)
    Blend: AUG-CC-PVTZ-JKFIT
	 Reference Energy          =    -324.0166725397681375 [Eh]
	 Singles Energy            =      -0.0000000000000000 [Eh]
	 Same-Spin Energy          =      -0.3355134395610293 [Eh]
	 Opposite-Spin Energy      =      -1.0938875370823220 [Eh]
	 Correlation Energy        =      -1.4294009766433513 [Eh]
	 Total Energy              =    -325.4460735164115022 [Eh]

	 ================> DF-SCS-MP2 Energies <==================
	-----------------------------------------------------------
	 SCS Same-Spin Scale       =       0.3333333333333333 [-]
	 SCS Opposite-Spin Scale   =       1.2000000000000000 [-]
	 SCS Same-Spin Energy      =      -0.1118378131870098 [Eh]
	 SCS Opposite-Spin Energy  =      -1.3126650444987864 [Eh]
	 SCS Correlation Energy    =      -1.4245028576857961 [Eh]
	 SCS Total Energy          =    -325.4411753974539465 [Eh]
	-----------------------------------------------------------

  Dipole Moment: [D]
     X:    -4.0672      Y:    -0.6529      Z:     0.1603     Total:     4.1224

*** Psi4 exiting successfully. Buy a developer a beer!
