                               Psi4 1.3.2 release

  ==> Input File <==

--------------------------------------------------------------------------
#psi4
#
memory 32 gb

molecule  {
0 1
  O        2.3713340    -0.0431960     0.0348750
  N        0.3955610    -1.1626000    -0.0589710
  C       -1.7488560    -0.0105870    -0.3076690
  C       -1.0790680     1.2063820     0.3205530
  C       -1.0433070    -1.2763970     0.1538630
  C        0.3725010     1.2935890    -0.1457680
  C        1.0861611    -0.0941880    -0.0227343
  H       -2.8074580    -0.0696450    -0.0318610
  H       -1.6959720     0.0599610    -1.4006240
  H       -1.1144190     1.1154600     1.4138390
  H       -1.6138590     2.1267960     0.0620980
  H       -1.2653590    -1.4521000     1.2170140
  H       -1.4050610    -2.1469230    -0.4038060
  H        0.9414700     2.0498950     0.4019050
  H        0.4084350     1.5789030    -1.2051520
  H        0.9624730    -1.9950670     0.0738380
units angstrom
no_reorient  #important for SAPT in psi4, default
symmetry c1  #important for SAPT in psi4, default
}

set PROPERTIES_ORIGIN ["COM"]
properties('MP2/aug-cc-pvtz', properties = ['dipole'])
--------------------------------------------------------------------------

    Molecular point group: c1
  Charge       = 0
  Multiplicity = 1
  Basis Set: AUG-CC-PVTZ
    Blend: AUG-CC-PVTZ
  Basis Set: (AUG-CC-PVTZ AUX)
    Blend: AUG-CC-PVTZ-JKFIT

    Orbital Energies [Eh]
    ---------------------

    Doubly Occupied:

       1A    -20.491131     2A    -15.599043     3A    -11.339948
       4A    -11.289415     5A    -11.245053     6A    -11.238405
       7A    -11.237780     8A     -1.346852     9A     -1.247398
      10A     -1.094474    11A     -1.021068    12A     -0.902363
      13A     -0.853237    14A     -0.768843    15A     -0.704720
      16A     -0.657755    17A     -0.633494    18A     -0.611772
      19A     -0.602003    20A     -0.588214    21A     -0.554864
      22A     -0.503402    23A     -0.492410    24A     -0.487647
      25A     -0.486305    26A     -0.394023    27A     -0.386931

  @DF-RHF Final Energy:  -324.01718504633055

   => Energetics <=

    Nuclear Repulsion Energy =            314.0161360720275070
    One-Electron Energy =               -1062.5095418164546572
    Two-Electron Energy =                 424.4762206980965971
    Total Energy =                       -324.0171850463305532
  Basis Set: (AUG-CC-PVTZ AUX)
    Blend: AUG-CC-PVTZ-RI
    Molecular point group: c1

    Geometry (in Angstrom), charge = 0, multiplicity = 1:

       Center              X                  Y                   Z               Mass
    ------------   -----------------  -----------------  -----------------  -----------------
         O            2.302004253908    -0.020301662915     0.036497812764    15.994914619570
         N            0.326231253908    -1.139705662915    -0.057348187236    14.003074004430
         C           -1.818185746092     0.012307337085    -0.306046187236    12.000000000000
         C           -1.148397746092     1.229276337085     0.322175812764    12.000000000000
         C           -1.112636746092    -1.253502662915     0.155485812764    12.000000000000
         C            0.303171253908     1.316483337085    -0.144145187236    12.000000000000
         C            1.016831353908    -0.071293662915    -0.021111487236    12.000000000000
         H           -2.876787746092    -0.046750662915    -0.030238187236     1.007825032230
         H           -1.765301746092     0.082855337085    -1.399001187236     1.007825032230
         H           -1.183748746092     1.138354337085     1.415461812764     1.007825032230
         H           -1.683188746092     2.149690337085     0.063720812764     1.007825032230
         H           -1.334688746092    -1.429205662915     1.218636812764     1.007825032230
         H           -1.474390746092    -2.124028662915    -0.402183187236     1.007825032230
         H            0.872140253908     2.072789337085     0.403527812764     1.007825032230
         H            0.339105253908     1.601797337085    -1.203529187236     1.007825032230
         H            0.893143253908    -1.972172662915     0.075460812764     1.007825032230

  Basis Set: AUG-CC-PVTZ
    Blend: AUG-CC-PVTZ
  Basis Set: (AUG-CC-PVTZ AUX)
    Blend: AUG-CC-PVTZ-JKFIT
	 Reference Energy          =    -324.0171850463305532 [Eh]
	 Singles Energy            =      -0.0000000000000000 [Eh]
	 Same-Spin Energy          =      -0.3344968377755160 [Eh]
	 Opposite-Spin Energy      =      -1.0924221108235055 [Eh]
	 Correlation Energy        =      -1.4269189485990215 [Eh]
	 Total Energy              =    -325.4441039949295487 [Eh]

	 ================> DF-SCS-MP2 Energies <==================
	-----------------------------------------------------------
	 SCS Same-Spin Scale       =       0.3333333333333333 [-]
	 SCS Opposite-Spin Scale   =       1.2000000000000000 [-]
	 SCS Same-Spin Energy      =      -0.1114989459251720 [Eh]
	 SCS Opposite-Spin Energy  =      -1.3109065329882066 [Eh]
	 SCS Correlation Energy    =      -1.4224054789133787 [Eh]
	 SCS Total Energy          =    -325.4395905252439434 [Eh]
	-----------------------------------------------------------

  Dipole Moment: [D]
     X:    -4.9037      Y:    -1.1141      Z:     0.1320     Total:     5.0304

*** Psi4 exiting successfully. Buy a developer a beer!
