                               Psi4 1.3.2 release

  ==> Input File <==

--------------------------------------------------------------------------
#psi4
#
memory 32 gb

molecule  {
0 1
  O        3.0870850    -0.7380670     0.0000600
  N       -1.0742560    -1.1771330    -0.0000800
  C        0.9761220     0.0434820    -0.0000150
  C       -0.4881060     0.0430670    -0.0000040
  C        1.8814630     1.1555170    -0.0001020
  C       -1.2332690     1.2310260     0.0000830
  C        1.7670490    -1.0798270     0.0000780
  C       -2.6240280     1.1598410     0.0000810
  C        3.1001137     0.5410675    -0.0000370
  C       -3.2332050    -0.0939970     0.0000020
  C       -2.4150150    -1.2251180    -0.0000720
  H        1.6419750     2.2104320    -0.0002120
  H       -0.7317970     2.1947500     0.0001580
  H        1.5416230    -2.1350490     0.0001580
  H        4.1309200     1.0569280    -0.0000720
  H       -3.2210480     2.0687070     0.0001450
  H       -4.3145730    -0.1971740    -0.0000020
  H       -2.8500980    -2.2235110    -0.0001310
units angstrom
no_reorient  #important for SAPT in psi4, default
symmetry c1  #important for SAPT in psi4, default
}

set PROPERTIES_ORIGIN ["COM"]
properties('MP2/aug-cc-pvtz', properties = ['dipole'])
--------------------------------------------------------------------------

    Molecular point group: c1
  Charge       = 0
  Multiplicity = 1
  Basis Set: AUG-CC-PVTZ
    Blend: AUG-CC-PVTZ
  Basis Set: (AUG-CC-PVTZ AUX)
    Blend: AUG-CC-PVTZ-JKFIT

    Orbital Energies [Eh]
    ---------------------

    Doubly Occupied:

       1A    -20.639789     2A    -15.566416     3A    -11.296773
       4A    -11.291882     5A    -11.287532     6A    -11.279647
       7A    -11.263695     8A    -11.244366     9A    -11.242162
      10A    -11.240911    11A    -11.228997    12A     -1.500675
      13A     -1.259056    14A     -1.109768    15A     -1.089179
      16A     -1.033787    17A     -1.001930    18A     -0.880856
      19A     -0.863998    20A     -0.803211    21A     -0.771287
      22A     -0.745652    23A     -0.690340    24A     -0.662246
      25A     -0.659491    26A     -0.649462    27A     -0.610055
      28A     -0.591223    29A     -0.576455    30A     -0.566543
      31A     -0.549838    32A     -0.531956    33A     -0.513888
      34A     -0.426484    35A     -0.422330    36A     -0.383760
      37A     -0.344079    38A     -0.299908

  @DF-RHF Final Energy:  -474.32218599513425

   => Energetics <=

    Nuclear Repulsion Energy =            541.8498337647673679
    One-Electron Energy =               -1718.1047871315226985
    Two-Electron Energy =                 701.9327673716210256
    Total Energy =                       -474.3221859951341912
  Basis Set: (AUG-CC-PVTZ AUX)
    Blend: AUG-CC-PVTZ-RI
    Molecular point group: c1

    Geometry (in Angstrom), charge = 0, multiplicity = 1:

       Center              X                  Y                   Z               Mass
    ------------   -----------------  -----------------  -----------------  -----------------
         O            3.064503461656    -0.710561601727     0.000059642935    15.994914619570
         N           -1.096837538344    -1.149627601727    -0.000080357065    14.003074004430
         C            0.953540461656     0.070987398273    -0.000015357065    12.000000000000
         C           -0.510687538344     0.070572398273    -0.000004357065    12.000000000000
         C            1.858881461656     1.183022398273    -0.000102357065    12.000000000000
         C           -1.255850538344     1.258531398273     0.000082642935    12.000000000000
         C            1.744467461656    -1.052321601727     0.000077642935    12.000000000000
         C           -2.646609538344     1.187346398273     0.000080642935    12.000000000000
         C            3.077532161656     0.568572898273    -0.000037357065    12.000000000000
         C           -3.255786538344    -0.066491601727     0.000001642935    12.000000000000
         C           -2.437596538344    -1.197612601727    -0.000072357065    12.000000000000
         H            1.619393461656     2.237937398273    -0.000212357065     1.007825032230
         H           -0.754378538344     2.222255398273     0.000157642935     1.007825032230
         H            1.519041461656    -2.107543601727     0.000157642935     1.007825032230
         H            4.108338461656     1.084433398273    -0.000072357065     1.007825032230
         H           -3.243629538344     2.096212398273     0.000144642935     1.007825032230
         H           -4.337154538344    -0.169668601727    -0.000002357065     1.007825032230
         H           -2.872679538344    -2.196005601727    -0.000131357065     1.007825032230

  Basis Set: AUG-CC-PVTZ
    Blend: AUG-CC-PVTZ
  Basis Set: (AUG-CC-PVTZ AUX)
    Blend: AUG-CC-PVTZ-JKFIT
	 Reference Energy          =    -474.3221859951342481 [Eh]
	 Singles Energy            =      -0.0000000000000000 [Eh]
	 Same-Spin Energy          =      -0.5142511211106315 [Eh]
	 Opposite-Spin Energy      =      -1.5554789076159157 [Eh]
	 Correlation Energy        =      -2.0697300287265472 [Eh]
	 Total Energy              =    -476.3919160238608015 [Eh]

	 ================> DF-SCS-MP2 Energies <==================
	-----------------------------------------------------------
	 SCS Same-Spin Scale       =       0.3333333333333333 [-]
	 SCS Opposite-Spin Scale   =       1.2000000000000000 [-]
	 SCS Same-Spin Energy      =      -0.1714170403702105 [Eh]
	 SCS Opposite-Spin Energy  =      -1.8665746891390986 [Eh]
	 SCS Correlation Energy    =      -2.0379917295093093 [Eh]
	 SCS Total Energy          =    -476.3601777246435631 [Eh]
	-----------------------------------------------------------

  Dipole Moment: [D]
     X:    -1.3692      Y:     1.8661      Z:     0.0001     Total:     2.3145

*** Psi4 exiting successfully. Buy a developer a beer!
