                               Psi4 1.4a3.dev225

  ==> Input File <==

--------------------------------------------------------------------------
#psi4
#
memory 32 gb

molecule  {
0 1
  O        3.0870850    -0.7380670     0.0000600
  N       -1.0742560    -1.1771330    -0.0000800
  C        0.9761220     0.0434820    -0.0000150
  C       -0.4881060     0.0430670    -0.0000040
  C        1.8814630     1.1555170    -0.0001020
  C       -1.2332690     1.2310260     0.0000830
  C        1.7670490    -1.0798270     0.0000780
  C       -2.6240280     1.1598410     0.0000810
  C        3.1400070     0.6275730    -0.0000460
  C       -3.2332050    -0.0939970     0.0000020
  C       -2.4150150    -1.2251180    -0.0000720
  H        1.6419750     2.2104320    -0.0002120
  H       -0.7317970     2.1947500     0.0001580
  H        1.5458013    -2.1154903     0.0001565
  H        4.1309200     1.0569280    -0.0000720
  H       -3.2210480     2.0687070     0.0001450
  H       -4.3145730    -0.1971740    -0.0000020
  H       -2.8500980    -2.2235110    -0.0001310
units angstrom
no_reorient  #important for SAPT in psi4, default
symmetry c1  #important for SAPT in psi4, default
}

set PROPERTIES_ORIGIN ["COM"]
properties('MP2/aug-cc-pvtz', properties = ['dipole'])
--------------------------------------------------------------------------

    Molecular point group: c1
  Charge       = 0
  Multiplicity = 1
  Basis Set: AUG-CC-PVTZ
    Blend: AUG-CC-PVTZ
  Basis Set: (AUG-CC-PVTZ AUX)
    Blend: AUG-CC-PVTZ-JKFIT

    Orbital Energies [Eh]
    ---------------------

    Doubly Occupied:

       1A    -20.628544     2A    -15.565758     3A    -11.293350
       4A    -11.292304     5A    -11.291717     6A    -11.279534
       7A    -11.263403     8A    -11.243436     9A    -11.241161
      10A    -11.239104    11A    -11.237207    12A     -1.458821
      13A     -1.258665    14A     -1.105541    15A     -1.088659
      16A     -1.034094    17A     -0.999031    18A     -0.875796
      19A     -0.863450    20A     -0.796029    21A     -0.779688
      22A     -0.746098    23A     -0.687412    24A     -0.662600
      25A     -0.646470    26A     -0.635621    27A     -0.608912
      28A     -0.585951    29A     -0.575744    30A     -0.571887
      31A     -0.548963    32A     -0.538593    33A     -0.520577
      34A     -0.424626    35A     -0.422096    36A     -0.383875
      37A     -0.348745    38A     -0.299063

  @DF-RHF Final Energy:  -474.33126276321605

   => Energetics <=

    Nuclear Repulsion Energy =            539.9844013498591266
    One-Electron Energy =               -1714.5462814641552995
    Two-Electron Energy =                 700.2306173510801273
    Total Energy =                       -474.3312627632160456
  Basis Set: (AUG-CC-PVTZ AUX)
    Blend: AUG-CC-PVTZ-RI
    Molecular point group: c1

    Geometry (in Angstrom), charge = 0, multiplicity = 1:

       Center              X                  Y                   Z               Mass
    ------------   -----------------  -----------------  -----------------  -----------------
         O            3.061174117337    -0.717853967067     0.000060397914    15.994914619570
         N           -1.100166882663    -1.156919967067    -0.000079602086    14.003074004430
         C            0.950211117337     0.063695032933    -0.000014602086    12.000000000000
         C           -0.514016882663     0.063280032933    -0.000003602086    12.000000000000
         C            1.855552117337     1.175730032933    -0.000101602086    12.000000000000
         C           -1.259179882663     1.251239032933     0.000083397914    12.000000000000
         C            1.741138117337    -1.059613967067     0.000078397914    12.000000000000
         C           -2.649938882663     1.180054032933     0.000081397914    12.000000000000
         C            3.114096117337     0.647786032933    -0.000045602086    12.000000000000
         C           -3.259115882663    -0.073783967067     0.000002397914    12.000000000000
         C           -2.440925882663    -1.204904967067    -0.000071602086    12.000000000000
         H            1.616064117337     2.230645032933    -0.000211602086     1.007825032230
         H           -0.757707882663     2.214963032933     0.000158397914     1.007825032230
         H            1.519890417337    -2.095277267067     0.000156897914     1.007825032230
         H            4.105009117337     1.077141032933    -0.000071602086     1.007825032230
         H           -3.246958882663     2.088920032933     0.000145397914     1.007825032230
         H           -4.340483882663    -0.176960967067    -0.000001602086     1.007825032230
         H           -2.876008882663    -2.203297967067    -0.000130602086     1.007825032230

  Basis Set: AUG-CC-PVTZ
    Blend: AUG-CC-PVTZ
  Basis Set: (AUG-CC-PVTZ AUX)
    Blend: AUG-CC-PVTZ-JKFIT
	 Reference Energy          =    -474.3312627632160456 [Eh]
	 Singles Energy            =      -0.0000000000000000 [Eh]
	 Same-Spin Energy          =      -0.5141450552043247 [Eh]
	 Opposite-Spin Energy      =      -1.5567825321693278 [Eh]
	 Correlation Energy        =      -2.0709275873736526 [Eh]
	 Total Energy              =    -476.4021903505897058 [Eh]

	 ================> DF-SCS-MP2 Energies <==================
	-----------------------------------------------------------
	 SCS Same-Spin Scale       =       0.3333333333333333 [-]
	 SCS Opposite-Spin Scale   =       1.2000000000000000 [-]
	 SCS Same-Spin Energy      =      -0.1713816850681082 [Eh]
	 SCS Opposite-Spin Energy  =      -1.8681390386031933 [Eh]
	 SCS Correlation Energy    =      -2.0395207236713015 [Eh]
	 SCS Total Energy          =    -476.3707834868873192 [Eh]
	-----------------------------------------------------------

  Dipole Moment: [D]
     X:    -1.3447      Y:     2.0286      Z:     0.0001     Total:     2.4338

*** Psi4 exiting successfully. Buy a developer a beer!
