                               Psi4 1.3.2 release

  ==> Input File <==

--------------------------------------------------------------------------
#psi4
#
memory 32 gb

molecule  {
0 1
  O        3.0870850    -0.7380670     0.0000600
  N       -1.0742560    -1.1771330    -0.0000800
  C        0.9568522     0.0594517    -0.0000165
  C       -0.4881060     0.0430670    -0.0000040
  C        1.8814630     1.1555170    -0.0001020
  C       -1.2332690     1.2310260     0.0000830
  C        1.7670490    -1.0798270     0.0000780
  C       -2.6240280     1.1598410     0.0000810
  C        3.1400070     0.6275730    -0.0000460
  C       -3.2332050    -0.0939970     0.0000020
  C       -2.4150150    -1.2251180    -0.0000720
  H        1.6419750     2.2104320    -0.0002120
  H       -0.7317970     2.1947500     0.0001580
  H        1.5416230    -2.1350490     0.0001580
  H        4.1309200     1.0569280    -0.0000720
  H       -3.2210480     2.0687070     0.0001450
  H       -4.3145730    -0.1971740    -0.0000020
  H       -2.8500980    -2.2235110    -0.0001310
units angstrom
no_reorient  #important for SAPT in psi4, default
symmetry c1  #important for SAPT in psi4, default
}

set PROPERTIES_ORIGIN ["COM"]
properties('MP2/aug-cc-pvtz', properties = ['dipole'])
--------------------------------------------------------------------------

    Molecular point group: c1
  Charge       = 0
  Multiplicity = 1
  Basis Set: AUG-CC-PVTZ
    Blend: AUG-CC-PVTZ
  Basis Set: (AUG-CC-PVTZ AUX)
    Blend: AUG-CC-PVTZ-JKFIT

    Orbital Energies [Eh]
    ---------------------

    Doubly Occupied:

       1A    -20.631145     2A    -15.565405     3A    -11.298432
       4A    -11.293291     5A    -11.291018     6A    -11.279454
       7A    -11.263023     8A    -11.242746     9A    -11.240965
      10A    -11.240671    11A    -11.238373    12A     -1.459688
      13A     -1.258876    14A     -1.105571    15A     -1.088375
      16A     -1.034612    17A     -0.996000    18A     -0.878164
      19A     -0.863547    20A     -0.794282    21A     -0.778733
      22A     -0.745150    23A     -0.687483    24A     -0.662675
      25A     -0.647525    26A     -0.635778    27A     -0.607729
      28A     -0.586764    29A     -0.575841    30A     -0.571105
      31A     -0.549491    32A     -0.535394    33A     -0.522377
      34A     -0.425257    35A     -0.421815    36A     -0.383755
      37A     -0.349005    38A     -0.295254

  @DF-RHF Final Energy:  -474.32861547893771

   => Energetics <=

    Nuclear Repulsion Energy =            539.8239699121277226
    One-Electron Energy =               -1714.2156339295866019
    Two-Electron Energy =                 700.0630485385211159
    Total Energy =                       -474.3286154789377633
  Basis Set: (AUG-CC-PVTZ AUX)
    Blend: AUG-CC-PVTZ-RI
    Molecular point group: c1

    Geometry (in Angstrom), charge = 0, multiplicity = 1:

       Center              X                  Y                   Z               Mass
    ------------   -----------------  -----------------  -----------------  -----------------
         O            3.062797310092    -0.719039223024     0.000060511584    15.994914619570
         N           -1.098543689908    -1.158105223024    -0.000079488416    14.003074004430
         C            0.932564510092     0.078479476976    -0.000015988416    12.000000000000
         C           -0.512393689908     0.062094776976    -0.000003488416    12.000000000000
         C            1.857175310092     1.174544776976    -0.000101488416    12.000000000000
         C           -1.257556689908     1.250053776976     0.000083511584    12.000000000000
         C            1.742761310092    -1.060799223024     0.000078511584    12.000000000000
         C           -2.648315689908     1.178868776976     0.000081511584    12.000000000000
         C            3.115719310092     0.646600776976    -0.000045488416    12.000000000000
         C           -3.257492689908    -0.074969223024     0.000002511584    12.000000000000
         C           -2.439302689908    -1.206090223024    -0.000071488416    12.000000000000
         H            1.617687310092     2.229459776976    -0.000211488416     1.007825032230
         H           -0.756084689908     2.213777776976     0.000158511584     1.007825032230
         H            1.517335310092    -2.116021223024     0.000158511584     1.007825032230
         H            4.106632310092     1.075955776976    -0.000071488416     1.007825032230
         H           -3.245335689908     2.087734776976     0.000145511584     1.007825032230
         H           -4.338860689908    -0.178146223024    -0.000001488416     1.007825032230
         H           -2.874385689908    -2.204483223024    -0.000130488416     1.007825032230

  Basis Set: AUG-CC-PVTZ
    Blend: AUG-CC-PVTZ
  Basis Set: (AUG-CC-PVTZ AUX)
    Blend: AUG-CC-PVTZ-JKFIT
	 Reference Energy          =    -474.3286154789377065 [Eh]
	 Singles Energy            =      -0.0000000000000000 [Eh]
	 Same-Spin Energy          =      -0.5148345094940179 [Eh]
	 Opposite-Spin Energy      =      -1.5579701766483036 [Eh]
	 Correlation Energy        =      -2.0728046861423213 [Eh]
	 Total Energy              =    -476.4014201650800260 [Eh]

	 ================> DF-SCS-MP2 Energies <==================
	-----------------------------------------------------------
	 SCS Same-Spin Scale       =       0.3333333333333333 [-]
	 SCS Opposite-Spin Scale   =       1.2000000000000000 [-]
	 SCS Same-Spin Energy      =      -0.1716115031646726 [Eh]
	 SCS Opposite-Spin Energy  =      -1.8695642119779643 [Eh]
	 SCS Correlation Energy    =      -2.0411757151426371 [Eh]
	 SCS Total Energy          =    -476.3697911940803351 [Eh]
	-----------------------------------------------------------

  Dipole Moment: [D]
     X:    -1.3066      Y:     2.0187      Z:     0.0001     Total:     2.4047

*** Psi4 exiting successfully. Buy a developer a beer!
