                               Psi4 1.3.2 release

  ==> Input File <==

--------------------------------------------------------------------------
#psi4
#
memory 32 gb

molecule  {
0 1
  O        3.0870850    -0.7380670     0.0000600
  N       -1.0742560    -1.1771330    -0.0000800
  C        0.9761220     0.0434820    -0.0000150
  C       -0.5746507     0.0809824    -0.0000008
  C        1.8814630     1.1555170    -0.0001020
  C       -1.2332690     1.2310260     0.0000830
  C        1.7670490    -1.0798270     0.0000780
  C       -2.6240280     1.1598410     0.0000810
  C        3.1400070     0.6275730    -0.0000460
  C       -3.2332050    -0.0939970     0.0000020
  C       -2.4150150    -1.2251180    -0.0000720
  H        1.6419750     2.2104320    -0.0002120
  H       -0.7317970     2.1947500     0.0001580
  H        1.5416230    -2.1350490     0.0001580
  H        4.1309200     1.0569280    -0.0000720
  H       -3.2210480     2.0687070     0.0001450
  H       -4.3145730    -0.1971740    -0.0000020
  H       -2.8500980    -2.2235110    -0.0001310
units angstrom
no_reorient  #important for SAPT in psi4, default
symmetry c1  #important for SAPT in psi4, default
}

set PROPERTIES_ORIGIN ["COM"]
properties('MP2/aug-cc-pvtz', properties = ['dipole'])
--------------------------------------------------------------------------

    Molecular point group: c1
  Charge       = 0
  Multiplicity = 1
  Basis Set: AUG-CC-PVTZ
    Blend: AUG-CC-PVTZ
  Basis Set: (AUG-CC-PVTZ AUX)
    Blend: AUG-CC-PVTZ-JKFIT

    Orbital Energies [Eh]
    ---------------------

    Doubly Occupied:

       1A    -20.623502     2A    -15.569971     3A    -11.288869
       4A    -11.288321     5A    -11.286868     6A    -11.282931
       7A    -11.267849     8A    -11.244071     9A    -11.238793
      10A    -11.237732    11A    -11.232213    12A     -1.453624
      13A     -1.266444    14A     -1.099355    15A     -1.094967
      16A     -1.038153    17A     -0.995248    18A     -0.875123
      19A     -0.863189    20A     -0.791569    21A     -0.774160
      22A     -0.741477    23A     -0.687385    24A     -0.670020
      25A     -0.646764    26A     -0.630546    27A     -0.604344
      28A     -0.586538    29A     -0.572139    30A     -0.568562
      31A     -0.555856    32A     -0.534033    33A     -0.504387
      34A     -0.434482    35A     -0.416722    36A     -0.387351
      37A     -0.352331    38A     -0.302235

  @DF-RHF Final Energy:  -474.32142985580356

   => Energetics <=

    Nuclear Repulsion Energy =            539.9710246879017177
    One-Electron Energy =               -1714.5686627851637240
    Two-Electron Energy =                 700.2762082414584484
    Total Energy =                       -474.3214298558035580
  Basis Set: (AUG-CC-PVTZ AUX)
    Blend: AUG-CC-PVTZ-RI
    Molecular point group: c1

    Geometry (in Angstrom), charge = 0, multiplicity = 1:

       Center              X                  Y                   Z               Mass
    ------------   -----------------  -----------------  -----------------  -----------------
         O            3.068362862781    -0.720854758234     0.000060122760    15.994914619570
         N           -1.092978137219    -1.159920758234    -0.000079877240    14.003074004430
         C            0.957399862781     0.060694241766    -0.000014877240    12.000000000000
         C           -0.593372837219     0.098194641766    -0.000000677240    12.000000000000
         C            1.862740862781     1.172729241766    -0.000101877240    12.000000000000
         C           -1.251991137219     1.248238241766     0.000083122760    12.000000000000
         C            1.748326862781    -1.062614758234     0.000078122760    12.000000000000
         C           -2.642750137219     1.177053241766     0.000081122760    12.000000000000
         C            3.121284862781     0.644785241766    -0.000045877240    12.000000000000
         C           -3.251927137219    -0.076784758234     0.000002122760    12.000000000000
         C           -2.433737137219    -1.207905758234    -0.000071877240    12.000000000000
         H            1.623252862781     2.227644241766    -0.000211877240     1.007825032230
         H           -0.750519137219     2.211962241766     0.000158122760     1.007825032230
         H            1.522900862781    -2.117836758234     0.000158122760     1.007825032230
         H            4.112197862781     1.074140241766    -0.000071877240     1.007825032230
         H           -3.239770137219     2.085919241766     0.000145122760     1.007825032230
         H           -4.333295137219    -0.179961758234    -0.000001877240     1.007825032230
         H           -2.868820137219    -2.206298758234    -0.000130877240     1.007825032230

  Basis Set: AUG-CC-PVTZ
    Blend: AUG-CC-PVTZ
  Basis Set: (AUG-CC-PVTZ AUX)
    Blend: AUG-CC-PVTZ-JKFIT
	 Reference Energy          =    -474.3214298558035580 [Eh]
	 Singles Energy            =      -0.0000000000000000 [Eh]
	 Same-Spin Energy          =      -0.5134687351669578 [Eh]
	 Opposite-Spin Energy      =      -1.5563222677546977 [Eh]
	 Correlation Energy        =      -2.0697910029216553 [Eh]
	 Total Energy              =    -476.3912208587252053 [Eh]

	 ================> DF-SCS-MP2 Energies <==================
	-----------------------------------------------------------
	 SCS Same-Spin Scale       =       0.3333333333333333 [-]
	 SCS Opposite-Spin Scale   =       1.2000000000000000 [-]
	 SCS Same-Spin Energy      =      -0.1711562450556526 [Eh]
	 SCS Opposite-Spin Energy  =      -1.8675867213056372 [Eh]
	 SCS Correlation Energy    =      -2.0387429663612897 [Eh]
	 SCS Total Energy          =    -476.3601728221648273 [Eh]
	-----------------------------------------------------------

  Dipole Moment: [D]
     X:    -1.8175      Y:     2.0314      Z:     0.0001     Total:     2.7258

*** Psi4 exiting successfully. Buy a developer a beer!
