                               Psi4 1.3.2 release

  ==> Input File <==

--------------------------------------------------------------------------
#psi4
#
memory 32 gb

molecule  {
0 1
  O        3.0870850    -0.7380670     0.0000600
  N       -1.0742560    -1.1771330    -0.0000800
  C        1.0564067     0.0959180    -0.0000185
  C       -0.4881060     0.0430670    -0.0000040
  C        1.8814630     1.1555170    -0.0001020
  C       -1.2332690     1.2310260     0.0000830
  C        1.7670490    -1.0798270     0.0000780
  C       -2.6240280     1.1598410     0.0000810
  C        3.1400070     0.6275730    -0.0000460
  C       -3.2332050    -0.0939970     0.0000020
  C       -2.4150150    -1.2251180    -0.0000720
  H        1.6419750     2.2104320    -0.0002120
  H       -0.7317970     2.1947500     0.0001580
  H        1.5416230    -2.1350490     0.0001580
  H        4.1309200     1.0569280    -0.0000720
  H       -3.2210480     2.0687070     0.0001450
  H       -4.3145730    -0.1971740    -0.0000020
  H       -2.8500980    -2.2235110    -0.0001310
units angstrom
no_reorient  #important for SAPT in psi4, default
symmetry c1  #important for SAPT in psi4, default
}

set PROPERTIES_ORIGIN ["COM"]
properties('MP2/aug-cc-pvtz', properties = ['dipole'])
--------------------------------------------------------------------------

    Molecular point group: c1
  Charge       = 0
  Multiplicity = 1
  Basis Set: AUG-CC-PVTZ
    Blend: AUG-CC-PVTZ
  Basis Set: (AUG-CC-PVTZ AUX)
    Blend: AUG-CC-PVTZ-JKFIT

    Orbital Energies [Eh]
    ---------------------

    Doubly Occupied:

       1A    -20.628997     2A    -15.566940     3A    -11.296401
       4A    -11.292604     5A    -11.288422     6A    -11.279816
       7A    -11.262859     8A    -11.242380     9A    -11.241062
      10A    -11.236572    11A    -11.229830    12A     -1.460357
      13A     -1.256458    14A     -1.116121    15A     -1.088229
      16A     -1.034929    17A     -0.996204    18A     -0.866895
      19A     -0.861243    20A     -0.797712    21A     -0.782889
      22A     -0.744568    23A     -0.687578    24A     -0.660892
      25A     -0.641760    26A     -0.636650    27A     -0.606477
      28A     -0.592067    29A     -0.581706    30A     -0.563275
      31A     -0.546334    32A     -0.545505    33A     -0.513435
      34A     -0.429011    35A     -0.419806    36A     -0.384455
      37A     -0.348314    38A     -0.297795

  @DF-RHF Final Energy:  -474.31799295900328

   => Energetics <=

    Nuclear Repulsion Energy =            539.9595921828180280
    One-Electron Energy =               -1714.5020780378526979
    Two-Electron Energy =                 700.2244928960312791
    Total Energy =                       -474.3179929590032771
  Basis Set: (AUG-CC-PVTZ AUX)
    Blend: AUG-CC-PVTZ-RI
    Molecular point group: c1

    Geometry (in Angstrom), charge = 0, multiplicity = 1:

       Center              X                  Y                   Z               Mass
    ------------   -----------------  -----------------  -----------------  -----------------
         O            3.054561313973    -0.722056025934     0.000060677042    15.994914619570
         N           -1.106779686027    -1.161122025934    -0.000079322958    14.003074004430
         C            1.023883013973     0.111928974066    -0.000017822958    12.000000000000
         C           -0.520629686027     0.059077974066    -0.000003322958    12.000000000000
         C            1.848939313973     1.171527974066    -0.000101322958    12.000000000000
         C           -1.265792686027     1.247036974066     0.000083677042    12.000000000000
         C            1.734525313973    -1.063816025934     0.000078677042    12.000000000000
         C           -2.656551686027     1.175851974066     0.000081677042    12.000000000000
         C            3.107483313973     0.643583974066    -0.000045322958    12.000000000000
         C           -3.265728686027    -0.077986025934     0.000002677042    12.000000000000
         C           -2.447538686027    -1.209107025934    -0.000071322958    12.000000000000
         H            1.609451313973     2.226442974066    -0.000211322958     1.007825032230
         H           -0.764320686027     2.210760974066     0.000158677042     1.007825032230
         H            1.509099313973    -2.119038025934     0.000158677042     1.007825032230
         H            4.098396313973     1.072938974066    -0.000071322958     1.007825032230
         H           -3.253571686027     2.084717974066     0.000145677042     1.007825032230
         H           -4.347096686027    -0.181163025934    -0.000001322958     1.007825032230
         H           -2.882621686027    -2.207500025934    -0.000130322958     1.007825032230

  Basis Set: AUG-CC-PVTZ
    Blend: AUG-CC-PVTZ
  Basis Set: (AUG-CC-PVTZ AUX)
    Blend: AUG-CC-PVTZ-JKFIT
	 Reference Energy          =    -474.3179929590032771 [Eh]
	 Singles Energy            =      -0.0000000000000000 [Eh]
	 Same-Spin Energy          =      -0.5152800343350772 [Eh]
	 Opposite-Spin Energy      =      -1.5576963877289658 [Eh]
	 Correlation Energy        =      -2.0729764220640430 [Eh]
	 Total Energy              =    -476.3909693810672934 [Eh]

	 ================> DF-SCS-MP2 Energies <==================
	-----------------------------------------------------------
	 SCS Same-Spin Scale       =       0.3333333333333333 [-]
	 SCS Opposite-Spin Scale   =       1.2000000000000000 [-]
	 SCS Same-Spin Energy      =      -0.1717600114450257 [Eh]
	 SCS Opposite-Spin Energy  =      -1.8692356652747588 [Eh]
	 SCS Correlation Energy    =      -2.0409956767197848 [Eh]
	 SCS Total Energy          =    -476.3589886357230512 [Eh]
	-----------------------------------------------------------

  Dipole Moment: [D]
     X:    -1.3648      Y:     2.0427      Z:     0.0001     Total:     2.4567

*** Psi4 exiting successfully. Buy a developer a beer!
