                               Psi4 1.4a3.dev225

  ==> Input File <==

--------------------------------------------------------------------------
#psi4
#
memory 32 gb

molecule  {
0 1
  O        3.0870850    -0.7380670     0.0000600
  N       -1.0742560    -1.1771330    -0.0000800
  C        0.9761220     0.0434820    -0.0000150
  C       -0.4967661     0.0250392    -0.0000051
  C        1.8814630     1.1555170    -0.0001020
  C       -1.2332690     1.2310260     0.0000830
  C        1.7670490    -1.0798270     0.0000780
  C       -2.6240280     1.1598410     0.0000810
  C        3.1400070     0.6275730    -0.0000460
  C       -3.2332050    -0.0939970     0.0000020
  C       -2.4150150    -1.2251180    -0.0000720
  H        1.6419750     2.2104320    -0.0002120
  H       -0.7317970     2.1947500     0.0001580
  H        1.5416230    -2.1350490     0.0001580
  H        4.1309200     1.0569280    -0.0000720
  H       -3.2210480     2.0687070     0.0001450
  H       -4.3145730    -0.1971740    -0.0000020
  H       -2.8500980    -2.2235110    -0.0001310
units angstrom
no_reorient  #important for SAPT in psi4, default
symmetry c1  #important for SAPT in psi4, default
}

set PROPERTIES_ORIGIN ["COM"]
properties('MP2/aug-cc-pvtz', properties = ['dipole'])
--------------------------------------------------------------------------

    Molecular point group: c1
  Charge       = 0
  Multiplicity = 1
  Basis Set: AUG-CC-PVTZ
    Blend: AUG-CC-PVTZ
  Basis Set: (AUG-CC-PVTZ AUX)
    Blend: AUG-CC-PVTZ-JKFIT

    Orbital Energies [Eh]
    ---------------------

    Doubly Occupied:

       1A    -20.628255     2A    -15.564677     3A    -11.293223
       4A    -11.293042     5A    -11.292596     6A    -11.279661
       7A    -11.263045     8A    -11.244297     9A    -11.241142
      10A    -11.239068    11A    -11.237368    12A     -1.458511
      13A     -1.263857    14A     -1.104424    15A     -1.089478
      16A     -1.033304    17A     -0.997826    18A     -0.874156
      19A     -0.864616    20A     -0.796445    21A     -0.776836
      22A     -0.744588    23A     -0.688291    24A     -0.662895
      25A     -0.646310    26A     -0.635331    27A     -0.606427
      28A     -0.584771    29A     -0.575686    30A     -0.571574
      31A     -0.550894    32A     -0.537490    33A     -0.521522
      34A     -0.423907    35A     -0.421797    36A     -0.385112
      37A     -0.347972    38A     -0.299319

  @DF-RHF Final Energy:  -474.33152366224920

   => Energetics <=

    Nuclear Repulsion Energy =            539.9501951229107135
    One-Electron Energy =               -1714.4840081793097397
    Two-Electron Energy =                 700.2022893941499433
    Total Energy =                       -474.3315236622491966
  Basis Set: (AUG-CC-PVTZ AUX)
    Blend: AUG-CC-PVTZ-RI
    Molecular point group: c1

    Geometry (in Angstrom), charge = 0, multiplicity = 1:

       Center              X                  Y                   Z               Mass
    ------------   -----------------  -----------------  -----------------  -----------------
         O            3.061919585348    -0.716226660277     0.000060478493    15.994914619570
         N           -1.099421414652    -1.155292660277    -0.000079521507    14.003074004430
         C            0.950956585348     0.065322339723    -0.000014521507    12.000000000000
         C           -0.521931514652     0.046879539723    -0.000004621507    12.000000000000
         C            1.856297585348     1.177357339723    -0.000101521507    12.000000000000
         C           -1.258434414652     1.252866339723     0.000083478493    12.000000000000
         C            1.741883585348    -1.057986660277     0.000078478493    12.000000000000
         C           -2.649193414652     1.181681339723     0.000081478493    12.000000000000
         C            3.114841585348     0.649413339723    -0.000045521507    12.000000000000
         C           -3.258370414652    -0.072156660277     0.000002478493    12.000000000000
         C           -2.440180414652    -1.203277660277    -0.000071521507    12.000000000000
         H            1.616809585348     2.232272339723    -0.000211521507     1.007825032230
         H           -0.756962414652     2.216590339723     0.000158478493     1.007825032230
         H            1.516457585348    -2.113208660277     0.000158478493     1.007825032230
         H            4.105754585348     1.078768339723    -0.000071521507     1.007825032230
         H           -3.246213414652     2.090547339723     0.000145478493     1.007825032230
         H           -4.339738414652    -0.175333660277    -0.000001521507     1.007825032230
         H           -2.875263414652    -2.201670660277    -0.000130521507     1.007825032230

  Basis Set: AUG-CC-PVTZ
    Blend: AUG-CC-PVTZ
  Basis Set: (AUG-CC-PVTZ AUX)
    Blend: AUG-CC-PVTZ-JKFIT
	 Reference Energy          =    -474.3315236622491966 [Eh]
	 Singles Energy            =      -0.0000000000000000 [Eh]
	 Same-Spin Energy          =      -0.5139537063615287 [Eh]
	 Opposite-Spin Energy      =      -1.5564210958955433 [Eh]
	 Correlation Energy        =      -2.0703748022570720 [Eh]
	 Total Energy              =    -476.4018984645062460 [Eh]

	 ================> DF-SCS-MP2 Energies <==================
	-----------------------------------------------------------
	 SCS Same-Spin Scale       =       0.3333333333333333 [-]
	 SCS Opposite-Spin Scale   =       1.2000000000000000 [-]
	 SCS Same-Spin Energy      =      -0.1713179021205096 [Eh]
	 SCS Opposite-Spin Energy  =      -1.8677053150746519 [Eh]
	 SCS Correlation Energy    =      -2.0390232171951612 [Eh]
	 SCS Total Energy          =    -476.3705468794443618 [Eh]
	-----------------------------------------------------------

  Dipole Moment: [D]
     X:    -1.3646      Y:     2.0157      Z:     0.0001     Total:     2.4341

*** Psi4 exiting successfully. Buy a developer a beer!
