                               Psi4 1.3.2 release

  ==> Input File <==

--------------------------------------------------------------------------
#psi4
#
memory 32 gb

molecule  {
0 1
  O        3.0870850    -0.7380670     0.0000600
  N       -1.0742560    -1.1771330    -0.0000800
  C        0.9761220     0.0434820    -0.0000150
  C       -0.4881060     0.0430670    -0.0000040
  C        1.8814630     1.1555170    -0.0001020
  C       -1.2332690     1.2310260     0.0000830
  C        1.7670490    -1.0798270     0.0000780
  C       -2.6240280     1.1598410     0.0000810
  C        3.1400070     0.6275730    -0.0000460
  C       -3.2332050    -0.0939970     0.0000020
  C       -2.4150150    -1.2251180    -0.0000720
  H        1.6419750     2.2104320    -0.0002120
  H       -0.7317970     2.1947500     0.0001580
  H        1.5625145    -2.0372556     0.0001506
  H        4.1309200     1.0569280    -0.0000720
  H       -3.2210480     2.0687070     0.0001450
  H       -4.3145730    -0.1971740    -0.0000020
  H       -2.8500980    -2.2235110    -0.0001310
units angstrom
no_reorient  #important for SAPT in psi4, default
symmetry c1  #important for SAPT in psi4, default
}

set PROPERTIES_ORIGIN ["COM"]
properties('MP2/aug-cc-pvtz', properties = ['dipole'])
--------------------------------------------------------------------------

    Molecular point group: c1
  Charge       = 0
  Multiplicity = 1
  Basis Set: AUG-CC-PVTZ
    Blend: AUG-CC-PVTZ
  Basis Set: (AUG-CC-PVTZ AUX)
    Blend: AUG-CC-PVTZ-JKFIT

    Orbital Energies [Eh]
    ---------------------

    Doubly Occupied:

       1A    -20.628167     2A    -15.566016     3A    -11.293400
       4A    -11.292377     5A    -11.283004     6A    -11.279679
       7A    -11.263525     8A    -11.243577     9A    -11.241324
      10A    -11.238982    11A    -11.237003    12A     -1.458592
      13A     -1.258848    14A     -1.105538    15A     -1.088809
      16A     -1.034721    17A     -1.003014    18A     -0.877096
      19A     -0.863583    20A     -0.795955    21A     -0.790252
      22A     -0.749790    23A     -0.688157    24A     -0.662968
      25A     -0.647124    26A     -0.635408    27A     -0.616735
      28A     -0.586897    29A     -0.576807    30A     -0.571905
      31A     -0.549098    32A     -0.540109    33A     -0.520701
      34A     -0.424534    35A     -0.422451    36A     -0.384001
      37A     -0.348761    38A     -0.299261

  @DF-RHF Final Energy:  -474.32490212329537

   => Energetics <=

    Nuclear Repulsion Energy =            540.4310583441531435
    One-Electron Energy =               -1715.3755827709228470
    Two-Electron Energy =                 700.6196223034743298
    Total Energy =                       -474.3249021232953737
  Basis Set: (AUG-CC-PVTZ AUX)
    Blend: AUG-CC-PVTZ-RI
    Molecular point group: c1

    Geometry (in Angstrom), charge = 0, multiplicity = 1:

       Center              X                  Y                   Z               Mass
    ------------   -----------------  -----------------  -----------------  -----------------
         O            3.061057994204    -0.718397540915     0.000060438907    15.994914619570
         N           -1.100283005796    -1.157463540915    -0.000079561093    14.003074004430
         C            0.950094994204     0.063151459085    -0.000014561093    12.000000000000
         C           -0.514133005796     0.062736459085    -0.000003561093    12.000000000000
         C            1.855435994204     1.175186459085    -0.000101561093    12.000000000000
         C           -1.259296005796     1.250695459085     0.000083438907    12.000000000000
         C            1.741021994204    -1.060157540915     0.000078438907    12.000000000000
         C           -2.650055005796     1.179510459085     0.000081438907    12.000000000000
         C            3.113979994204     0.647242459085    -0.000045561093    12.000000000000
         C           -3.259232005796    -0.074327540915     0.000002438907    12.000000000000
         C           -2.441042005796    -1.205448540915    -0.000071561093    12.000000000000
         H            1.615947994204     2.230101459085    -0.000211561093     1.007825032230
         H           -0.757824005796     2.214419459085     0.000158438907     1.007825032230
         H            1.536487494204    -2.017586140915     0.000151038907     1.007825032230
         H            4.104892994204     1.076597459085    -0.000071561093     1.007825032230
         H           -3.247075005796     2.088376459085     0.000145438907     1.007825032230
         H           -4.340600005796    -0.177504540915    -0.000001561093     1.007825032230
         H           -2.876125005796    -2.203841540915    -0.000130561093     1.007825032230

  Basis Set: AUG-CC-PVTZ
    Blend: AUG-CC-PVTZ
  Basis Set: (AUG-CC-PVTZ AUX)
    Blend: AUG-CC-PVTZ-JKFIT
	 Reference Energy          =    -474.3249021232953737 [Eh]
	 Singles Energy            =      -0.0000000000000000 [Eh]
	 Same-Spin Energy          =      -0.5139676673172660 [Eh]
	 Opposite-Spin Energy      =      -1.5563066668602437 [Eh]
	 Correlation Energy        =      -2.0702743341775096 [Eh]
	 Total Energy              =    -476.3951764574728713 [Eh]

	 ================> DF-SCS-MP2 Energies <==================
	-----------------------------------------------------------
	 SCS Same-Spin Scale       =       0.3333333333333333 [-]
	 SCS Opposite-Spin Scale   =       1.2000000000000000 [-]
	 SCS Same-Spin Energy      =      -0.1713225557724220 [Eh]
	 SCS Opposite-Spin Energy  =      -1.8675680002322923 [Eh]
	 SCS Correlation Energy    =      -2.0388905560047141 [Eh]
	 SCS Total Energy          =    -476.3637926793001043 [Eh]
	-----------------------------------------------------------

  Dipole Moment: [D]
     X:    -1.3478      Y:     2.0583      Z:     0.0001     Total:     2.4603

*** Psi4 exiting successfully. Buy a developer a beer!
