                               Psi4 1.3.2 release

  ==> Input File <==

--------------------------------------------------------------------------
#psi4
#
memory 32 gb

molecule  {
0 1
  O        3.0870850    -0.7380670     0.0000600
  N       -1.0742560    -1.1771330    -0.0000800
  C        0.9761220     0.0434820    -0.0000150
  C       -0.4878902     0.0686214    -0.0000058
  C        1.8814630     1.1555170    -0.0001020
  C       -1.2332690     1.2310260     0.0000830
  C        1.7670490    -1.0798270     0.0000780
  C       -2.6240280     1.1598410     0.0000810
  C        3.1400070     0.6275730    -0.0000460
  C       -3.2332050    -0.0939970     0.0000020
  C       -2.4150150    -1.2251180    -0.0000720
  H        1.6419750     2.2104320    -0.0002120
  H       -0.7317970     2.1947500     0.0001580
  H        1.5416230    -2.1350490     0.0001580
  H        4.1309200     1.0569280    -0.0000720
  H       -3.2210480     2.0687070     0.0001450
  H       -4.3145730    -0.1971740    -0.0000020
  H       -2.8500980    -2.2235110    -0.0001310
units angstrom
no_reorient  #important for SAPT in psi4, default
symmetry c1  #important for SAPT in psi4, default
}

set PROPERTIES_ORIGIN ["COM"]
properties('MP2/aug-cc-pvtz', properties = ['dipole'])
--------------------------------------------------------------------------

    Molecular point group: c1
  Charge       = 0
  Multiplicity = 1
  Basis Set: AUG-CC-PVTZ
    Blend: AUG-CC-PVTZ
  Basis Set: (AUG-CC-PVTZ AUX)
    Blend: AUG-CC-PVTZ-JKFIT

    Orbital Energies [Eh]
    ---------------------

    Doubly Occupied:

       1A    -20.628477     2A    -15.567262     3A    -11.293861
       4A    -11.292947     5A    -11.291328     6A    -11.279688
       7A    -11.264241     8A    -11.241703     9A    -11.241543
      10A    -11.239298    11A    -11.236552    12A     -1.458678
      13A     -1.253843    14A     -1.105641    15A     -1.088689
      16A     -1.035095    17A     -0.998458    18A     -0.876389
      19A     -0.862605    20A     -0.795058    21A     -0.778295
      22A     -0.744904    23A     -0.686341    24A     -0.662687
      25A     -0.646250    26A     -0.635459    27A     -0.607389
      28A     -0.586729    29A     -0.574608    30A     -0.571807
      31A     -0.547589    32A     -0.538468    33A     -0.517753
      34A     -0.424637    35A     -0.423433    36A     -0.382902
      37A     -0.349805    38A     -0.299298

  @DF-RHF Final Energy:  -474.32961010436475

   => Energetics <=

    Nuclear Repulsion Energy =            539.8062487677276522
    One-Electron Energy =               -1714.2123013957104831
    Two-Electron Energy =                 700.0764425236179704
    Total Energy =                       -474.3296101043647468
  Basis Set: (AUG-CC-PVTZ AUX)
    Blend: AUG-CC-PVTZ-RI
    Molecular point group: c1

    Geometry (in Angstrom), charge = 0, multiplicity = 1:

       Center              X                  Y                   Z               Mass
    ------------   -----------------  -----------------  -----------------  -----------------
         O            3.061185295306    -0.719832151039     0.000060536403    15.994914619570
         N           -1.100155704694    -1.158898151039    -0.000079463597    14.003074004430
         C            0.950222295306     0.061716848961    -0.000014463597    12.000000000000
         C           -0.513789904694     0.086856248961    -0.000005263597    12.000000000000
         C            1.855563295306     1.173751848961    -0.000101463597    12.000000000000
         C           -1.259168704694     1.249260848961     0.000083536403    12.000000000000
         C            1.741149295306    -1.061592151039     0.000078536403    12.000000000000
         C           -2.649927704694     1.178075848961     0.000081536403    12.000000000000
         C            3.114107295306     0.645807848961    -0.000045463597    12.000000000000
         C           -3.259104704694    -0.075762151039     0.000002536403    12.000000000000
         C           -2.440914704694    -1.206883151039    -0.000071463597    12.000000000000
         H            1.616075295306     2.228666848961    -0.000211463597     1.007825032230
         H           -0.757696704694     2.212984848961     0.000158536403     1.007825032230
         H            1.515723295306    -2.116814151039     0.000158536403     1.007825032230
         H            4.105020295306     1.075162848961    -0.000071463597     1.007825032230
         H           -3.246947704694     2.086941848961     0.000145536403     1.007825032230
         H           -4.340472704694    -0.178939151039    -0.000001463597     1.007825032230
         H           -2.875997704694    -2.205276151039    -0.000130463597     1.007825032230

  Basis Set: AUG-CC-PVTZ
    Blend: AUG-CC-PVTZ
  Basis Set: (AUG-CC-PVTZ AUX)
    Blend: AUG-CC-PVTZ-JKFIT
	 Reference Energy          =    -474.3296101043647468 [Eh]
	 Singles Energy            =      -0.0000000000000000 [Eh]
	 Same-Spin Energy          =      -0.5143365942600426 [Eh]
	 Opposite-Spin Energy      =      -1.5574568038553749 [Eh]
	 Correlation Energy        =      -2.0717933981154175 [Eh]
	 Total Energy              =    -476.4014035024801501 [Eh]

	 ================> DF-SCS-MP2 Energies <==================
	-----------------------------------------------------------
	 SCS Same-Spin Scale       =       0.3333333333333333 [-]
	 SCS Opposite-Spin Scale   =       1.2000000000000000 [-]
	 SCS Same-Spin Energy      =      -0.1714455314200142 [Eh]
	 SCS Opposite-Spin Energy  =      -1.8689481646264499 [Eh]
	 SCS Correlation Energy    =      -2.0403936960464639 [Eh]
	 SCS Total Energy          =    -476.3700038004112116 [Eh]
	-----------------------------------------------------------

  Dipole Moment: [D]
     X:    -1.3751      Y:     2.0276      Z:     0.0001     Total:     2.4499

*** Psi4 exiting successfully. Buy a developer a beer!
