                               Psi4 1.3.2 release

  ==> Input File <==

--------------------------------------------------------------------------
#psi4
#
memory 32 gb

molecule  {
0 1
  O        3.0870850    -0.7380670     0.0000600
  N       -1.0742560    -1.1771330    -0.0000800
  C        0.9761220     0.0434820    -0.0000150
  C       -0.4881060     0.0430670    -0.0000040
  C        1.9007328     1.1395473    -0.0001007
  C       -1.2332690     1.2310260     0.0000830
  C        1.7670490    -1.0798270     0.0000780
  C       -2.6240280     1.1598410     0.0000810
  C        3.1400070     0.6275730    -0.0000460
  C       -3.2332050    -0.0939970     0.0000020
  C       -2.4150150    -1.2251180    -0.0000720
  H        1.6419750     2.2104320    -0.0002120
  H       -0.7317970     2.1947500     0.0001580
  H        1.5416230    -2.1350490     0.0001580
  H        4.1309200     1.0569280    -0.0000720
  H       -3.2210480     2.0687070     0.0001450
  H       -4.3145730    -0.1971740    -0.0000020
  H       -2.8500980    -2.2235110    -0.0001310
units angstrom
no_reorient  #important for SAPT in psi4, default
symmetry c1  #important for SAPT in psi4, default
}

set PROPERTIES_ORIGIN ["COM"]
properties('MP2/aug-cc-pvtz', properties = ['dipole'])
--------------------------------------------------------------------------

    Molecular point group: c1
  Charge       = 0
  Multiplicity = 1
  Basis Set: AUG-CC-PVTZ
    Blend: AUG-CC-PVTZ
  Basis Set: (AUG-CC-PVTZ AUX)
    Blend: AUG-CC-PVTZ-JKFIT

    Orbital Energies [Eh]
    ---------------------

    Doubly Occupied:

       1A    -20.626572     2A    -15.565836     3A    -11.294130
       4A    -11.292809     5A    -11.289356     6A    -11.279641
       7A    -11.263439     8A    -11.243448     9A    -11.241174
      10A    -11.238361    11A    -11.235660    12A     -1.458651
      13A     -1.258741    14A     -1.106385    15A     -1.088715
      16A     -1.036446    17A     -0.999216    18A     -0.875846
      19A     -0.863253    20A     -0.793442    21A     -0.778402
      22A     -0.744497    23A     -0.687833    24A     -0.662188
      25A     -0.646808    26A     -0.636087    27A     -0.606301
      28A     -0.586426    29A     -0.574397    30A     -0.568469
      31A     -0.549012    32A     -0.537754    33A     -0.520802
      34A     -0.424812    35A     -0.422126    36A     -0.384156
      37A     -0.351659    38A     -0.299717

  @DF-RHF Final Energy:  -474.33134623418630

   => Energetics <=

    Nuclear Repulsion Energy =            540.1442947155093179
    One-Electron Energy =               -1714.8861438158696728
    Two-Electron Energy =                 700.4105028661741699
    Total Energy =                       -474.3313462341862987
  Basis Set: (AUG-CC-PVTZ AUX)
    Blend: AUG-CC-PVTZ-RI
    Molecular point group: c1

    Geometry (in Angstrom), charge = 0, multiplicity = 1:

       Center              X                  Y                   Z               Mass
    ------------   -----------------  -----------------  -----------------  -----------------
         O            3.059608986148    -0.716396923837     0.000060279945    15.994914619570
         N           -1.101732013852    -1.155462923837    -0.000079720055    14.003074004430
         C            0.948645986148     0.065152076163    -0.000014720055    12.000000000000
         C           -0.515582013852     0.064737076163    -0.000003720055    12.000000000000
         C            1.873256786148     1.161217376163    -0.000100420055    12.000000000000
         C           -1.260745013852     1.252696076163     0.000083279945    12.000000000000
         C            1.739572986148    -1.058156923837     0.000078279945    12.000000000000
         C           -2.651504013852     1.181511076163     0.000081279945    12.000000000000
         C            3.112530986148     0.649243076163    -0.000045720055    12.000000000000
         C           -3.260681013852    -0.072326923837     0.000002279945    12.000000000000
         C           -2.442491013852    -1.203447923837    -0.000071720055    12.000000000000
         H            1.614498986148     2.232102076163    -0.000211720055     1.007825032230
         H           -0.759273013852     2.216420076163     0.000158279945     1.007825032230
         H            1.514146986148    -2.113378923837     0.000158279945     1.007825032230
         H            4.103443986148     1.078598076163    -0.000071720055     1.007825032230
         H           -3.248524013852     2.090377076163     0.000145279945     1.007825032230
         H           -4.342049013852    -0.175503923837    -0.000001720055     1.007825032230
         H           -2.877574013852    -2.201840923837    -0.000130720055     1.007825032230

  Basis Set: AUG-CC-PVTZ
    Blend: AUG-CC-PVTZ
  Basis Set: (AUG-CC-PVTZ AUX)
    Blend: AUG-CC-PVTZ-JKFIT
	 Reference Energy          =    -474.3313462341862987 [Eh]
	 Singles Energy            =      -0.0000000000000000 [Eh]
	 Same-Spin Energy          =      -0.5138557069188967 [Eh]
	 Opposite-Spin Energy      =      -1.5562521330069110 [Eh]
	 Correlation Energy        =      -2.0701078399258077 [Eh]
	 Total Energy              =    -476.4014540741121095 [Eh]

	 ================> DF-SCS-MP2 Energies <==================
	-----------------------------------------------------------
	 SCS Same-Spin Scale       =       0.3333333333333333 [-]
	 SCS Opposite-Spin Scale   =       1.2000000000000000 [-]
	 SCS Same-Spin Energy      =      -0.1712852356396322 [Eh]
	 SCS Opposite-Spin Energy  =      -1.8675025596082930 [Eh]
	 SCS Correlation Energy    =      -2.0387877952479254 [Eh]
	 SCS Total Energy          =    -476.3701340294342117 [Eh]
	-----------------------------------------------------------

  Dipole Moment: [D]
     X:    -1.3572      Y:     2.0297      Z:     0.0001     Total:     2.4417

*** Psi4 exiting successfully. Buy a developer a beer!
