                               Psi4 1.3.2 release

  ==> Input File <==

--------------------------------------------------------------------------
#psi4
#
memory 32 gb

molecule  {
0 1
  O        3.0870850    -0.7380670     0.0000600
  N       -1.0742560    -1.1771330    -0.0000800
  C        0.9761220     0.0434820    -0.0000150
  C       -0.4881060     0.0430670    -0.0000040
  C        1.8814630     1.1555170    -0.0001020
  C       -1.2332690     1.2310260     0.0000830
  C        1.7670490    -1.0798270     0.0000780
  C       -2.6240280     1.1598410     0.0000810
  C        3.1208153     0.5839721    -0.0000415
  C       -3.2332050    -0.0939970     0.0000020
  C       -2.4150150    -1.2251180    -0.0000720
  H        1.6419750     2.2104320    -0.0002120
  H       -0.7317970     2.1947500     0.0001580
  H        1.5416230    -2.1350490     0.0001580
  H        4.1309200     1.0569280    -0.0000720
  H       -3.2210480     2.0687070     0.0001450
  H       -4.3145730    -0.1971740    -0.0000020
  H       -2.8500980    -2.2235110    -0.0001310
units angstrom
no_reorient  #important for SAPT in psi4, default
symmetry c1  #important for SAPT in psi4, default
}

set PROPERTIES_ORIGIN ["COM"]
properties('MP2/aug-cc-pvtz', properties = ['dipole'])
--------------------------------------------------------------------------

    Molecular point group: c1
  Charge       = 0
  Multiplicity = 1
  Basis Set: AUG-CC-PVTZ
    Blend: AUG-CC-PVTZ
  Basis Set: (AUG-CC-PVTZ AUX)
    Blend: AUG-CC-PVTZ-JKFIT

    Orbital Energies [Eh]
    ---------------------

    Doubly Occupied:

       1A    -20.634210     2A    -15.566016     3A    -11.294685
       4A    -11.292050     5A    -11.290669     6A    -11.279545
       7A    -11.263506     8A    -11.243845     9A    -11.241607
      10A    -11.239871    11A    -11.233003    12A     -1.478663
      13A     -1.258801    14A     -1.107363    15A     -1.088866
      16A     -1.033751    17A     -0.999884    18A     -0.877987
      19A     -0.863652    20A     -0.799071    21A     -0.773862
      22A     -0.745791    23A     -0.688578    24A     -0.662366
      25A     -0.647890    26A     -0.646931    27A     -0.606323
      28A     -0.588065    29A     -0.576741    30A     -0.570086
      31A     -0.549373    32A     -0.535340    33A     -0.518767
      34A     -0.425443    35A     -0.422139    36A     -0.383749
      37A     -0.346296    38A     -0.299492

  @DF-RHF Final Energy:  -474.32967155519896

   => Energetics <=

    Nuclear Repulsion Energy =            540.8378533665118084
    One-Electron Energy =               -1716.1864889483556453
    Two-Electron Energy =                 701.0189640266448805
    Total Energy =                       -474.3296715551989564
  Basis Set: (AUG-CC-PVTZ AUX)
    Blend: AUG-CC-PVTZ-RI
    Molecular point group: c1

    Geometry (in Angstrom), charge = 0, multiplicity = 1:

       Center              X                  Y                   Z               Mass
    ------------   -----------------  -----------------  -----------------  -----------------
         O            3.062790848994    -0.714111035646     0.000060015213    15.994914619570
         N           -1.098550151006    -1.153177035646    -0.000079984787    14.003074004430
         C            0.951827848994     0.067437964354    -0.000014984787    12.000000000000
         C           -0.512400151006     0.067022964354    -0.000003984787    12.000000000000
         C            1.857168848994     1.179472964354    -0.000101984787    12.000000000000
         C           -1.257563151006     1.254981964354     0.000083015213    12.000000000000
         C            1.742754848994    -1.055871035646     0.000078015213    12.000000000000
         C           -2.648322151006     1.183796964354     0.000081015213    12.000000000000
         C            3.096521148994     0.607928064354    -0.000041484787    12.000000000000
         C           -3.257499151006    -0.070041035646     0.000002015213    12.000000000000
         C           -2.439309151006    -1.201162035646    -0.000071984787    12.000000000000
         H            1.617680848994     2.234387964354    -0.000211984787     1.007825032230
         H           -0.756091151006     2.218705964354     0.000158015213     1.007825032230
         H            1.517328848994    -2.111093035646     0.000158015213     1.007825032230
         H            4.106625848994     1.080883964354    -0.000071984787     1.007825032230
         H           -3.245342151006     2.092662964354     0.000145015213     1.007825032230
         H           -4.338867151006    -0.173218035646    -0.000001984787     1.007825032230
         H           -2.874392151006    -2.199555035646    -0.000130984787     1.007825032230

  Basis Set: AUG-CC-PVTZ
    Blend: AUG-CC-PVTZ
  Basis Set: (AUG-CC-PVTZ AUX)
    Blend: AUG-CC-PVTZ-JKFIT
	 Reference Energy          =    -474.3296715551989564 [Eh]
	 Singles Energy            =      -0.0000000000000000 [Eh]
	 Same-Spin Energy          =      -0.5142025443340866 [Eh]
	 Opposite-Spin Energy      =      -1.5561332530569549 [Eh]
	 Correlation Energy        =      -2.0703357973910417 [Eh]
	 Total Energy              =    -476.4000073525900234 [Eh]

	 ================> DF-SCS-MP2 Energies <==================
	-----------------------------------------------------------
	 SCS Same-Spin Scale       =       0.3333333333333333 [-]
	 SCS Opposite-Spin Scale   =       1.2000000000000000 [-]
	 SCS Same-Spin Energy      =      -0.1714008481113622 [Eh]
	 SCS Opposite-Spin Energy  =      -1.8673599036683459 [Eh]
	 SCS Correlation Energy    =      -2.0387607517797082 [Eh]
	 SCS Total Energy          =    -476.3684323069786615 [Eh]
	-----------------------------------------------------------

  Dipole Moment: [D]
     X:    -1.3511      Y:     1.9473      Z:     0.0001     Total:     2.3701

*** Psi4 exiting successfully. Buy a developer a beer!
