                               Psi4 1.3.2 release

  ==> Input File <==

--------------------------------------------------------------------------
#psi4
#
memory 32 gb

molecule  {
0 1
  O        3.0870850    -0.7380670     0.0000600
  N       -1.0742560    -1.1771330    -0.0000800
  C        0.8648422     0.1442077    -0.0000277
  C       -0.4881060     0.0430670    -0.0000040
  C        1.8814630     1.1555170    -0.0001020
  C       -1.2332690     1.2310260     0.0000830
  C        1.7670490    -1.0798270     0.0000780
  C       -2.6240280     1.1598410     0.0000810
  C        3.1400070     0.6275730    -0.0000460
  C       -3.2332050    -0.0939970     0.0000020
  C       -2.4150150    -1.2251180    -0.0000720
  H        1.6419750     2.2104320    -0.0002120
  H       -0.7317970     2.1947500     0.0001580
  H        1.5416230    -2.1350490     0.0001580
  H        4.1309200     1.0569280    -0.0000720
  H       -3.2210480     2.0687070     0.0001450
  H       -4.3145730    -0.1971740    -0.0000020
  H       -2.8500980    -2.2235110    -0.0001310
units angstrom
no_reorient  #important for SAPT in psi4, default
symmetry c1  #important for SAPT in psi4, default
}

set PROPERTIES_ORIGIN ["COM"]
properties('MP2/aug-cc-pvtz', properties = ['dipole'])
--------------------------------------------------------------------------

    Molecular point group: c1
  Charge       = 0
  Multiplicity = 1
  Basis Set: AUG-CC-PVTZ
    Blend: AUG-CC-PVTZ
  Basis Set: (AUG-CC-PVTZ AUX)
    Blend: AUG-CC-PVTZ-JKFIT

    Orbital Energies [Eh]
    ---------------------

    Doubly Occupied:

       1A    -20.643938     2A    -15.563065     3A    -11.320259
       4A    -11.293389     5A    -11.283861     6A    -11.278790
       7A    -11.260668     8A    -11.249422     9A    -11.244942
      10A    -11.238825    11A    -11.237457    12A     -1.465225
      13A     -1.259714    14A     -1.108944    15A     -1.086376
      16A     -1.038333    17A     -0.987091    18A     -0.891544
      19A     -0.863679    20A     -0.788000    21A     -0.781773
      22A     -0.745707    23A     -0.688548    24A     -0.664567
      25A     -0.654848    26A     -0.637756    27A     -0.611514
      28A     -0.594316    29A     -0.576512    30A     -0.571020
      31A     -0.552540    32A     -0.527131    33A     -0.512014
      34A     -0.429962    35A     -0.419265    36A     -0.382989
      37A     -0.350694    38A     -0.277267

  @DF-RHF Final Energy:  -474.29246006967696

   => Energetics <=

    Nuclear Repulsion Energy =            539.6783812754707697
    One-Electron Energy =               -1713.7777920308462853
    Two-Electron Energy =                 699.8069506856986663
    Total Energy =                       -474.2924600696769630
  Basis Set: (AUG-CC-PVTZ AUX)
    Blend: AUG-CC-PVTZ-RI
    Molecular point group: c1

    Geometry (in Angstrom), charge = 0, multiplicity = 1:

       Center              X                  Y                   Z               Mass
    ------------   -----------------  -----------------  -----------------  -----------------
         O            3.070409160915    -0.726050961188     0.000061438144    15.994914619570
         N           -1.090931839085    -1.165116961188    -0.000078561856    14.003074004430
         C            0.848166360915     0.156223738812    -0.000026261856    12.000000000000
         C           -0.504781839085     0.055083038812    -0.000002561856    12.000000000000
         C            1.864787160915     1.167533038812    -0.000100561856    12.000000000000
         C           -1.249944839085     1.243042038812     0.000084438144    12.000000000000
         C            1.750373160915    -1.067810961188     0.000079438144    12.000000000000
         C           -2.640703839085     1.171857038812     0.000082438144    12.000000000000
         C            3.123331160915     0.639589038812    -0.000044561856    12.000000000000
         C           -3.249880839085    -0.081980961188     0.000003438144    12.000000000000
         C           -2.431690839085    -1.213101961188    -0.000070561856    12.000000000000
         H            1.625299160915     2.222448038812    -0.000210561856     1.007825032230
         H           -0.748472839085     2.206766038812     0.000159438144     1.007825032230
         H            1.524947160915    -2.123032961188     0.000159438144     1.007825032230
         H            4.114244160915     1.068944038812    -0.000070561856     1.007825032230
         H           -3.237723839085     2.080723038812     0.000146438144     1.007825032230
         H           -4.331248839085    -0.185157961188    -0.000000561856     1.007825032230
         H           -2.866773839085    -2.211494961188    -0.000129561856     1.007825032230

  Basis Set: AUG-CC-PVTZ
    Blend: AUG-CC-PVTZ
  Basis Set: (AUG-CC-PVTZ AUX)
    Blend: AUG-CC-PVTZ-JKFIT
	 Reference Energy          =    -474.2924600696769630 [Eh]
	 Singles Energy            =      -0.0000000000000000 [Eh]
	 Same-Spin Energy          =      -0.5186237443393527 [Eh]
	 Opposite-Spin Energy      =      -1.5641915622843034 [Eh]
	 Correlation Energy        =      -2.0828153066236563 [Eh]
	 Total Energy              =    -476.3752753763006353 [Eh]

	 ================> DF-SCS-MP2 Energies <==================
	-----------------------------------------------------------
	 SCS Same-Spin Scale       =       0.3333333333333333 [-]
	 SCS Opposite-Spin Scale   =       1.2000000000000000 [-]
	 SCS Same-Spin Energy      =      -0.1728745814464509 [Eh]
	 SCS Opposite-Spin Energy  =      -1.8770298747411640 [Eh]
	 SCS Correlation Energy    =      -2.0499044561876150 [Eh]
	 SCS Total Energy          =    -476.3423645258645820 [Eh]
	-----------------------------------------------------------

  Dipole Moment: [D]
     X:    -1.1608      Y:     2.0394      Z:     0.0001     Total:     2.3466

*** Psi4 exiting successfully. Buy a developer a beer!
