                               Psi4 1.3.2 release

  ==> Input File <==

--------------------------------------------------------------------------
#psi4
#
memory 32 gb

molecule  {
0 1
  O        3.0870850    -0.7380670     0.0000600
  N       -1.0742560    -1.1771330    -0.0000800
  C        0.9761220     0.0434820    -0.0000150
  C       -0.4881060     0.0430670    -0.0000040
  C        1.9927428     1.0547913    -0.0000935
  C       -1.2332690     1.2310260     0.0000830
  C        1.7670490    -1.0798270     0.0000780
  C       -2.6240280     1.1598410     0.0000810
  C        3.1400070     0.6275730    -0.0000460
  C       -3.2332050    -0.0939970     0.0000020
  C       -2.4150150    -1.2251180    -0.0000720
  H        1.6419750     2.2104320    -0.0002120
  H       -0.7317970     2.1947500     0.0001580
  H        1.5416230    -2.1350490     0.0001580
  H        4.1309200     1.0569280    -0.0000720
  H       -3.2210480     2.0687070     0.0001450
  H       -4.3145730    -0.1971740    -0.0000020
  H       -2.8500980    -2.2235110    -0.0001310
units angstrom
no_reorient  #important for SAPT in psi4, default
symmetry c1  #important for SAPT in psi4, default
}

set PROPERTIES_ORIGIN ["COM"]
properties('MP2/aug-cc-pvtz', properties = ['dipole'])
--------------------------------------------------------------------------

    Molecular point group: c1
  Charge       = 0
  Multiplicity = 1
  Basis Set: AUG-CC-PVTZ
    Blend: AUG-CC-PVTZ
  Basis Set: (AUG-CC-PVTZ AUX)
    Blend: AUG-CC-PVTZ-JKFIT

    Orbital Energies [Eh]
    ---------------------

    Doubly Occupied:

       1A    -20.616937     2A    -15.566642     3A    -11.295943
       4A    -11.295571     5A    -11.280370     6A    -11.268932
       7A    -11.263750     8A    -11.243657     9A    -11.241480
      10A    -11.236013    11A    -11.227792    12A     -1.459717
      13A     -1.259438    14A     -1.112824    15A     -1.089275
      16A     -1.050676    17A     -1.004530    18A     -0.877277
      19A     -0.862781    20A     -0.792869    21A     -0.774198
      22A     -0.740929    23A     -0.691310    24A     -0.660993
      25A     -0.649923    26A     -0.640358    27A     -0.606310
      28A     -0.593530    29A     -0.577827    30A     -0.549558
      31A     -0.549099    32A     -0.527343    33A     -0.510735
      34A     -0.427259    35A     -0.422803    36A     -0.387178
      37A     -0.366777    38A     -0.302587

  @DF-RHF Final Energy:  -474.29951436953780

   => Energetics <=

    Nuclear Repulsion Energy =            541.7105733552498350
    One-Electron Energy =               -1717.9697930580250613
    Two-Electron Energy =                 701.9597053332373662
    Total Energy =                       -474.2995143695378601
  Basis Set: (AUG-CC-PVTZ AUX)
    Blend: AUG-CC-PVTZ-RI
    Molecular point group: c1

    Geometry (in Angstrom), charge = 0, multiplicity = 1:

       Center              X                  Y                   Z               Mass
    ------------   -----------------  -----------------  -----------------  -----------------
         O            3.051997135325    -0.709385185674     0.000059684299    15.994914619570
         N           -1.109343864675    -1.148451185674    -0.000080315701    14.003074004430
         C            0.941034135325     0.072163814326    -0.000015315701    12.000000000000
         C           -0.523193864675     0.071748814326    -0.000004315701    12.000000000000
         C            1.957654935325     1.083473114326    -0.000093815701    12.000000000000
         C           -1.268356864675     1.259707814326     0.000082684299    12.000000000000
         C            1.731961135325    -1.051145185674     0.000077684299    12.000000000000
         C           -2.659115864675     1.188522814326     0.000080684299    12.000000000000
         C            3.104919135325     0.656254814326    -0.000046315701    12.000000000000
         C           -3.268292864675    -0.065315185674     0.000001684299    12.000000000000
         C           -2.450102864675    -1.196436185674    -0.000072315701    12.000000000000
         H            1.606887135325     2.239113814326    -0.000212315701     1.007825032230
         H           -0.766884864675     2.223431814326     0.000157684299     1.007825032230
         H            1.506535135325    -2.106367185674     0.000157684299     1.007825032230
         H            4.095832135325     1.085609814326    -0.000072315701     1.007825032230
         H           -3.256135864675     2.097388814326     0.000144684299     1.007825032230
         H           -4.349660864675    -0.168492185674    -0.000002315701     1.007825032230
         H           -2.885185864675    -2.194829185674    -0.000131315701     1.007825032230

  Basis Set: AUG-CC-PVTZ
    Blend: AUG-CC-PVTZ
  Basis Set: (AUG-CC-PVTZ AUX)
    Blend: AUG-CC-PVTZ-JKFIT
	 Reference Energy          =    -474.2995143695378033 [Eh]
	 Singles Energy            =      -0.0000000000000000 [Eh]
	 Same-Spin Energy          =      -0.5128512722401825 [Eh]
	 Opposite-Spin Energy      =      -1.5541822375481635 [Eh]
	 Correlation Energy        =      -2.0670335097883461 [Eh]
	 Total Energy              =    -476.3665478793261627 [Eh]

	 ================> DF-SCS-MP2 Energies <==================
	-----------------------------------------------------------
	 SCS Same-Spin Scale       =       0.3333333333333333 [-]
	 SCS Opposite-Spin Scale   =       1.2000000000000000 [-]
	 SCS Same-Spin Energy      =      -0.1709504240800608 [Eh]
	 SCS Opposite-Spin Energy  =      -1.8650186850577961 [Eh]
	 SCS Correlation Energy    =      -2.0359691091378571 [Eh]
	 SCS Total Energy          =    -476.3354834786756555 [Eh]
	-----------------------------------------------------------

  Dipole Moment: [D]
     X:    -1.4200      Y:     2.0283      Z:     0.0001     Total:     2.4759

*** Psi4 exiting successfully. Buy a developer a beer!
