                               Psi4 1.3.2 release

  ==> Input File <==

--------------------------------------------------------------------------
#psi4
#
memory 32 gb

molecule  {
0 1
  O        3.0870850    -0.7380670     0.0000600
  N       -1.0742560    -1.1771330    -0.0000800
  C        0.9761220     0.0434820    -0.0000150
  C       -0.4845682     0.1452074    -0.0000114
  C        1.8814630     1.1555170    -0.0001020
  C       -1.2332690     1.2310260     0.0000830
  C        1.7670490    -1.0798270     0.0000780
  C       -2.6240280     1.1598410     0.0000810
  C        3.1400070     0.6275730    -0.0000460
  C       -3.2332050    -0.0939970     0.0000020
  C       -2.4150150    -1.2251180    -0.0000720
  H        1.6419750     2.2104320    -0.0002120
  H       -0.7317970     2.1947500     0.0001580
  H        1.5416230    -2.1350490     0.0001580
  H        4.1309200     1.0569280    -0.0000720
  H       -3.2210480     2.0687070     0.0001450
  H       -4.3145730    -0.1971740    -0.0000020
  H       -2.8500980    -2.2235110    -0.0001310
units angstrom
no_reorient  #important for SAPT in psi4, default
symmetry c1  #important for SAPT in psi4, default
}

set PROPERTIES_ORIGIN ["COM"]
properties('MP2/aug-cc-pvtz', properties = ['dipole'])
--------------------------------------------------------------------------

    Molecular point group: c1
  Charge       = 0
  Multiplicity = 1
  Basis Set: AUG-CC-PVTZ
    Blend: AUG-CC-PVTZ
  Basis Set: (AUG-CC-PVTZ AUX)
    Blend: AUG-CC-PVTZ-JKFIT

    Orbital Energies [Eh]
    ---------------------

    Doubly Occupied:

       1A    -20.628056     2A    -15.571085     3A    -11.294130
       4A    -11.291826     5A    -11.287496     6A    -11.279962
       7A    -11.266369     8A    -11.243128     9A    -11.240062
      10A    -11.235976    11A    -11.234444    12A     -1.458143
      13A     -1.241627    14A     -1.106715    15A     -1.089265
      16A     -1.038292    17A     -0.999071    18A     -0.880096
      19A     -0.859010    20A     -0.792289    21A     -0.780199
      22A     -0.744731    23A     -0.685769    24A     -0.661124
      25A     -0.645796    26A     -0.634918    27A     -0.609015
      28A     -0.589526    29A     -0.573441    30A     -0.570961
      31A     -0.544841    32A     -0.539770    33A     -0.508167
      34A     -0.425418    35A     -0.424412    36A     -0.381759
      37A     -0.351966    38A     -0.300281

  @DF-RHF Final Energy:  -474.31614234358369

   => Energetics <=

    Nuclear Repulsion Energy =            539.6283603774090807
    One-Electron Energy =               -1713.8707376645386375
    Two-Electron Energy =                 699.9262349435458646
    Total Energy =                       -474.3161423435836923
  Basis Set: (AUG-CC-PVTZ AUX)
    Blend: AUG-CC-PVTZ-RI
    Molecular point group: c1

    Geometry (in Angstrom), charge = 0, multiplicity = 1:

       Center              X                  Y                   Z               Mass
    ------------   -----------------  -----------------  -----------------  -----------------
         O            3.060910471174    -0.726167997221     0.000060999683    15.994914619570
         N           -1.100430528826    -1.165233997221    -0.000079000317    14.003074004430
         C            0.949947471174     0.055381002779    -0.000014000317    12.000000000000
         C           -0.510742728826     0.157106402779    -0.000010400317    12.000000000000
         C            1.855288471174     1.167416002779    -0.000101000317    12.000000000000
         C           -1.259443528826     1.242925002779     0.000083999683    12.000000000000
         C            1.740874471174    -1.067927997221     0.000078999683    12.000000000000
         C           -2.650202528826     1.171740002779     0.000081999683    12.000000000000
         C            3.113832471174     0.639472002779    -0.000045000317    12.000000000000
         C           -3.259379528826    -0.082097997221     0.000002999683    12.000000000000
         C           -2.441189528826    -1.213218997221    -0.000071000317    12.000000000000
         H            1.615800471174     2.222331002779    -0.000211000317     1.007825032230
         H           -0.757971528826     2.206649002779     0.000158999683     1.007825032230
         H            1.515448471174    -2.123149997221     0.000158999683     1.007825032230
         H            4.104745471174     1.068827002779    -0.000071000317     1.007825032230
         H           -3.247222528826     2.080606002779     0.000145999683     1.007825032230
         H           -4.340747528826    -0.185274997221    -0.000001000317     1.007825032230
         H           -2.876272528826    -2.211611997221    -0.000130000317     1.007825032230

  Basis Set: AUG-CC-PVTZ
    Blend: AUG-CC-PVTZ
  Basis Set: (AUG-CC-PVTZ AUX)
    Blend: AUG-CC-PVTZ-JKFIT
	 Reference Energy          =    -474.3161423435836923 [Eh]
	 Singles Energy            =      -0.0000000000000000 [Eh]
	 Same-Spin Energy          =      -0.5145343488948402 [Eh]
	 Opposite-Spin Energy      =      -1.5593160216968029 [Eh]
	 Correlation Energy        =      -2.0738503705916429 [Eh]
	 Total Energy              =    -476.3899927141753210 [Eh]

	 ================> DF-SCS-MP2 Energies <==================
	-----------------------------------------------------------
	 SCS Same-Spin Scale       =       0.3333333333333333 [-]
	 SCS Opposite-Spin Scale   =       1.2000000000000000 [-]
	 SCS Same-Spin Energy      =      -0.1715114496316134 [Eh]
	 SCS Opposite-Spin Energy  =      -1.8711792260361635 [Eh]
	 SCS Correlation Energy    =      -2.0426906756677767 [Eh]
	 SCS Total Energy          =    -476.3588330192514491 [Eh]
	-----------------------------------------------------------

  Dipole Moment: [D]
     X:    -1.4464      Y:     2.0284      Z:     0.0001     Total:     2.4913

*** Psi4 exiting successfully. Buy a developer a beer!
