                               Psi4 1.3.2 release

  ==> Input File <==

--------------------------------------------------------------------------
#psi4
#
memory 32 gb

molecule  {
0 1
  O        3.0870850    -0.7380670     0.0000600
  N       -1.0742560    -1.1771330    -0.0000800
  C        0.9761220     0.0434820    -0.0000150
  C       -0.4881060     0.0430670    -0.0000040
  C        1.8814630     1.1555170    -0.0001020
  C       -1.2332690     1.2310260     0.0000830
  C        1.7670490    -1.0798270     0.0000780
  C       -2.6240280     1.1598410     0.0000810
  C        3.0779274     0.4989115    -0.0000327
  C       -3.2332050    -0.0939970     0.0000020
  C       -2.4150150    -1.2251180    -0.0000720
  H        1.6419750     2.2104320    -0.0002120
  H       -0.7317970     2.1947500     0.0001580
  H        1.5416230    -2.1350490     0.0001580
  H        4.1309200     1.0569280    -0.0000720
  H       -3.2210480     2.0687070     0.0001450
  H       -4.3145730    -0.1971740    -0.0000020
  H       -2.8500980    -2.2235110    -0.0001310
units angstrom
no_reorient  #important for SAPT in psi4, default
symmetry c1  #important for SAPT in psi4, default
}

set PROPERTIES_ORIGIN ["COM"]
properties('MP2/aug-cc-pvtz', properties = ['dipole'])
--------------------------------------------------------------------------

    Molecular point group: c1
  Charge       = 0
  Multiplicity = 1
  Basis Set: AUG-CC-PVTZ
    Blend: AUG-CC-PVTZ
  Basis Set: (AUG-CC-PVTZ AUX)
    Blend: AUG-CC-PVTZ-JKFIT

    Orbital Energies [Eh]
    ---------------------

    Doubly Occupied:

       1A    -20.645498     2A    -15.566924     3A    -11.299663
       4A    -11.291812     5A    -11.284529     6A    -11.279829
       7A    -11.263964     8A    -11.244993     9A    -11.242812
      10A    -11.242263    11A    -11.225387    12A     -1.524993
      13A     -1.259414    14A     -1.112905    15A     -1.089586
      16A     -1.034138    17A     -1.004333    18A     -0.884115
      19A     -0.864476    20A     -0.807869    21A     -0.771064
      22A     -0.744190    23A     -0.692396    24A     -0.673496
      25A     -0.662202    26A     -0.651029    27A     -0.617224
      28A     -0.592823    29A     -0.576250    30A     -0.562859
      31A     -0.550362    32A     -0.529760    33A     -0.504284
      34A     -0.427824    35A     -0.422591    36A     -0.383897
      37A     -0.342194    38A     -0.300275

  @DF-RHF Final Energy:  -474.30794752202985

   => Energetics <=

    Nuclear Repulsion Energy =            542.9162133442757749
    One-Electron Energy =               -1720.0998737579807312
    Two-Electron Energy =                 702.8757128916751071
    Total Energy =                       -474.3079475220298491
  Basis Set: (AUG-CC-PVTZ AUX)
    Blend: AUG-CC-PVTZ-RI
    Molecular point group: c1

    Geometry (in Angstrom), charge = 0, multiplicity = 1:

       Center              X                  Y                   Z               Mass
    ------------   -----------------  -----------------  -----------------  -----------------
         O            3.066338901347    -0.707074098376     0.000059287202    15.994914619570
         N           -1.095002098653    -1.146140098376    -0.000080712798    14.003074004430
         C            0.955375901347     0.074474901624    -0.000015712798    12.000000000000
         C           -0.508852098653     0.074059901624    -0.000004712798    12.000000000000
         C            1.860716901347     1.186509901624    -0.000102712798    12.000000000000
         C           -1.254015098653     1.262018901624     0.000082287202    12.000000000000
         C            1.746302901347    -1.048834098376     0.000077287202    12.000000000000
         C           -2.644774098653     1.190833901624     0.000080287202    12.000000000000
         C            3.057181301347     0.529904401624    -0.000033412798    12.000000000000
         C           -3.253951098653    -0.063004098376     0.000001287202    12.000000000000
         C           -2.435761098653    -1.194125098376    -0.000072712798    12.000000000000
         H            1.621228901347     2.241424901624    -0.000212712798     1.007825032230
         H           -0.752543098653     2.225742901624     0.000157287202     1.007825032230
         H            1.520876901347    -2.104056098376     0.000157287202     1.007825032230
         H            4.110173901347     1.087920901624    -0.000072712798     1.007825032230
         H           -3.241794098653     2.099699901624     0.000144287202     1.007825032230
         H           -4.335319098653    -0.166181098376    -0.000002712798     1.007825032230
         H           -2.870844098653    -2.192518098376    -0.000131712798     1.007825032230

  Basis Set: AUG-CC-PVTZ
    Blend: AUG-CC-PVTZ
  Basis Set: (AUG-CC-PVTZ AUX)
    Blend: AUG-CC-PVTZ-JKFIT
	 Reference Energy          =    -474.3079475220298491 [Eh]
	 Singles Energy            =      -0.0000000000000000 [Eh]
	 Same-Spin Energy          =      -0.5143366141908210 [Eh]
	 Opposite-Spin Energy      =      -1.5549911041075304 [Eh]
	 Correlation Energy        =      -2.0693277182983514 [Eh]
	 Total Energy              =    -476.3772752403281743 [Eh]

	 ================> DF-SCS-MP2 Energies <==================
	-----------------------------------------------------------
	 SCS Same-Spin Scale       =       0.3333333333333333 [-]
	 SCS Opposite-Spin Scale   =       1.2000000000000000 [-]
	 SCS Same-Spin Energy      =      -0.1714455380636070 [Eh]
	 SCS Opposite-Spin Energy  =      -1.8659893249290365 [Eh]
	 SCS Correlation Energy    =      -2.0374348629926433 [Eh]
	 SCS Total Energy          =    -476.3453823850225035 [Eh]
	-----------------------------------------------------------

  Dipole Moment: [D]
     X:    -1.4030      Y:     1.7761      Z:     0.0001     Total:     2.2634

*** Psi4 exiting successfully. Buy a developer a beer!
