                               Psi4 1.3.2 release

  ==> Input File <==

--------------------------------------------------------------------------
#psi4
#
memory 32 gb

molecule  {
0 1
  O        3.0870850    -0.7380670     0.0000600
  N       -1.0742560    -1.1771330    -0.0000800
  C        0.9761220     0.0434820    -0.0000150
  C       -0.4881060     0.0430670    -0.0000040
  C        1.8477012     1.0664394    -0.0000949
  C       -1.2332690     1.2310260     0.0000830
  C        1.7670490    -1.0798270     0.0000780
  C       -2.6240280     1.1598410     0.0000810
  C        3.1400070     0.6275730    -0.0000460
  C       -3.2332050    -0.0939970     0.0000020
  C       -2.4150150    -1.2251180    -0.0000720
  H        1.6419750     2.2104320    -0.0002120
  H       -0.7317970     2.1947500     0.0001580
  H        1.5416230    -2.1350490     0.0001580
  H        4.1309200     1.0569280    -0.0000720
  H       -3.2210480     2.0687070     0.0001450
  H       -4.3145730    -0.1971740    -0.0000020
  H       -2.8500980    -2.2235110    -0.0001310
units angstrom
no_reorient  #important for SAPT in psi4, default
symmetry c1  #important for SAPT in psi4, default
}

set PROPERTIES_ORIGIN ["COM"]
properties('MP2/aug-cc-pvtz', properties = ['dipole'])
--------------------------------------------------------------------------

    Molecular point group: c1
  Charge       = 0
  Multiplicity = 1
  Basis Set: AUG-CC-PVTZ
    Blend: AUG-CC-PVTZ
  Basis Set: (AUG-CC-PVTZ AUX)
    Blend: AUG-CC-PVTZ-JKFIT

    Orbital Energies [Eh]
    ---------------------

    Doubly Occupied:

       1A    -20.629122     2A    -15.566953     3A    -11.293537
       4A    -11.293490     5A    -11.288304     6A    -11.280137
       7A    -11.263934     8A    -11.244080     9A    -11.242131
      10A    -11.235712    11A    -11.231508    12A     -1.460703
      13A     -1.259822    14A     -1.120623    15A     -1.089507
      16A     -1.035307    17A     -0.997464    18A     -0.876500
      19A     -0.864498    20A     -0.788837    21A     -0.784995
      22A     -0.743537    23A     -0.690320    24A     -0.661910
      25A     -0.646581    26A     -0.637389    27A     -0.607614
      28A     -0.592388    29A     -0.578091    30A     -0.550041
      31A     -0.545161    32A     -0.543281    33A     -0.524041
      34A     -0.433383    35A     -0.422927    36A     -0.384867
      37A     -0.347292    38A     -0.296894

  @DF-RHF Final Energy:  -474.31656917867622

   => Energetics <=

    Nuclear Repulsion Energy =            541.7419507498231042
    One-Electron Energy =               -1718.0112800548713494
    Two-Electron Energy =                 701.9527601263721408
    Total Energy =                       -474.3165691786762181
  Basis Set: (AUG-CC-PVTZ AUX)
    Blend: AUG-CC-PVTZ-RI
    Molecular point group: c1

    Geometry (in Angstrom), charge = 0, multiplicity = 1:

       Center              X                  Y                   Z               Mass
    ------------   -----------------  -----------------  -----------------  -----------------
         O            3.063996211756    -0.710348815710     0.000059800119    15.994914619570
         N           -1.097344788244    -1.149414815710    -0.000080199881    14.003074004430
         C            0.953033211756     0.071200184290    -0.000015199881    12.000000000000
         C           -0.511194788244     0.070785184290    -0.000004199881    12.000000000000
         C            1.824612411756     1.094157584290    -0.000095099881    12.000000000000
         C           -1.256357788244     1.258744184290     0.000082800119    12.000000000000
         C            1.743960211756    -1.052108815710     0.000077800119    12.000000000000
         C           -2.647116788244     1.187559184290     0.000080800119    12.000000000000
         C            3.116918211756     0.655291184290    -0.000046199881    12.000000000000
         C           -3.256293788244    -0.066278815710     0.000001800119    12.000000000000
         C           -2.438103788244    -1.197399815710    -0.000072199881    12.000000000000
         H            1.618886211756     2.238150184290    -0.000212199881     1.007825032230
         H           -0.754885788244     2.222468184290     0.000157800119     1.007825032230
         H            1.518534211756    -2.107330815710     0.000157800119     1.007825032230
         H            4.107831211756     1.084646184290    -0.000072199881     1.007825032230
         H           -3.244136788244     2.096425184290     0.000144800119     1.007825032230
         H           -4.337661788244    -0.169455815710    -0.000002199881     1.007825032230
         H           -2.873186788244    -2.195792815710    -0.000131199881     1.007825032230

  Basis Set: AUG-CC-PVTZ
    Blend: AUG-CC-PVTZ
  Basis Set: (AUG-CC-PVTZ AUX)
    Blend: AUG-CC-PVTZ-JKFIT
	 Reference Energy          =    -474.3165691786762181 [Eh]
	 Singles Energy            =      -0.0000000000000000 [Eh]
	 Same-Spin Energy          =      -0.5160283277793752 [Eh]
	 Opposite-Spin Energy      =      -1.5587540111513727 [Eh]
	 Correlation Energy        =      -2.0747823389307478 [Eh]
	 Total Energy              =    -476.3913515176069495 [Eh]

	 ================> DF-SCS-MP2 Energies <==================
	-----------------------------------------------------------
	 SCS Same-Spin Scale       =       0.3333333333333333 [-]
	 SCS Opposite-Spin Scale   =       1.2000000000000000 [-]
	 SCS Same-Spin Energy      =      -0.1720094425931251 [Eh]
	 SCS Opposite-Spin Energy  =      -1.8705048133816471 [Eh]
	 SCS Correlation Energy    =      -2.0425142559747722 [Eh]
	 SCS Total Energy          =    -476.3590834346509837 [Eh]
	-----------------------------------------------------------

  Dipole Moment: [D]
     X:    -1.4006      Y:     1.9950      Z:     0.0001     Total:     2.4375

*** Psi4 exiting successfully. Buy a developer a beer!
