                               Psi4 1.3.2 release

  ==> Input File <==

--------------------------------------------------------------------------
#psi4
#
memory 32 gb

molecule  {
0 1
  O        3.0870850    -0.7380670     0.0000600
  N       -1.0742560    -1.1771330    -0.0000800
  C        1.0973209    -0.0450601    -0.0000064
  C       -0.4881060     0.0430670    -0.0000040
  C        1.8814630     1.1555170    -0.0001020
  C       -1.2332690     1.2310260     0.0000830
  C        1.7670490    -1.0798270     0.0000780
  C       -2.6240280     1.1598410     0.0000810
  C        3.1400070     0.6275730    -0.0000460
  C       -3.2332050    -0.0939970     0.0000020
  C       -2.4150150    -1.2251180    -0.0000720
  H        1.6419750     2.2104320    -0.0002120
  H       -0.7317970     2.1947500     0.0001580
  H        1.5416230    -2.1350490     0.0001580
  H        4.1309200     1.0569280    -0.0000720
  H       -3.2210480     2.0687070     0.0001450
  H       -4.3145730    -0.1971740    -0.0000020
  H       -2.8500980    -2.2235110    -0.0001310
units angstrom
no_reorient  #important for SAPT in psi4, default
symmetry c1  #important for SAPT in psi4, default
}

set PROPERTIES_ORIGIN ["COM"]
properties('MP2/aug-cc-pvtz', properties = ['dipole'])
--------------------------------------------------------------------------

    Molecular point group: c1
  Charge       = 0
  Multiplicity = 1
  Basis Set: AUG-CC-PVTZ
    Blend: AUG-CC-PVTZ
  Basis Set: (AUG-CC-PVTZ AUX)
    Blend: AUG-CC-PVTZ-JKFIT

    Orbital Energies [Eh]
    ---------------------

    Doubly Occupied:

       1A    -20.614997     2A    -15.566274     3A    -11.297738
       4A    -11.294472     5A    -11.279079     6A    -11.265806
       7A    -11.264522     8A    -11.246145     9A    -11.242577
      10A    -11.232998    11A    -11.227373    12A     -1.457456
      13A     -1.256407    14A     -1.110457    15A     -1.089180
      16A     -1.030935    17A     -1.013938    18A     -0.862411
      19A     -0.861007    20A     -0.807490    21A     -0.770246
      22A     -0.743003    23A     -0.685198    24A     -0.661254
      25A     -0.642398    26A     -0.638316    27A     -0.603988
      28A     -0.594612    29A     -0.580389    30A     -0.561605
      31A     -0.545582    32A     -0.541636    33A     -0.499519
      34A     -0.424592    35A     -0.420486    36A     -0.383896
      37A     -0.347766    38A     -0.321575

  @DF-RHF Final Energy:  -474.30368821949435

   => Energetics <=

    Nuclear Repulsion Energy =            540.4596370384927013
    One-Electron Energy =               -1715.5520030675879752
    Two-Electron Energy =                 700.7886778096009266
    Total Energy =                       -474.3036882194943473
  Basis Set: (AUG-CC-PVTZ AUX)
    Blend: AUG-CC-PVTZ-RI
    Molecular point group: c1

    Geometry (in Angstrom), charge = 0, multiplicity = 1:

       Center              X                  Y                   Z               Mass
    ------------   -----------------  -----------------  -----------------  -----------------
         O            3.051176542894    -0.710393116830     0.000059676026    15.994914619570
         N           -1.110164457106    -1.149459116830    -0.000080323974    14.003074004430
         C            1.061412442894    -0.017386216830    -0.000006723974    12.000000000000
         C           -0.524014457106     0.070740883170    -0.000004323974    12.000000000000
         C            1.845554542894     1.183190883170    -0.000102323974    12.000000000000
         C           -1.269177457106     1.258699883170     0.000082676026    12.000000000000
         C            1.731140542894    -1.052153116830     0.000077676026    12.000000000000
         C           -2.659936457106     1.187514883170     0.000080676026    12.000000000000
         C            3.104098542894     0.655246883170    -0.000046323974    12.000000000000
         C           -3.269113457106    -0.066323116830     0.000001676026    12.000000000000
         C           -2.450923457106    -1.197444116830    -0.000072323974    12.000000000000
         H            1.606066542894     2.238105883170    -0.000212323974     1.007825032230
         H           -0.767705457106     2.222423883170     0.000157676026     1.007825032230
         H            1.505714542894    -2.107375116830     0.000157676026     1.007825032230
         H            4.095011542894     1.084601883170    -0.000072323974     1.007825032230
         H           -3.256956457106     2.096380883170     0.000144676026     1.007825032230
         H           -4.350481457106    -0.169500116830    -0.000002323974     1.007825032230
         H           -2.886006457106    -2.195837116830    -0.000131323974     1.007825032230

  Basis Set: AUG-CC-PVTZ
    Blend: AUG-CC-PVTZ
  Basis Set: (AUG-CC-PVTZ AUX)
    Blend: AUG-CC-PVTZ-JKFIT
	 Reference Energy          =    -474.3036882194943473 [Eh]
	 Singles Energy            =      -0.0000000000000000 [Eh]
	 Same-Spin Energy          =      -0.5116711925294186 [Eh]
	 Opposite-Spin Energy      =      -1.5530080045293051 [Eh]
	 Correlation Energy        =      -2.0646791970587239 [Eh]
	 Total Energy              =    -476.3683674165530988 [Eh]

	 ================> DF-SCS-MP2 Energies <==================
	-----------------------------------------------------------
	 SCS Same-Spin Scale       =       0.3333333333333333 [-]
	 SCS Opposite-Spin Scale   =       1.2000000000000000 [-]
	 SCS Same-Spin Energy      =      -0.1705570641764729 [Eh]
	 SCS Opposite-Spin Energy  =      -1.8636096054351661 [Eh]
	 SCS Correlation Energy    =      -2.0341666696116389 [Eh]
	 SCS Total Energy          =    -476.3378548891059836 [Eh]
	-----------------------------------------------------------

  Dipole Moment: [D]
     X:    -1.5365      Y:     2.0606      Z:     0.0001     Total:     2.5704

*** Psi4 exiting successfully. Buy a developer a beer!
