                               Psi4 1.3.2 release

  ==> Input File <==

--------------------------------------------------------------------------
#psi4
#
memory 32 gb

molecule  {
0 1
  O        3.0870850    -0.7380670     0.0000600
  N       -0.9877113    -1.2150484    -0.0000834
  C        0.9761220     0.0434820    -0.0000150
  C       -0.4881060     0.0430670    -0.0000040
  C        1.8814630     1.1555170    -0.0001020
  C       -1.2332690     1.2310260     0.0000830
  C        1.7670490    -1.0798270     0.0000780
  C       -2.6240280     1.1598410     0.0000810
  C        3.1400070     0.6275730    -0.0000460
  C       -3.2332050    -0.0939970     0.0000020
  C       -2.4150150    -1.2251180    -0.0000720
  H        1.6419750     2.2104320    -0.0002120
  H       -0.7317970     2.1947500     0.0001580
  H        1.5416230    -2.1350490     0.0001580
  H        4.1309200     1.0569280    -0.0000720
  H       -3.2210480     2.0687070     0.0001450
  H       -4.3145730    -0.1971740    -0.0000020
  H       -2.8500980    -2.2235110    -0.0001310
units angstrom
no_reorient  #important for SAPT in psi4, default
symmetry c1  #important for SAPT in psi4, default
}

set PROPERTIES_ORIGIN ["COM"]
properties('MP2/aug-cc-pvtz', properties = ['dipole'])
--------------------------------------------------------------------------

    Molecular point group: c1
  Charge       = 0
  Multiplicity = 1
  Basis Set: AUG-CC-PVTZ
    Blend: AUG-CC-PVTZ
  Basis Set: (AUG-CC-PVTZ AUX)
    Blend: AUG-CC-PVTZ-JKFIT

    Orbital Energies [Eh]
    ---------------------

    Doubly Occupied:

       1A    -20.627251     2A    -15.576861     3A    -11.292878
       4A    -11.291928     5A    -11.291533     6A    -11.289164
       7A    -11.267588     8A    -11.245140     9A    -11.244590
      10A    -11.236263    11A    -11.235178    12A     -1.457353
      13A     -1.244015    14A     -1.103565    15A     -1.088636
      16A     -1.030208    17A     -0.997071    18A     -0.874751
      19A     -0.863516    20A     -0.793148    21A     -0.773878
      22A     -0.742467    23A     -0.686338    24A     -0.657649
      25A     -0.646663    26A     -0.634166    27A     -0.605031
      28A     -0.584608    29A     -0.573492    30A     -0.571372
      31A     -0.542653    32A     -0.537012    33A     -0.510955
      34A     -0.437029    35A     -0.424556    36A     -0.379041
      37A     -0.347279    38A     -0.299949

  @DF-RHF Final Energy:  -474.31805239010248

   => Energetics <=

    Nuclear Repulsion Energy =            538.8370085034233625
    One-Electron Energy =               -1712.3005725327927848
    Two-Electron Energy =                 699.1455116392670561
    Total Energy =                       -474.3180523901024799
  Basis Set: (AUG-CC-PVTZ AUX)
    Blend: AUG-CC-PVTZ-RI
    Molecular point group: c1

    Geometry (in Angstrom), charge = 0, multiplicity = 1:

       Center              X                  Y                   Z               Mass
    ------------   -----------------  -----------------  -----------------  -----------------
         O            3.052848313599    -0.714057804312     0.000060715720    15.994914619570
         N           -1.021947986401    -1.191039204312    -0.000082684280    14.003074004430
         C            0.941885313599     0.067491195688    -0.000014284280    12.000000000000
         C           -0.522342686401     0.067076195688    -0.000003284280    12.000000000000
         C            1.847226313599     1.179526195688    -0.000101284280    12.000000000000
         C           -1.267505686401     1.255035195688     0.000083715720    12.000000000000
         C            1.732812313599    -1.055817804312     0.000078715720    12.000000000000
         C           -2.658264686401     1.183850195688     0.000081715720    12.000000000000
         C            3.105770313599     0.651582195688    -0.000045284280    12.000000000000
         C           -3.267441686401    -0.069987804312     0.000002715720    12.000000000000
         C           -2.449251686401    -1.201108804312    -0.000071284280    12.000000000000
         H            1.607738313599     2.234441195688    -0.000211284280     1.007825032230
         H           -0.766033686401     2.218759195688     0.000158715720     1.007825032230
         H            1.507386313599    -2.111039804312     0.000158715720     1.007825032230
         H            4.096683313599     1.080937195688    -0.000071284280     1.007825032230
         H           -3.255284686401     2.092716195688     0.000145715720     1.007825032230
         H           -4.348809686401    -0.173164804312    -0.000001284280     1.007825032230
         H           -2.884334686401    -2.199501804312    -0.000130284280     1.007825032230

  Basis Set: AUG-CC-PVTZ
    Blend: AUG-CC-PVTZ
  Basis Set: (AUG-CC-PVTZ AUX)
    Blend: AUG-CC-PVTZ-JKFIT
	 Reference Energy          =    -474.3180523901024799 [Eh]
	 Singles Energy            =      -0.0000000000000000 [Eh]
	 Same-Spin Energy          =      -0.5151872026081866 [Eh]
	 Opposite-Spin Energy      =      -1.5605067869274438 [Eh]
	 Correlation Energy        =      -2.0756939895356306 [Eh]
	 Total Energy              =    -476.3937463796381167 [Eh]

	 ================> DF-SCS-MP2 Energies <==================
	-----------------------------------------------------------
	 SCS Same-Spin Scale       =       0.3333333333333333 [-]
	 SCS Opposite-Spin Scale   =       1.2000000000000000 [-]
	 SCS Same-Spin Energy      =      -0.1717290675360622 [Eh]
	 SCS Opposite-Spin Energy  =      -1.8726081443129325 [Eh]
	 SCS Correlation Energy    =      -2.0443372118489949 [Eh]
	 SCS Total Energy          =    -476.3623896019514632 [Eh]
	-----------------------------------------------------------

  Dipole Moment: [D]
     X:    -1.5508      Y:     2.1018      Z:     0.0001     Total:     2.6120

*** Psi4 exiting successfully. Buy a developer a beer!
