                               Psi4 1.3.2 release

  ==> Input File <==

--------------------------------------------------------------------------
#psi4
#
memory 32 gb

molecule  {
0 1
  O        3.0870850    -0.7380670     0.0000600
  N       -1.1164833    -1.1559333    -0.0000782
  C        0.9761220     0.0434820    -0.0000150
  C       -0.4881060     0.0430670    -0.0000040
  C        1.8814630     1.1555170    -0.0001020
  C       -1.2332690     1.2310260     0.0000830
  C        1.7670490    -1.0798270     0.0000780
  C       -2.6240280     1.1598410     0.0000810
  C        3.1400070     0.6275730    -0.0000460
  C       -3.2332050    -0.0939970     0.0000020
  C       -2.4150150    -1.2251180    -0.0000720
  H        1.6419750     2.2104320    -0.0002120
  H       -0.7317970     2.1947500     0.0001580
  H        1.5416230    -2.1350490     0.0001580
  H        4.1309200     1.0569280    -0.0000720
  H       -3.2210480     2.0687070     0.0001450
  H       -4.3145730    -0.1971740    -0.0000020
  H       -2.8500980    -2.2235110    -0.0001310
units angstrom
no_reorient  #important for SAPT in psi4, default
symmetry c1  #important for SAPT in psi4, default
}

set PROPERTIES_ORIGIN ["COM"]
properties('MP2/aug-cc-pvtz', properties = ['dipole'])
--------------------------------------------------------------------------

    Molecular point group: c1
  Charge       = 0
  Multiplicity = 1
  Basis Set: AUG-CC-PVTZ
    Blend: AUG-CC-PVTZ
  Basis Set: (AUG-CC-PVTZ AUX)
    Blend: AUG-CC-PVTZ-JKFIT

    Orbital Energies [Eh]
    ---------------------

    Doubly Occupied:

       1A    -20.629287     2A    -15.559661     3A    -11.294645
       4A    -11.294220     5A    -11.292231     6A    -11.274163
       7A    -11.261195     8A    -11.242646     9A    -11.240691
      10A    -11.239341    11A    -11.238209    12A     -1.459594
      13A     -1.267499    14A     -1.107715    15A     -1.087667
      16A     -1.035737    17A     -0.998782    18A     -0.877507
      19A     -0.861624    20A     -0.797851    21A     -0.779353
      22A     -0.746329    23A     -0.688516    24A     -0.664569
      25A     -0.646004    26A     -0.636402    27A     -0.607913
      28A     -0.586522    29A     -0.576140    30A     -0.571956
      31A     -0.552927    32A     -0.538737    33A     -0.524352
      34A     -0.425256    35A     -0.412979    36A     -0.386444
      37A     -0.349233    38A     -0.298423

  @DF-RHF Final Energy:  -474.33178503908221

   => Energetics <=

    Nuclear Repulsion Energy =            540.4794142589455532
    One-Electron Energy =               -1715.5177598725194912
    Two-Electron Energy =                 700.7065605744917320
    Total Energy =                       -474.3317850390822059
  Basis Set: (AUG-CC-PVTZ AUX)
    Blend: AUG-CC-PVTZ-RI
    Molecular point group: c1

    Geometry (in Angstrom), charge = 0, multiplicity = 1:

       Center              X                  Y                   Z               Mass
    ------------   -----------------  -----------------  -----------------  -----------------
         O            3.065279678558    -0.719764645727     0.000060213724    15.994914619570
         N           -1.138288621442    -1.137630945727    -0.000077986276    14.003074004430
         C            0.954316678558     0.061784354273    -0.000014786276    12.000000000000
         C           -0.509911321442     0.061369354273    -0.000003786276    12.000000000000
         C            1.859657678558     1.173819354273    -0.000101786276    12.000000000000
         C           -1.255074321442     1.249328354273     0.000083213724    12.000000000000
         C            1.745243678558    -1.061524645727     0.000078213724    12.000000000000
         C           -2.645833321442     1.178143354273     0.000081213724    12.000000000000
         C            3.118201678558     0.645875354273    -0.000045786276    12.000000000000
         C           -3.255010321442    -0.075694645727     0.000002213724    12.000000000000
         C           -2.436820321442    -1.206815645727    -0.000071786276    12.000000000000
         H            1.620169678558     2.228734354273    -0.000211786276     1.007825032230
         H           -0.753602321442     2.213052354273     0.000158213724     1.007825032230
         H            1.519817678558    -2.116746645727     0.000158213724     1.007825032230
         H            4.109114678558     1.075230354273    -0.000071786276     1.007825032230
         H           -3.242853321442     2.087009354273     0.000145213724     1.007825032230
         H           -4.336378321442    -0.178871645727    -0.000001786276     1.007825032230
         H           -2.871903321442    -2.205208645727    -0.000130786276     1.007825032230

  Basis Set: AUG-CC-PVTZ
    Blend: AUG-CC-PVTZ
  Basis Set: (AUG-CC-PVTZ AUX)
    Blend: AUG-CC-PVTZ-JKFIT
	 Reference Energy          =    -474.3317850390822059 [Eh]
	 Singles Energy            =      -0.0000000000000000 [Eh]
	 Same-Spin Energy          =      -0.5138005959873330 [Eh]
	 Opposite-Spin Energy      =      -1.5555883746113641 [Eh]
	 Correlation Energy        =      -2.0693889705986970 [Eh]
	 Total Energy              =    -476.4011740096809149 [Eh]

	 ================> DF-SCS-MP2 Energies <==================
	-----------------------------------------------------------
	 SCS Same-Spin Scale       =       0.3333333333333333 [-]
	 SCS Opposite-Spin Scale   =       1.2000000000000000 [-]
	 SCS Same-Spin Energy      =      -0.1712668653291110 [Eh]
	 SCS Opposite-Spin Energy  =      -1.8667060495336369 [Eh]
	 SCS Correlation Energy    =      -2.0379729148627481 [Eh]
	 SCS Total Energy          =    -476.3697579539449407 [Eh]
	-----------------------------------------------------------

  Dipole Moment: [D]
     X:    -1.2256      Y:     1.9738      Z:     0.0001     Total:     2.3234

*** Psi4 exiting successfully. Buy a developer a beer!
