                               Psi4 1.3.2 release

  ==> Input File <==

--------------------------------------------------------------------------
#psi4
#
memory 32 gb

molecule  {
0 1
  O        3.0870850    -0.7380670     0.0000600
  N       -1.0742560    -1.1771330    -0.0000800
  C        0.9761220     0.0434820    -0.0000150
  C       -0.4881060     0.0430670    -0.0000040
  C        1.8814630     1.1555170    -0.0001020
  C       -1.2332690     1.2310260     0.0000830
  C        1.7670490    -1.0798270     0.0000780
  C       -2.6240280     1.1598410     0.0000810
  C        3.1400070     0.6275730    -0.0000460
  C       -3.2332050    -0.0939970     0.0000020
  C       -2.4150150    -1.2251180    -0.0000720
  H        1.6419750     2.2104320    -0.0002120
  H       -0.7317970     2.1947500     0.0001580
  H        1.5207315    -2.2328424     0.0001654
  H        4.1309200     1.0569280    -0.0000720
  H       -3.2210480     2.0687070     0.0001450
  H       -4.3145730    -0.1971740    -0.0000020
  H       -2.8500980    -2.2235110    -0.0001310
units angstrom
no_reorient  #important for SAPT in psi4, default
symmetry c1  #important for SAPT in psi4, default
}

set PROPERTIES_ORIGIN ["COM"]
properties('MP2/aug-cc-pvtz', properties = ['dipole'])
--------------------------------------------------------------------------

    Molecular point group: c1
  Charge       = 0
  Multiplicity = 1
  Basis Set: AUG-CC-PVTZ
    Blend: AUG-CC-PVTZ
  Basis Set: (AUG-CC-PVTZ AUX)
    Blend: AUG-CC-PVTZ-JKFIT

    Orbital Energies [Eh]
    ---------------------

    Doubly Occupied:

       1A    -20.629292     2A    -15.565382     3A    -11.303800
       4A    -11.293450     5A    -11.292215     6A    -11.279318
       7A    -11.263238     8A    -11.243277     9A    -11.240959
      10A    -11.239561    11A    -11.237651    12A     -1.459328
      13A     -1.258407    14A     -1.105722    15A     -1.088464
      16A     -1.033602    17A     -0.995011    18A     -0.874622
      19A     -0.863279    20A     -0.796254    21A     -0.770833
      22A     -0.738633    23A     -0.686394    24A     -0.662169
      25A     -0.645829    26A     -0.636071    27A     -0.598872
      28A     -0.583889    29A     -0.572606    30A     -0.571016
      31A     -0.548775    32A     -0.534402    33A     -0.520377
      34A     -0.424843    35A     -0.421465    36A     -0.383695
      37A     -0.348807    38A     -0.298956

  @DF-RHF Final Energy:  -474.32320828385639

   => Energetics <=

    Nuclear Repulsion Energy =            539.3884276236658479
    One-Electron Energy =               -1713.4023401640556585
    Two-Electron Energy =                 699.6907042565334223
    Total Energy =                       -474.3232082838563883
  Basis Set: (AUG-CC-PVTZ AUX)
    Blend: AUG-CC-PVTZ-RI
    Molecular point group: c1

    Geometry (in Angstrom), charge = 0, multiplicity = 1:

       Center              X                  Y                   Z               Mass
    ------------   -----------------  -----------------  -----------------  -----------------
         O            3.061348302036    -0.717038605947     0.000060336077    15.994914619570
         N           -1.099992697964    -1.156104605947    -0.000079663923    14.003074004430
         C            0.950385302036     0.064510394053    -0.000014663923    12.000000000000
         C           -0.513842697964     0.064095394053    -0.000003663923    12.000000000000
         C            1.855726302036     1.176545394053    -0.000101663923    12.000000000000
         C           -1.259005697964     1.252054394053     0.000083336077    12.000000000000
         C            1.741312302036    -1.058798605947     0.000078336077    12.000000000000
         C           -2.649764697964     1.180869394053     0.000081336077    12.000000000000
         C            3.114270302036     0.648601394053    -0.000045663923    12.000000000000
         C           -3.258941697964    -0.072968605947     0.000002336077    12.000000000000
         C           -2.440751697964    -1.204089605947    -0.000071663923    12.000000000000
         H            1.616238302036     2.231460394053    -0.000211663923     1.007825032230
         H           -0.757533697964     2.215778394053     0.000158336077     1.007825032230
         H            1.494994802036    -2.211814005947     0.000165736077     1.007825032230
         H            4.105183302036     1.077956394053    -0.000071663923     1.007825032230
         H           -3.246784697964     2.089735394053     0.000145336077     1.007825032230
         H           -4.340309697964    -0.176145605947    -0.000001663923     1.007825032230
         H           -2.875834697964    -2.202482605947    -0.000130663923     1.007825032230

  Basis Set: AUG-CC-PVTZ
    Blend: AUG-CC-PVTZ
  Basis Set: (AUG-CC-PVTZ AUX)
    Blend: AUG-CC-PVTZ-JKFIT
	 Reference Energy          =    -474.3232082838563883 [Eh]
	 Singles Energy            =      -0.0000000000000000 [Eh]
	 Same-Spin Energy          =      -0.5145343269491477 [Eh]
	 Opposite-Spin Energy      =      -1.5580446167228916 [Eh]
	 Correlation Energy        =      -2.0725789436720392 [Eh]
	 Total Energy              =    -476.3957872275284444 [Eh]

	 ================> DF-SCS-MP2 Energies <==================
	-----------------------------------------------------------
	 SCS Same-Spin Scale       =       0.3333333333333333 [-]
	 SCS Opposite-Spin Scale   =       1.2000000000000000 [-]
	 SCS Same-Spin Energy      =      -0.1715114423163825 [Eh]
	 SCS Opposite-Spin Energy  =      -1.8696535400674699 [Eh]
	 SCS Correlation Energy    =      -2.0411649823838522 [Eh]
	 SCS Total Energy          =    -476.3643732662402499 [Eh]
	-----------------------------------------------------------

  Dipole Moment: [D]
     X:    -1.3408      Y:     1.9923      Z:     0.0001     Total:     2.4015

*** Psi4 exiting successfully. Buy a developer a beer!
