                               Psi4 1.3.2 release

  ==> Input File <==

--------------------------------------------------------------------------
#psi4
#
memory 32 gb

molecule  {
0 1
  O        3.0870850    -0.7380670     0.0000600
  N       -1.0742560    -1.1771330    -0.0000800
  C        0.9761220     0.0434820    -0.0000150
  C       -0.4881060     0.0430670    -0.0000040
  C        1.8183276     1.0779675    -0.0000959
  C       -1.2332690     1.2310260     0.0000830
  C        1.7670490    -1.0798270     0.0000780
  C       -2.6240280     1.1598410     0.0000810
  C        3.1400070     0.6275730    -0.0000460
  C       -3.2332050    -0.0939970     0.0000020
  C       -2.4150150    -1.2251180    -0.0000720
  H        1.6419750     2.2104320    -0.0002120
  H       -0.7317970     2.1947500     0.0001580
  H        1.5416230    -2.1350490     0.0001580
  H        4.1309200     1.0569280    -0.0000720
  H       -3.2210480     2.0687070     0.0001450
  H       -4.3145730    -0.1971740    -0.0000020
  H       -2.8500980    -2.2235110    -0.0001310
units angstrom
no_reorient  #important for SAPT in psi4, default
symmetry c1  #important for SAPT in psi4, default
}

set PROPERTIES_ORIGIN ["COM"]
properties('MP2/aug-cc-pvtz', properties = ['dipole'])
--------------------------------------------------------------------------

    Molecular point group: c1
  Charge       = 0
  Multiplicity = 1
  Basis Set: AUG-CC-PVTZ
    Blend: AUG-CC-PVTZ
  Basis Set: (AUG-CC-PVTZ AUX)
    Blend: AUG-CC-PVTZ-JKFIT

    Orbital Energies [Eh]
    ---------------------

    Doubly Occupied:

       1A    -20.632005     2A    -15.566836     3A    -11.292858
       4A    -11.292850     5A    -11.292476     6A    -11.279978
       7A    -11.263893     8A    -11.244066     9A    -11.242124
      10A    -11.237401    11A    -11.231399    12A     -1.460911
      13A     -1.259760    14A     -1.121616    15A     -1.089472
      16A     -1.033225    17A     -0.995221    18A     -0.876088
      19A     -0.864790    20A     -0.791900    21A     -0.783249
      22A     -0.744054    23A     -0.689791    24A     -0.662113
      25A     -0.645746    26A     -0.636819    27A     -0.608419
      28A     -0.592872    29A     -0.578564    30A     -0.550126
      31A     -0.550046    32A     -0.541340    33A     -0.523781
      34A     -0.434409    35A     -0.422801    36A     -0.384664
      37A     -0.344309    38A     -0.294910

  @DF-RHF Final Energy:  -474.31424506616747

   => Energetics <=

    Nuclear Repulsion Energy =            541.6061508824543580
    One-Electron Energy =               -1717.7270266336913664
    Two-Electron Energy =                 701.8066306850695355
    Total Energy =                       -474.3142450661674729
  Basis Set: (AUG-CC-PVTZ AUX)
    Blend: AUG-CC-PVTZ-RI
    Molecular point group: c1

    Geometry (in Angstrom), charge = 0, multiplicity = 1:

       Center              X                  Y                   Z               Mass
    ------------   -----------------  -----------------  -----------------  -----------------
         O            3.066426246115    -0.711302518323     0.000059882848    15.994914619570
         N           -1.094914753885    -1.150368518323    -0.000080117152    14.003074004430
         C            0.955463246115     0.070246481677    -0.000015117152    12.000000000000
         C           -0.508764753885     0.069831481677    -0.000004117152    12.000000000000
         C            1.797668846115     1.104731981677    -0.000096017152    12.000000000000
         C           -1.253927753885     1.257790481677     0.000082882848    12.000000000000
         C            1.746390246115    -1.053062518323     0.000077882848    12.000000000000
         C           -2.644686753885     1.186605481677     0.000080882848    12.000000000000
         C            3.119348246115     0.654337481677    -0.000046117152    12.000000000000
         C           -3.253863753885    -0.067232518323     0.000001882848    12.000000000000
         C           -2.435673753885    -1.198353518323    -0.000072117152    12.000000000000
         H            1.621316246115     2.237196481677    -0.000212117152     1.007825032230
         H           -0.752455753885     2.221514481677     0.000157882848     1.007825032230
         H            1.520964246115    -2.108284518323     0.000157882848     1.007825032230
         H            4.110261246115     1.083692481677    -0.000072117152     1.007825032230
         H           -3.241706753885     2.095471481677     0.000144882848     1.007825032230
         H           -4.335231753885    -0.170409518323    -0.000002117152     1.007825032230
         H           -2.870756753885    -2.196746518323    -0.000131117152     1.007825032230

  Basis Set: AUG-CC-PVTZ
    Blend: AUG-CC-PVTZ
  Basis Set: (AUG-CC-PVTZ AUX)
    Blend: AUG-CC-PVTZ-JKFIT
	 Reference Energy          =    -474.3142450661674729 [Eh]
	 Singles Energy            =      -0.0000000000000000 [Eh]
	 Same-Spin Energy          =      -0.5167235054516522 [Eh]
	 Opposite-Spin Energy      =      -1.5599053810765808 [Eh]
	 Correlation Energy        =      -2.0766288865282330 [Eh]
	 Total Energy              =    -476.3908739526956992 [Eh]

	 ================> DF-SCS-MP2 Energies <==================
	-----------------------------------------------------------
	 SCS Same-Spin Scale       =       0.3333333333333333 [-]
	 SCS Opposite-Spin Scale   =       1.2000000000000000 [-]
	 SCS Same-Spin Energy      =      -0.1722411684838841 [Eh]
	 SCS Opposite-Spin Energy  =      -1.8718864572918970 [Eh]
	 SCS Correlation Energy    =      -2.0441276257757810 [Eh]
	 SCS Total Energy          =    -476.3583726919432593 [Eh]
	-----------------------------------------------------------

  Dipole Moment: [D]
     X:    -1.3919      Y:     1.9953      Z:     0.0001     Total:     2.4328

*** Psi4 exiting successfully. Buy a developer a beer!
