                               Psi4 1.3.2 release

  ==> Input File <==

--------------------------------------------------------------------------
#psi4
#
memory 32 gb

molecule  {
0 1
  O        3.0870850    -0.7380670     0.0000600
  N       -1.0742560    -1.1771330    -0.0000800
  C        0.9761220     0.0434820    -0.0000150
  C       -0.4801282     0.1961228    -0.0000175
  C        1.8814630     1.1555170    -0.0001020
  C       -1.2332690     1.2310260     0.0000830
  C        1.7670490    -1.0798270     0.0000780
  C       -2.6240280     1.1598410     0.0000810
  C        3.1400070     0.6275730    -0.0000460
  C       -3.2332050    -0.0939970     0.0000020
  C       -2.4150150    -1.2251180    -0.0000720
  H        1.6419750     2.2104320    -0.0002120
  H       -0.7317970     2.1947500     0.0001580
  H        1.5416230    -2.1350490     0.0001580
  H        4.1309200     1.0569280    -0.0000720
  H       -3.2210480     2.0687070     0.0001450
  H       -4.3145730    -0.1971740    -0.0000020
  H       -2.8500980    -2.2235110    -0.0001310
units angstrom
no_reorient  #important for SAPT in psi4, default
symmetry c1  #important for SAPT in psi4, default
}

set PROPERTIES_ORIGIN ["COM"]
properties('MP2/aug-cc-pvtz', properties = ['dipole'])
--------------------------------------------------------------------------

    Molecular point group: c1
  Charge       = 0
  Multiplicity = 1
  Basis Set: AUG-CC-PVTZ
    Blend: AUG-CC-PVTZ
  Basis Set: (AUG-CC-PVTZ AUX)
    Blend: AUG-CC-PVTZ-JKFIT

    Orbital Energies [Eh]
    ---------------------

    Doubly Occupied:

       1A    -20.627932     2A    -15.572773     3A    -11.294517
       4A    -11.291210     5A    -11.284481     6A    -11.279804
       7A    -11.267366     8A    -11.244356     9A    -11.240874
      10A    -11.233201    11A    -11.231913    12A     -1.457939
      13A     -1.235172    14A     -1.108356    15A     -1.089840
      16A     -1.040131    17A     -0.999441    18A     -0.882859
      19A     -0.856358    20A     -0.790971    21A     -0.781258
      22A     -0.744641    23A     -0.687118    24A     -0.658487
      25A     -0.645333    26A     -0.634724    27A     -0.610345
      28A     -0.591000    29A     -0.573405    30A     -0.570071
      31A     -0.543995    32A     -0.540630    33A     -0.501580
      34A     -0.426706    35A     -0.421920    36A     -0.382444
      37A     -0.352342    38A     -0.301076

  @DF-RHF Final Energy:  -474.29988757336588

   => Energetics <=

    Nuclear Repulsion Energy =            539.5411334170707960
    One-Electron Energy =               -1713.6889039697757653
    Two-Electron Energy =                 699.8478829793390332
    Total Energy =                       -474.2998875733659361
  Basis Set: (AUG-CC-PVTZ AUX)
    Blend: AUG-CC-PVTZ-RI
    Molecular point group: c1

    Geometry (in Angstrom), charge = 0, multiplicity = 1:

       Center              X                  Y                   Z               Mass
    ------------   -----------------  -----------------  -----------------  -----------------
         O            3.060543156559    -0.730380152741     0.000061504327    15.994914619570
         N           -1.100797843441    -1.169446152741    -0.000078495673    14.003074004430
         C            0.949580156559     0.051168847259    -0.000013495673    12.000000000000
         C           -0.506670043441     0.203809647259    -0.000015995673    12.000000000000
         C            1.854921156559     1.163203847259    -0.000100495673    12.000000000000
         C           -1.259810843441     1.238712847259     0.000084504327    12.000000000000
         C            1.740507156559    -1.072140152741     0.000079504327    12.000000000000
         C           -2.650569843441     1.167527847259     0.000082504327    12.000000000000
         C            3.113465156559     0.635259847259    -0.000044495673    12.000000000000
         C           -3.259746843441    -0.086310152741     0.000003504327    12.000000000000
         C           -2.441556843441    -1.217431152741    -0.000070495673    12.000000000000
         H            1.615433156559     2.218118847259    -0.000210495673     1.007825032230
         H           -0.758338843441     2.202436847259     0.000159504327     1.007825032230
         H            1.515081156559    -2.127362152741     0.000159504327     1.007825032230
         H            4.104378156559     1.064614847259    -0.000070495673     1.007825032230
         H           -3.247589843441     2.076393847259     0.000146504327     1.007825032230
         H           -4.341114843441    -0.189487152741    -0.000000495673     1.007825032230
         H           -2.876639843441    -2.215824152741    -0.000129495673     1.007825032230

  Basis Set: AUG-CC-PVTZ
    Blend: AUG-CC-PVTZ
  Basis Set: (AUG-CC-PVTZ AUX)
    Blend: AUG-CC-PVTZ-JKFIT
	 Reference Energy          =    -474.2998875733658792 [Eh]
	 Singles Energy            =      -0.0000000000000000 [Eh]
	 Same-Spin Energy          =      -0.5145811528840729 [Eh]
	 Opposite-Spin Energy      =      -1.5608290211479758 [Eh]
	 Correlation Energy        =      -2.0754101740320490 [Eh]
	 Total Energy              =    -476.3752977473979513 [Eh]

	 ================> DF-SCS-MP2 Energies <==================
	-----------------------------------------------------------
	 SCS Same-Spin Scale       =       0.3333333333333333 [-]
	 SCS Opposite-Spin Scale   =       1.2000000000000000 [-]
	 SCS Same-Spin Energy      =      -0.1715270509613576 [Eh]
	 SCS Opposite-Spin Energy  =      -1.8729948253775710 [Eh]
	 SCS Correlation Energy    =      -2.0445218763389286 [Eh]
	 SCS Total Energy          =    -476.3444094497048127 [Eh]
	-----------------------------------------------------------

  Dipole Moment: [D]
     X:    -1.4772      Y:     2.0223      Z:     0.0001     Total:     2.5043

*** Psi4 exiting successfully. Buy a developer a beer!
