                               Psi4 1.3.2 release

  ==> Input File <==

--------------------------------------------------------------------------
#psi4
#
memory 32 gb

molecule  {
0 1
  O        3.0870850    -0.7380670     0.0000600
  N       -1.0742560    -1.1771330    -0.0000800
  C        0.9761220     0.0434820    -0.0000150
  C       -0.4881060     0.0430670    -0.0000040
  C        1.8814630     1.1555170    -0.0001020
  C       -1.2332690     1.2310260     0.0000830
  C        1.7670490    -1.0798270     0.0000780
  C       -2.6240280     1.1598410     0.0000810
  C        3.1490292     0.6496180    -0.0000483
  C       -3.2332050    -0.0939970     0.0000020
  C       -2.4150150    -1.2251180    -0.0000720
  H        1.6419750     2.2104320    -0.0002120
  H       -0.7317970     2.1947500     0.0001580
  H        1.5416230    -2.1350490     0.0001580
  H        4.1309200     1.0569280    -0.0000720
  H       -3.2210480     2.0687070     0.0001450
  H       -4.3145730    -0.1971740    -0.0000020
  H       -2.8500980    -2.2235110    -0.0001310
units angstrom
no_reorient  #important for SAPT in psi4, default
symmetry c1  #important for SAPT in psi4, default
}

set PROPERTIES_ORIGIN ["COM"]
properties('MP2/aug-cc-pvtz', properties = ['dipole'])
--------------------------------------------------------------------------

    Molecular point group: c1
  Charge       = 0
  Multiplicity = 1
  Basis Set: AUG-CC-PVTZ
    Blend: AUG-CC-PVTZ
  Basis Set: (AUG-CC-PVTZ AUX)
    Blend: AUG-CC-PVTZ-JKFIT

    Orbital Energies [Eh]
    ---------------------

    Doubly Occupied:

       1A    -20.625855     2A    -15.565554     3A    -11.295388
       4A    -11.292959     5A    -11.292425     6A    -11.279489
       7A    -11.263324     8A    -11.243207     9A    -11.240902
      10A    -11.239903    11A    -11.238493    12A     -1.449806
      13A     -1.258550    14A     -1.104844    15A     -1.088523
      16A     -1.034188    17A     -0.997525    18A     -0.874491
      19A     -0.863343    20A     -0.795420    21A     -0.779394
      22A     -0.744353    23A     -0.686750    24A     -0.662597
      25A     -0.645603    26A     -0.630510    27A     -0.608551
      28A     -0.585673    29A     -0.574572    30A     -0.570906
      31A     -0.548705    32A     -0.538677    33A     -0.520816
      34A     -0.424343    35A     -0.421942    36A     -0.383927
      37A     -0.350037    38A     -0.298784

  @DF-RHF Final Energy:  -474.32980802180458

   => Energetics <=

    Nuclear Repulsion Energy =            539.4197416554500251
    One-Electron Energy =               -1713.4584460554253837
    Two-Electron Energy =                 699.7088963781708344
    Total Energy =                       -474.3298080218045243
  Basis Set: (AUG-CC-PVTZ AUX)
    Blend: AUG-CC-PVTZ-RI
    Molecular point group: c1

    Geometry (in Angstrom), charge = 0, multiplicity = 1:

       Center              X                  Y                   Z               Mass
    ------------   -----------------  -----------------  -----------------  -----------------
         O            3.060456754896    -0.719541823582     0.000060577767    15.994914619570
         N           -1.100884245104    -1.158607823582    -0.000079422233    14.003074004430
         C            0.949493754896     0.062007176418    -0.000014422233    12.000000000000
         C           -0.514734245104     0.061592176418    -0.000003422233    12.000000000000
         C            1.854834754896     1.174042176418    -0.000101422233    12.000000000000
         C           -1.259897245104     1.249551176418     0.000083577767    12.000000000000
         C            1.740420754896    -1.061301823582     0.000078577767    12.000000000000
         C           -2.650656245104     1.178366176418     0.000081577767    12.000000000000
         C            3.122400954896     0.668143176418    -0.000047722233    12.000000000000
         C           -3.259833245104    -0.075471823582     0.000002577767    12.000000000000
         C           -2.441643245104    -1.206592823582    -0.000071422233    12.000000000000
         H            1.615346754896     2.228957176418    -0.000211422233     1.007825032230
         H           -0.758425245104     2.213275176418     0.000158577767     1.007825032230
         H            1.514994754896    -2.116523823582     0.000158577767     1.007825032230
         H            4.104291754896     1.075453176418    -0.000071422233     1.007825032230
         H           -3.247676245104     2.087232176418     0.000145577767     1.007825032230
         H           -4.341201245104    -0.178648823582    -0.000001422233     1.007825032230
         H           -2.876726245104    -2.204985823582    -0.000130422233     1.007825032230

  Basis Set: AUG-CC-PVTZ
    Blend: AUG-CC-PVTZ
  Basis Set: (AUG-CC-PVTZ AUX)
    Blend: AUG-CC-PVTZ-JKFIT
	 Reference Energy          =    -474.3298080218045811 [Eh]
	 Singles Energy            =      -0.0000000000000000 [Eh]
	 Same-Spin Energy          =      -0.5142202750952591 [Eh]
	 Opposite-Spin Energy      =      -1.5574175428786958 [Eh]
	 Correlation Energy        =      -2.0716378179739552 [Eh]
	 Total Energy              =    -476.4014458397785461 [Eh]

	 ================> DF-SCS-MP2 Energies <==================
	-----------------------------------------------------------
	 SCS Same-Spin Scale       =       0.3333333333333333 [-]
	 SCS Opposite-Spin Scale   =       1.2000000000000000 [-]
	 SCS Same-Spin Energy      =      -0.1714067583650864 [Eh]
	 SCS Opposite-Spin Energy  =      -1.8689010514544349 [Eh]
	 SCS Correlation Energy    =      -2.0403078098195211 [Eh]
	 SCS Total Energy          =    -476.3701158316241049 [Eh]
	-----------------------------------------------------------

  Dipole Moment: [D]
     X:    -1.3432      Y:     2.0573      Z:     0.0001     Total:     2.4570

*** Psi4 exiting successfully. Buy a developer a beer!
