                               Psi4 1.3.2 release

  ==> Input File <==

--------------------------------------------------------------------------
#psi4
#
memory 32 gb

molecule  {
0 1
  O        3.0870850    -0.7380670     0.0000600
  N       -1.0742560    -1.1771330    -0.0000800
  C        0.9761220     0.0434820    -0.0000150
  C       -0.4881060     0.0430670    -0.0000040
  C        1.8814630     1.1555170    -0.0001020
  C       -1.2332690     1.2310260     0.0000830
  C        1.7670490    -1.0798270     0.0000780
  C       -2.6240280     1.1598410     0.0000810
  C        3.1400070     0.6275730    -0.0000460
  C       -3.2332050    -0.0939970     0.0000020
  C       -2.4150150    -1.2251180    -0.0000720
  H        1.6641138     2.1129134    -0.0002018
  H       -0.7317970     2.1947500     0.0001580
  H        1.5416230    -2.1350490     0.0001580
  H        4.1309200     1.0569280    -0.0000720
  H       -3.2210480     2.0687070     0.0001450
  H       -4.3145730    -0.1971740    -0.0000020
  H       -2.8500980    -2.2235110    -0.0001310
units angstrom
no_reorient  #important for SAPT in psi4, default
symmetry c1  #important for SAPT in psi4, default
}

set PROPERTIES_ORIGIN ["COM"]
properties('MP2/aug-cc-pvtz', properties = ['dipole'])
--------------------------------------------------------------------------

    Molecular point group: c1
  Charge       = 0
  Multiplicity = 1
  Basis Set: AUG-CC-PVTZ
    Blend: AUG-CC-PVTZ
  Basis Set: (AUG-CC-PVTZ AUX)
    Blend: AUG-CC-PVTZ-JKFIT

    Orbital Energies [Eh]
    ---------------------

    Doubly Occupied:

       1A    -20.628178     2A    -15.565619     3A    -11.293291
       4A    -11.292985     5A    -11.292237     6A    -11.279509
       7A    -11.263442     8A    -11.243509     9A    -11.241106
      10A    -11.238188    11A    -11.225842    12A     -1.458404
      13A     -1.258584    14A     -1.106724    15A     -1.088723
      16A     -1.035529    17A     -0.998517    18A     -0.875820
      19A     -0.863970    20A     -0.807844    21A     -0.777598
      22A     -0.748988    23A     -0.687829    24A     -0.664137
      25A     -0.647327    26A     -0.635187    27A     -0.608584
      28A     -0.586066    29A     -0.585169    30A     -0.573126
      31A     -0.548895    32A     -0.537841    33A     -0.520758
      34A     -0.424359    35A     -0.421953    36A     -0.383856
      37A     -0.348646    38A     -0.298743

  @DF-RHF Final Energy:  -474.32500697962536

   => Energetics <=

    Nuclear Repulsion Energy =            540.4088087047213094
    One-Electron Energy =               -1715.3534650938036066
    Two-Electron Energy =                 700.6196494094569971
    Total Energy =                       -474.3250069796254138
  Basis Set: (AUG-CC-PVTZ AUX)
    Blend: AUG-CC-PVTZ-RI
    Molecular point group: c1

    Geometry (in Angstrom), charge = 0, multiplicity = 1:

       Center              X                  Y                   Z               Mass
    ------------   -----------------  -----------------  -----------------  -----------------
         O            3.061049327977    -0.717040515254     0.000060316622    15.994914619570
         N           -1.100291672023    -1.156106515254    -0.000079683378    14.003074004430
         C            0.950086327977     0.064508484746    -0.000014683378    12.000000000000
         C           -0.514141672023     0.064093484746    -0.000003683378    12.000000000000
         C            1.855427327977     1.176543484746    -0.000101683378    12.000000000000
         C           -1.259304672023     1.252052484746     0.000083316622    12.000000000000
         C            1.741013327977    -1.058800515254     0.000078316622    12.000000000000
         C           -2.650063672023     1.180867484746     0.000081316622    12.000000000000
         C            3.113971327977     0.648599484746    -0.000045683378    12.000000000000
         C           -3.259240672023    -0.072970515254     0.000002316622    12.000000000000
         C           -2.441050672023    -1.204091515254    -0.000071683378    12.000000000000
         H            1.638078127977     2.133939884746    -0.000201483378     1.007825032230
         H           -0.757832672023     2.215776484746     0.000158316622     1.007825032230
         H            1.515587327977    -2.114022515254     0.000158316622     1.007825032230
         H            4.104884327977     1.077954484746    -0.000071683378     1.007825032230
         H           -3.247083672023     2.089733484746     0.000145316622     1.007825032230
         H           -4.340608672023    -0.176147515254    -0.000001683378     1.007825032230
         H           -2.876133672023    -2.202484515254    -0.000130683378     1.007825032230

  Basis Set: AUG-CC-PVTZ
    Blend: AUG-CC-PVTZ
  Basis Set: (AUG-CC-PVTZ AUX)
    Blend: AUG-CC-PVTZ-JKFIT
	 Reference Energy          =    -474.3250069796253570 [Eh]
	 Singles Energy            =      -0.0000000000000000 [Eh]
	 Same-Spin Energy          =      -0.5140342405649274 [Eh]
	 Opposite-Spin Energy      =      -1.5564145348281910 [Eh]
	 Correlation Energy        =      -2.0704487753931184 [Eh]
	 Total Energy              =    -476.3954557550184745 [Eh]

	 ================> DF-SCS-MP2 Energies <==================
	-----------------------------------------------------------
	 SCS Same-Spin Scale       =       0.3333333333333333 [-]
	 SCS Opposite-Spin Scale   =       1.2000000000000000 [-]
	 SCS Same-Spin Energy      =      -0.1713447468549758 [Eh]
	 SCS Opposite-Spin Energy  =      -1.8676974417938292 [Eh]
	 SCS Correlation Energy    =      -2.0390421886488053 [Eh]
	 SCS Total Energy          =    -476.3640491682741640 [Eh]
	-----------------------------------------------------------

  Dipole Moment: [D]
     X:    -1.3377      Y:     2.0246      Z:     0.0001     Total:     2.4267

*** Psi4 exiting successfully. Buy a developer a beer!
