                               Psi4 1.3.2 release

  ==> Input File <==

--------------------------------------------------------------------------
#psi4
#
memory 32 gb

molecule  {
0 1
  O        3.0870850    -0.7380670     0.0000600
  N       -1.1985906    -1.1091793    -0.0000746
  C        0.9761220     0.0434820    -0.0000150
  C       -0.4881060     0.0430670    -0.0000040
  C        1.8814630     1.1555170    -0.0001020
  C       -1.2332690     1.2310260     0.0000830
  C        1.7670490    -1.0798270     0.0000780
  C       -2.6240280     1.1598410     0.0000810
  C        3.1400070     0.6275730    -0.0000460
  C       -3.2332050    -0.0939970     0.0000020
  C       -2.4150150    -1.2251180    -0.0000720
  H        1.6419750     2.2104320    -0.0002120
  H       -0.7317970     2.1947500     0.0001580
  H        1.5416230    -2.1350490     0.0001580
  H        4.1309200     1.0569280    -0.0000720
  H       -3.2210480     2.0687070     0.0001450
  H       -4.3145730    -0.1971740    -0.0000020
  H       -2.8500980    -2.2235110    -0.0001310
units angstrom
no_reorient  #important for SAPT in psi4, default
symmetry c1  #important for SAPT in psi4, default
}

set PROPERTIES_ORIGIN ["COM"]
properties('MP2/aug-cc-pvtz', properties = ['dipole'])
--------------------------------------------------------------------------

    Molecular point group: c1
  Charge       = 0
  Multiplicity = 1
  Basis Set: AUG-CC-PVTZ
    Blend: AUG-CC-PVTZ
  Basis Set: (AUG-CC-PVTZ AUX)
    Blend: AUG-CC-PVTZ-JKFIT

    Orbital Energies [Eh]
    ---------------------

    Doubly Occupied:

       1A    -20.630422     2A    -15.547032     3A    -11.296013
       4A    -11.295879     5A    -11.292634     6A    -11.263027
       7A    -11.256699     8A    -11.243820     9A    -11.241460
      10A    -11.239943    11A    -11.235746    12A     -1.460862
      13A     -1.288079    14A     -1.112868    15A     -1.085381
      16A     -1.038733    17A     -0.999951    18A     -0.881775
      19A     -0.857178    20A     -0.802097    21A     -0.782047
      22A     -0.749167    23A     -0.693239    24A     -0.667172
      25A     -0.645229    26A     -0.637759    27A     -0.609738
      28A     -0.588881    29A     -0.577494    30A     -0.571837
      31A     -0.562927    32A     -0.540258    33A     -0.529432
      34A     -0.427757    35A     -0.392819    36A     -0.391317
      37A     -0.349834    38A     -0.297065

  @DF-RHF Final Energy:  -474.31842821180703

   => Energetics <=

    Nuclear Repulsion Energy =            541.8264991928361951
    One-Electron Energy =               -1718.1227058709750963
    Two-Electron Energy =                 701.9777784663317561
    Total Energy =                       -474.3184282118070314
  Basis Set: (AUG-CC-PVTZ AUX)
    Blend: AUG-CC-PVTZ-RI
    Molecular point group: c1

    Geometry (in Angstrom), charge = 0, multiplicity = 1:

       Center              X                  Y                   Z               Mass
    ------------   -----------------  -----------------  -----------------  -----------------
         O            3.073206136267    -0.724278173802     0.000059866188    15.994914619570
         N           -1.212469463733    -1.095390473802    -0.000074733812    14.003074004430
         C            0.962243136267     0.057270826198    -0.000015133812    12.000000000000
         C           -0.501984863733     0.056855826198    -0.000004133812    12.000000000000
         C            1.867584136267     1.169305826198    -0.000102133812    12.000000000000
         C           -1.247147863733     1.244814826198     0.000082866188    12.000000000000
         C            1.753170136267    -1.066038173802     0.000077866188    12.000000000000
         C           -2.637906863733     1.173629826198     0.000080866188    12.000000000000
         C            3.126128136267     0.641361826198    -0.000046133812    12.000000000000
         C           -3.247083863733    -0.080208173802     0.000001866188    12.000000000000
         C           -2.428893863733    -1.211329173802    -0.000072133812    12.000000000000
         H            1.628096136267     2.224220826198    -0.000212133812     1.007825032230
         H           -0.745675863733     2.208538826198     0.000157866188     1.007825032230
         H            1.527744136267    -2.121260173802     0.000157866188     1.007825032230
         H            4.117041136267     1.070716826198    -0.000072133812     1.007825032230
         H           -3.234926863733     2.082495826198     0.000144866188     1.007825032230
         H           -4.328451863733    -0.183385173802    -0.000002133812     1.007825032230
         H           -2.863976863733    -2.209722173802    -0.000131133812     1.007825032230

  Basis Set: AUG-CC-PVTZ
    Blend: AUG-CC-PVTZ
  Basis Set: (AUG-CC-PVTZ AUX)
    Blend: AUG-CC-PVTZ-JKFIT
	 Reference Energy          =    -474.3184282118070314 [Eh]
	 Singles Energy            =      -0.0000000000000000 [Eh]
	 Same-Spin Energy          =      -0.5132163021997551 [Eh]
	 Opposite-Spin Energy      =      -1.5537259138111223 [Eh]
	 Correlation Energy        =      -2.0669422160108777 [Eh]
	 Total Energy              =    -476.3853704278179180 [Eh]

	 ================> DF-SCS-MP2 Energies <==================
	-----------------------------------------------------------
	 SCS Same-Spin Scale       =       0.3333333333333333 [-]
	 SCS Opposite-Spin Scale   =       1.2000000000000000 [-]
	 SCS Same-Spin Energy      =      -0.1710721007332517 [Eh]
	 SCS Opposite-Spin Energy  =      -1.8644710965733466 [Eh]
	 SCS Correlation Energy    =      -2.0355431973065983 [Eh]
	 SCS Total Energy          =    -476.3539714091136261 [Eh]
	-----------------------------------------------------------

  Dipole Moment: [D]
     X:    -0.9482      Y:     1.8660      Z:     0.0001     Total:     2.0931

*** Psi4 exiting successfully. Buy a developer a beer!
