                               Psi4 1.3.2 release

  ==> Input File <==

--------------------------------------------------------------------------
#psi4
#
memory 32 gb

molecule  {
0 1
  O        3.0870850    -0.7380670     0.0000600
  N       -1.0742560    -1.1771330    -0.0000800
  C        0.9752155     0.0945826    -0.0000115
  C       -0.4881060     0.0430670    -0.0000040
  C        1.8814630     1.1555170    -0.0001020
  C       -1.2332690     1.2310260     0.0000830
  C        1.7670490    -1.0798270     0.0000780
  C       -2.6240280     1.1598410     0.0000810
  C        3.1400070     0.6275730    -0.0000460
  C       -3.2332050    -0.0939970     0.0000020
  C       -2.4150150    -1.2251180    -0.0000720
  H        1.6419750     2.2104320    -0.0002120
  H       -0.7317970     2.1947500     0.0001580
  H        1.5416230    -2.1350490     0.0001580
  H        4.1309200     1.0569280    -0.0000720
  H       -3.2210480     2.0687070     0.0001450
  H       -4.3145730    -0.1971740    -0.0000020
  H       -2.8500980    -2.2235110    -0.0001310
units angstrom
no_reorient  #important for SAPT in psi4, default
symmetry c1  #important for SAPT in psi4, default
}

set PROPERTIES_ORIGIN ["COM"]
properties('MP2/aug-cc-pvtz', properties = ['dipole'])
--------------------------------------------------------------------------

    Molecular point group: c1
  Charge       = 0
  Multiplicity = 1
  Basis Set: AUG-CC-PVTZ
    Blend: AUG-CC-PVTZ
  Basis Set: (AUG-CC-PVTZ AUX)
    Blend: AUG-CC-PVTZ-JKFIT

    Orbital Energies [Eh]
    ---------------------

    Doubly Occupied:

       1A    -20.633013     2A    -15.565945     3A    -11.299270
       4A    -11.292567     5A    -11.292455     6A    -11.279715
       7A    -11.262682     8A    -11.241978     9A    -11.241253
      10A    -11.240490    11A    -11.236032    12A     -1.460474
      13A     -1.258159    14A     -1.108790    15A     -1.088180
      16A     -1.035903    17A     -0.993568    18A     -0.875991
      19A     -0.863012    20A     -0.792790    21A     -0.782245
      22A     -0.745177    23A     -0.687909    24A     -0.662210
      25A     -0.646397    26A     -0.635867    27A     -0.607869
      28A     -0.587716    29A     -0.578252    30A     -0.569093
      31A     -0.548802    32A     -0.537166    33A     -0.522296
      34A     -0.427020    35A     -0.421063    36A     -0.384081
      37A     -0.348953    38A     -0.292341

  @DF-RHF Final Energy:  -474.32507299803109

   => Energetics <=

    Nuclear Repulsion Energy =            539.7722003293102944
    One-Electron Energy =               -1714.1010993331149166
    Two-Electron Energy =                 700.0038260057733623
    Total Energy =                       -474.3250729980311462
  Basis Set: (AUG-CC-PVTZ AUX)
    Blend: AUG-CC-PVTZ-RI
    Molecular point group: c1

    Geometry (in Angstrom), charge = 0, multiplicity = 1:

       Center              X                  Y                   Z               Mass
    ------------   -----------------  -----------------  -----------------  -----------------
         O            3.061278141520    -0.721945550273     0.000060097942    15.994914619570
         N           -1.100062858480    -1.161011550273    -0.000079902058    14.003074004430
         C            0.949408641520     0.110704049727    -0.000011402058    12.000000000000
         C           -0.513912858480     0.059188449727    -0.000003902058    12.000000000000
         C            1.855656141520     1.171638449727    -0.000101902058    12.000000000000
         C           -1.259075858480     1.247147449727     0.000083097942    12.000000000000
         C            1.741242141520    -1.063705550273     0.000078097942    12.000000000000
         C           -2.649834858480     1.175962449727     0.000081097942    12.000000000000
         C            3.114200141520     0.643694449727    -0.000045902058    12.000000000000
         C           -3.259011858480    -0.077875550273     0.000002097942    12.000000000000
         C           -2.440821858480    -1.208996550273    -0.000071902058    12.000000000000
         H            1.616168141520     2.226553449727    -0.000211902058     1.007825032230
         H           -0.757603858480     2.210871449727     0.000158097942     1.007825032230
         H            1.515816141520    -2.118927550273     0.000158097942     1.007825032230
         H            4.105113141520     1.073049449727    -0.000071902058     1.007825032230
         H           -3.246854858480     2.084828449727     0.000145097942     1.007825032230
         H           -4.340379858480    -0.181052550273    -0.000001902058     1.007825032230
         H           -2.875904858480    -2.207389550273    -0.000130902058     1.007825032230

  Basis Set: AUG-CC-PVTZ
    Blend: AUG-CC-PVTZ
  Basis Set: (AUG-CC-PVTZ AUX)
    Blend: AUG-CC-PVTZ-JKFIT
	 Reference Energy          =    -474.3250729980310894 [Eh]
	 Singles Energy            =      -0.0000000000000000 [Eh]
	 Same-Spin Energy          =      -0.5156105552126926 [Eh]
	 Opposite-Spin Energy      =      -1.5587787926710486 [Eh]
	 Correlation Energy        =      -2.0743893478837414 [Eh]
	 Total Energy              =    -476.3994623459148556 [Eh]

	 ================> DF-SCS-MP2 Energies <==================
	-----------------------------------------------------------
	 SCS Same-Spin Scale       =       0.3333333333333333 [-]
	 SCS Opposite-Spin Scale   =       1.2000000000000000 [-]
	 SCS Same-Spin Energy      =      -0.1718701850708975 [Eh]
	 SCS Opposite-Spin Energy  =      -1.8705345512052582 [Eh]
	 SCS Correlation Energy    =      -2.0424047362761559 [Eh]
	 SCS Total Energy          =    -476.3674777343072719 [Eh]
	-----------------------------------------------------------

  Dipole Moment: [D]
     X:    -1.2986      Y:     2.0235      Z:     0.0001     Total:     2.4044

*** Psi4 exiting successfully. Buy a developer a beer!
