                               Psi4 1.3.2 release

  ==> Input File <==

--------------------------------------------------------------------------
#psi4
#
memory 32 gb

molecule  {
0 1
  O        3.0870850    -0.7380670     0.0000600
  N       -1.0742560    -1.1771330    -0.0000800
  C        0.9761220     0.0434820    -0.0000150
  C       -0.4881060     0.0430670    -0.0000040
  C        1.8814630     1.1555170    -0.0001020
  C       -1.2332690     1.2310260     0.0000830
  C        1.6702409    -1.1048908     0.0000793
  C       -2.6240280     1.1598410     0.0000810
  C        3.1400070     0.6275730    -0.0000460
  C       -3.2332050    -0.0939970     0.0000020
  C       -2.4150150    -1.2251180    -0.0000720
  H        1.6419750     2.2104320    -0.0002120
  H       -0.7317970     2.1947500     0.0001580
  H        1.5416230    -2.1350490     0.0001580
  H        4.1309200     1.0569280    -0.0000720
  H       -3.2210480     2.0687070     0.0001450
  H       -4.3145730    -0.1971740    -0.0000020
  H       -2.8500980    -2.2235110    -0.0001310
units angstrom
no_reorient  #important for SAPT in psi4, default
symmetry c1  #important for SAPT in psi4, default
}

set PROPERTIES_ORIGIN ["COM"]
properties('MP2/aug-cc-pvtz', properties = ['dipole'])
--------------------------------------------------------------------------

    Molecular point group: c1
  Charge       = 0
  Multiplicity = 1
  Basis Set: AUG-CC-PVTZ
    Blend: AUG-CC-PVTZ
  Basis Set: (AUG-CC-PVTZ AUX)
    Blend: AUG-CC-PVTZ-JKFIT

    Orbital Energies [Eh]
    ---------------------

    Doubly Occupied:

       1A    -20.612692     2A    -15.568181     3A    -11.297279
       4A    -11.292845     5A    -11.289631     6A    -11.281394
       7A    -11.264879     8A    -11.245173     9A    -11.243565
      10A    -11.243389    11A    -11.234152    12A     -1.420702
      13A     -1.261196    14A     -1.108942    15A     -1.090386
      16A     -1.031785    17A     -0.997730    18A     -0.874911
      19A     -0.864337    20A     -0.790240    21A     -0.783375
      22A     -0.741770    23A     -0.685019    24A     -0.664365
      25A     -0.643133    26A     -0.614308    27A     -0.606460
      28A     -0.588663    29A     -0.574354    30A     -0.570529
      31A     -0.550142    32A     -0.535049    33A     -0.520348
      34A     -0.427644    35A     -0.424501    36A     -0.385159
      37A     -0.346125    38A     -0.306811

  @DF-RHF Final Energy:  -474.31987838853036

   => Energetics <=

    Nuclear Repulsion Energy =            539.4502309844866659
    One-Electron Energy =               -1713.5778883360069358
    Two-Electron Energy =                 699.8077789629898007
    Total Energy =                       -474.3198783885303556
  Basis Set: (AUG-CC-PVTZ AUX)
    Blend: AUG-CC-PVTZ-RI
    Molecular point group: c1

    Geometry (in Angstrom), charge = 0, multiplicity = 1:

       Center              X                  Y                   Z               Mass
    ------------   -----------------  -----------------  -----------------  -----------------
         O            3.069211938640    -0.715644582433     0.000060279945    15.994914619570
         N           -1.092129061360    -1.154710582433    -0.000079720055    14.003074004430
         C            0.958248938640     0.065904417567    -0.000014720055    12.000000000000
         C           -0.505979061360     0.065489417567    -0.000003720055    12.000000000000
         C            1.863589938640     1.177939417567    -0.000101720055    12.000000000000
         C           -1.251142061360     1.253448417567     0.000083279945    12.000000000000
         C            1.652367838640    -1.082468382433     0.000079579945    12.000000000000
         C           -2.641901061360     1.182263417567     0.000081279945    12.000000000000
         C            3.122133938640     0.649995417567    -0.000045720055    12.000000000000
         C           -3.251078061360    -0.071574582433     0.000002279945    12.000000000000
         C           -2.432888061360    -1.202695582433    -0.000071720055    12.000000000000
         H            1.624101938640     2.232854417567    -0.000211720055     1.007825032230
         H           -0.749670061360     2.217172417567     0.000158279945     1.007825032230
         H            1.523749938640    -2.112626582433     0.000158279945     1.007825032230
         H            4.113046938640     1.079350417567    -0.000071720055     1.007825032230
         H           -3.238921061360     2.091129417567     0.000145279945     1.007825032230
         H           -4.332446061360    -0.174751582433    -0.000001720055     1.007825032230
         H           -2.867971061360    -2.201088582433    -0.000130720055     1.007825032230

  Basis Set: AUG-CC-PVTZ
    Blend: AUG-CC-PVTZ
  Basis Set: (AUG-CC-PVTZ AUX)
    Blend: AUG-CC-PVTZ-JKFIT
	 Reference Energy          =    -474.3198783885303556 [Eh]
	 Singles Energy            =      -0.0000000000000000 [Eh]
	 Same-Spin Energy          =      -0.5141797278536657 [Eh]
	 Opposite-Spin Energy      =      -1.5588422548868206 [Eh]
	 Correlation Energy        =      -2.0730219827404861 [Eh]
	 Total Energy              =    -476.3929003712708550 [Eh]

	 ================> DF-SCS-MP2 Energies <==================
	-----------------------------------------------------------
	 SCS Same-Spin Scale       =       0.3333333333333333 [-]
	 SCS Opposite-Spin Scale   =       1.2000000000000000 [-]
	 SCS Same-Spin Energy      =      -0.1713932426178886 [Eh]
	 SCS Opposite-Spin Energy  =      -1.8706107058641845 [Eh]
	 SCS Correlation Energy    =      -2.0420039484820731 [Eh]
	 SCS Total Energy          =    -476.3618823370124460 [Eh]
	-----------------------------------------------------------

  Dipole Moment: [D]
     X:    -1.6256      Y:     2.0418      Z:     0.0001     Total:     2.6099

*** Psi4 exiting successfully. Buy a developer a beer!
