                               Psi4 1.4a3.dev225

  ==> Input File <==

--------------------------------------------------------------------------
#psi4
#
memory 32 gb

molecule  {
0 1
  O        3.0870850    -0.7380670     0.0000600
  N       -1.0742560    -1.1771330    -0.0000800
  C        0.9761220     0.0434820    -0.0000150
  C       -0.4881060     0.0430670    -0.0000040
  C        1.8814630     1.1555170    -0.0001020
  C       -1.2332690     1.2310260     0.0000830
  C        1.7670490    -1.0798270     0.0000780
  C       -2.6240280     1.1598410     0.0000810
  C        3.1400070     0.6275730    -0.0000460
  C       -3.2332050    -0.0939970     0.0000020
  C       -2.4150150    -1.2251180    -0.0000720
  H        1.6419750     2.2104320    -0.0002120
  H       -0.7317970     2.1947500     0.0001580
  H        1.5374447    -2.1546077     0.0001595
  H        4.1309200     1.0569280    -0.0000720
  H       -3.2210480     2.0687070     0.0001450
  H       -4.3145730    -0.1971740    -0.0000020
  H       -2.8500980    -2.2235110    -0.0001310
units angstrom
no_reorient  #important for SAPT in psi4, default
symmetry c1  #important for SAPT in psi4, default
}

set PROPERTIES_ORIGIN ["COM"]
properties('MP2/aug-cc-pvtz', properties = ['dipole'])
--------------------------------------------------------------------------

    Molecular point group: c1
  Charge       = 0
  Multiplicity = 1
  Basis Set: AUG-CC-PVTZ
    Blend: AUG-CC-PVTZ
  Basis Set: (AUG-CC-PVTZ AUX)
    Blend: AUG-CC-PVTZ-JKFIT

    Orbital Energies [Eh]
    ---------------------

    Doubly Occupied:

       1A    -20.628771     2A    -15.565631     3A    -11.295904
       4A    -11.293360     5A    -11.292272     6A    -11.279462
       7A    -11.263345     8A    -11.243375     9A    -11.241088
      10A    -11.239221    11A    -11.237337    12A     -1.458970
      13A     -1.258577    14A     -1.105580    15A     -1.088590
      16A     -1.033886    17A     -0.997464    18A     -0.875323
      19A     -0.863388    20A     -0.796090    21A     -0.775890
      22A     -0.743768    23A     -0.687056    24A     -0.662441
      25A     -0.646216    26A     -0.635754    27A     -0.605105
      28A     -0.585327    29A     -0.574870    30A     -0.571854
      31A     -0.548898    32A     -0.537532    33A     -0.520516
      34A     -0.424688    35A     -0.421900    36A     -0.383814
      37A     -0.348755    38A     -0.299003

  @DF-RHF Final Energy:  -474.33042846808951

   => Energetics <=

    Nuclear Repulsion Energy =            539.7768196603417437
    One-Electron Energy =               -1714.1524566421276177
    Two-Electron Energy =                 700.0452085136963660
    Total Energy =                       -474.3304284680895080
  Basis Set: (AUG-CC-PVTZ AUX)
    Blend: AUG-CC-PVTZ-RI
    Molecular point group: c1

    Geometry (in Angstrom), charge = 0, multiplicity = 1:

       Center              X                  Y                   Z               Mass
    ------------   -----------------  -----------------  -----------------  -----------------
         O            3.061232178903    -0.717582179795     0.000060377070    15.994914619570
         N           -1.100108821097    -1.156648179795    -0.000079622930    14.003074004430
         C            0.950269178903     0.063966820205    -0.000014622930    12.000000000000
         C           -0.513958821097     0.063551820205    -0.000003622930    12.000000000000
         C            1.855610178903     1.176001820205    -0.000101622930    12.000000000000
         C           -1.259121821097     1.251510820205     0.000083377070    12.000000000000
         C            1.741196178903    -1.059342179795     0.000078377070    12.000000000000
         C           -2.649880821097     1.180325820205     0.000081377070    12.000000000000
         C            3.114154178903     0.648057820205    -0.000045622930    12.000000000000
         C           -3.259057821097    -0.073512179795     0.000002377070    12.000000000000
         C           -2.440867821097    -1.204633179795    -0.000071622930    12.000000000000
         H            1.616122178903     2.230916820205    -0.000211622930     1.007825032230
         H           -0.757649821097     2.215234820205     0.000158377070     1.007825032230
         H            1.511591878903    -2.134122879795     0.000159877070     1.007825032230
         H            4.105067178903     1.077412820205    -0.000071622930     1.007825032230
         H           -3.246900821097     2.089191820205     0.000145377070     1.007825032230
         H           -4.340425821097    -0.176689179795    -0.000001622930     1.007825032230
         H           -2.875950821097    -2.203026179795    -0.000130622930     1.007825032230

  Basis Set: AUG-CC-PVTZ
    Blend: AUG-CC-PVTZ
  Basis Set: (AUG-CC-PVTZ AUX)
    Blend: AUG-CC-PVTZ-JKFIT
	 Reference Energy          =    -474.3304284680895080 [Eh]
	 Singles Energy            =      -0.0000000000000000 [Eh]
	 Same-Spin Energy          =      -0.5142608876699281 [Eh]
	 Opposite-Spin Energy      =      -1.5571374033466827 [Eh]
	 Correlation Energy        =      -2.0713982910166107 [Eh]
	 Total Energy              =    -476.4018267591061431 [Eh]

	 ================> DF-SCS-MP2 Energies <==================
	-----------------------------------------------------------
	 SCS Same-Spin Scale       =       0.3333333333333333 [-]
	 SCS Opposite-Spin Scale   =       1.2000000000000000 [-]
	 SCS Same-Spin Energy      =      -0.1714202958899760 [Eh]
	 SCS Opposite-Spin Energy  =      -1.8685648840160192 [Eh]
	 SCS Correlation Energy    =      -2.0399851799059951 [Eh]
	 SCS Total Energy          =    -476.3704136479955196 [Eh]
	-----------------------------------------------------------

  Dipole Moment: [D]
     X:    -1.3432      Y:     2.0154      Z:     0.0001     Total:     2.4220

*** Psi4 exiting successfully. Buy a developer a beer!
