                               Psi4 1.4a3.dev225

  ==> Input File <==

--------------------------------------------------------------------------
#psi4
#
memory 32 gb

molecule  {
0 1
  O        3.0870850    -0.7380670     0.0000600
  N       -1.0742560    -1.1771330    -0.0000800
  C        0.9761220     0.0434820    -0.0000150
  C       -0.4881060     0.0430670    -0.0000040
  C        1.8814630     1.1555170    -0.0001020
  C       -1.2332690     1.2310260     0.0000830
  C        1.7864106    -1.0748142     0.0000777
  C       -2.6240280     1.1598410     0.0000810
  C        3.1400070     0.6275730    -0.0000460
  C       -3.2332050    -0.0939970     0.0000020
  C       -2.4150150    -1.2251180    -0.0000720
  H        1.6419750     2.2104320    -0.0002120
  H       -0.7317970     2.1947500     0.0001580
  H        1.5416230    -2.1350490     0.0001580
  H        4.1309200     1.0569280    -0.0000720
  H       -3.2210480     2.0687070     0.0001450
  H       -4.3145730    -0.1971740    -0.0000020
  H       -2.8500980    -2.2235110    -0.0001310
units angstrom
no_reorient  #important for SAPT in psi4, default
symmetry c1  #important for SAPT in psi4, default
}

set PROPERTIES_ORIGIN ["COM"]
properties('MP2/aug-cc-pvtz', properties = ['dipole'])
--------------------------------------------------------------------------

    Molecular point group: c1
  Charge       = 0
  Multiplicity = 1
  Basis Set: AUG-CC-PVTZ
    Blend: AUG-CC-PVTZ
  Basis Set: (AUG-CC-PVTZ AUX)
    Blend: AUG-CC-PVTZ-JKFIT

    Orbital Energies [Eh]
    ---------------------

    Doubly Occupied:

       1A    -20.631869     2A    -15.565165     3A    -11.295173
       4A    -11.292437     5A    -11.292199     6A    -11.279112
       7A    -11.263053     8A    -11.242997     9A    -11.240614
      10A    -11.238628    11A    -11.237649    12A     -1.467818
      13A     -1.258110    14A     -1.105092    15A     -1.088239
      16A     -1.034579    17A     -0.998477    18A     -0.875844
      19A     -0.863168    20A     -0.797724    21A     -0.776486
      22A     -0.745811    23A     -0.687937    24A     -0.662189
      25A     -0.647309    26A     -0.640692    27A     -0.607504
      28A     -0.585167    29A     -0.576504    30A     -0.572018
      31A     -0.548635    32A     -0.535994    33A     -0.520145
      34A     -0.424234    35A     -0.421486    36A     -0.383594
      37A     -0.349262    38A     -0.297290

  @DF-RHF Final Energy:  -474.33114204122137

   => Energetics <=

    Nuclear Repulsion Energy =            539.9855497468040539
    One-Electron Energy =               -1714.5329747093408059
    Two-Electron Energy =                 700.2162829213153827
    Total Energy =                       -474.3311420412213693
  Basis Set: (AUG-CC-PVTZ AUX)
    Blend: AUG-CC-PVTZ-RI
    Molecular point group: c1

    Geometry (in Angstrom), charge = 0, multiplicity = 1:

       Center              X                  Y                   Z               Mass
    ------------   -----------------  -----------------  -----------------  -----------------
         O            3.059601391671    -0.718132774940     0.000060412310    15.994914619570
         N           -1.101739608329    -1.157198774940    -0.000079587690    14.003074004430
         C            0.948638391671     0.063416225060    -0.000014587690    12.000000000000
         C           -0.515589608329     0.063001225060    -0.000003587690    12.000000000000
         C            1.853979391671     1.175451225060    -0.000101587690    12.000000000000
         C           -1.260752608329     1.250960225060     0.000083412310    12.000000000000
         C            1.758926991671    -1.054879974940     0.000078112310    12.000000000000
         C           -2.651511608329     1.179775225060     0.000081412310    12.000000000000
         C            3.112523391671     0.647507225060    -0.000045587690    12.000000000000
         C           -3.260688608329    -0.074062774940     0.000002412310    12.000000000000
         C           -2.442498608329    -1.205183774940    -0.000071587690    12.000000000000
         H            1.614491391671     2.230366225060    -0.000211587690     1.007825032230
         H           -0.759280608329     2.214684225060     0.000158412310     1.007825032230
         H            1.514139391671    -2.115114774940     0.000158412310     1.007825032230
         H            4.103436391671     1.076862225060    -0.000071587690     1.007825032230
         H           -3.248531608329     2.088641225060     0.000145412310     1.007825032230
         H           -4.342056608329    -0.177239774940    -0.000001587690     1.007825032230
         H           -2.877581608329    -2.203576774940    -0.000130587690     1.007825032230

  Basis Set: AUG-CC-PVTZ
    Blend: AUG-CC-PVTZ
  Basis Set: (AUG-CC-PVTZ AUX)
    Blend: AUG-CC-PVTZ-JKFIT
	 Reference Energy          =    -474.3311420412213693 [Eh]
	 Singles Energy            =      -0.0000000000000000 [Eh]
	 Same-Spin Energy          =      -0.5142439603059354 [Eh]
	 Opposite-Spin Energy      =      -1.5566133597777623 [Eh]
	 Correlation Energy        =      -2.0708573200836975 [Eh]
	 Total Energy              =    -476.4019993613050588 [Eh]

	 ================> DF-SCS-MP2 Energies <==================
	-----------------------------------------------------------
	 SCS Same-Spin Scale       =       0.3333333333333333 [-]
	 SCS Opposite-Spin Scale   =       1.2000000000000000 [-]
	 SCS Same-Spin Energy      =      -0.1714146534353118 [Eh]
	 SCS Opposite-Spin Energy  =      -1.8679360317333147 [Eh]
	 SCS Correlation Energy    =      -2.0393506851686265 [Eh]
	 SCS Total Energy          =    -476.3704927263900117 [Eh]
	-----------------------------------------------------------

  Dipole Moment: [D]
     X:    -1.2844      Y:     2.0155      Z:     0.0001     Total:     2.3900

*** Psi4 exiting successfully. Buy a developer a beer!
