                               Psi4 1.3.2 release

  ==> Input File <==

--------------------------------------------------------------------------
#psi4
#
memory 32 gb

molecule  {
0 1
  O        3.0441301    -0.6019579     0.0000491
  N       -1.0742560    -1.1771330    -0.0000800
  C        0.9761220     0.0434820    -0.0000150
  C       -0.4881060     0.0430670    -0.0000040
  C        1.8814630     1.1555170    -0.0001020
  C       -1.2332690     1.2310260     0.0000830
  C        1.7670490    -1.0798270     0.0000780
  C       -2.6240280     1.1598410     0.0000810
  C        3.1400070     0.6275730    -0.0000460
  C       -3.2332050    -0.0939970     0.0000020
  C       -2.4150150    -1.2251180    -0.0000720
  H        1.6419750     2.2104320    -0.0002120
  H       -0.7317970     2.1947500     0.0001580
  H        1.5416230    -2.1350490     0.0001580
  H        4.1309200     1.0569280    -0.0000720
  H       -3.2210480     2.0687070     0.0001450
  H       -4.3145730    -0.1971740    -0.0000020
  H       -2.8500980    -2.2235110    -0.0001310
units angstrom
no_reorient  #important for SAPT in psi4, default
symmetry c1  #important for SAPT in psi4, default
}

set PROPERTIES_ORIGIN ["COM"]
properties('MP2/aug-cc-pvtz', properties = ['dipole'])
--------------------------------------------------------------------------

    Molecular point group: c1
  Charge       = 0
  Multiplicity = 1
  Basis Set: AUG-CC-PVTZ
    Blend: AUG-CC-PVTZ
  Basis Set: (AUG-CC-PVTZ AUX)
    Blend: AUG-CC-PVTZ-JKFIT

    Orbital Energies [Eh]
    ---------------------

    Doubly Occupied:

       1A    -20.628690     2A    -15.566036     3A    -11.290139
       4A    -11.286896     5A    -11.285989     6A    -11.278797
       7A    -11.262353     8A    -11.242663     9A    -11.241354
      10A    -11.238527    11A    -11.219708    12A     -1.513548
      13A     -1.258166    14A     -1.101430    15A     -1.087756
      16A     -1.030495    17A     -1.018885    18A     -0.881563
      19A     -0.863041    20A     -0.800504    21A     -0.773177
      22A     -0.755196    23A     -0.690827    24A     -0.666159
      25A     -0.660739    26A     -0.649454    27A     -0.630600
      28A     -0.587056    29A     -0.574077    30A     -0.559703
      31A     -0.548748    32A     -0.520710    33A     -0.518776
      34A     -0.421887    35A     -0.420803    36A     -0.381889
      37A     -0.336392    38A     -0.303352

  @DF-RHF Final Energy:  -474.31690050624621

   => Energetics <=

    Nuclear Repulsion Energy =            543.6019408436454796
    One-Electron Energy =               -1721.6455137584503063
    Two-Electron Energy =                 703.7266724085586702
    Total Energy =                       -474.3169005062461565
  Basis Set: (AUG-CC-PVTZ AUX)
    Blend: AUG-CC-PVTZ-RI
    Molecular point group: c1

    Geometry (in Angstrom), charge = 0, multiplicity = 1:

       Center              X                  Y                   Z               Mass
    ------------   -----------------  -----------------  -----------------  -----------------
         O            3.022984869055    -0.596617673546     0.000050689431    15.994914619570
         N           -1.095401230945    -1.171792773546    -0.000078410569    14.003074004430
         C            0.954976769055     0.048822226454    -0.000013410569    12.000000000000
         C           -0.509251230945     0.048407226454    -0.000002410569    12.000000000000
         C            1.860317769055     1.160857226454    -0.000100410569    12.000000000000
         C           -1.254414230945     1.236366226454     0.000084589431    12.000000000000
         C            1.745903769055    -1.074486773546     0.000079589431    12.000000000000
         C           -2.645173230945     1.165181226454     0.000082589431    12.000000000000
         C            3.118861769055     0.632913226454    -0.000044410569    12.000000000000
         C           -3.254350230945    -0.088656773546     0.000003589431    12.000000000000
         C           -2.436160230945    -1.219777773546    -0.000070410569    12.000000000000
         H            1.620829769055     2.215772226454    -0.000210410569     1.007825032230
         H           -0.752942230945     2.200090226454     0.000159589431     1.007825032230
         H            1.520477769055    -2.129708773546     0.000159589431     1.007825032230
         H            4.109774769055     1.062268226454    -0.000070410569     1.007825032230
         H           -3.242193230945     2.074047226454     0.000146589431     1.007825032230
         H           -4.335718230945    -0.191833773546    -0.000000410569     1.007825032230
         H           -2.871243230945    -2.218170773546    -0.000129410569     1.007825032230

  Basis Set: AUG-CC-PVTZ
    Blend: AUG-CC-PVTZ
  Basis Set: (AUG-CC-PVTZ AUX)
    Blend: AUG-CC-PVTZ-JKFIT
	 Reference Energy          =    -474.3169005062462134 [Eh]
	 Singles Energy            =      -0.0000000000000000 [Eh]
	 Same-Spin Energy          =      -0.5142682941610104 [Eh]
	 Opposite-Spin Energy      =      -1.5531801763039870 [Eh]
	 Correlation Energy        =      -2.0674484704649974 [Eh]
	 Total Energy              =    -476.3843489767112374 [Eh]

	 ================> DF-SCS-MP2 Energies <==================
	-----------------------------------------------------------
	 SCS Same-Spin Scale       =       0.3333333333333333 [-]
	 SCS Opposite-Spin Scale   =       1.2000000000000000 [-]
	 SCS Same-Spin Energy      =      -0.1714227647203368 [Eh]
	 SCS Opposite-Spin Energy  =      -1.8638162115647843 [Eh]
	 SCS Correlation Energy    =      -2.0352389762851208 [Eh]
	 SCS Total Energy          =    -476.3521394825313564 [Eh]
	-----------------------------------------------------------

  Dipole Moment: [D]
     X:    -1.0890      Y:     1.6530      Z:     0.0001     Total:     1.9795

*** Psi4 exiting successfully. Buy a developer a beer!
