                               Psi4 1.3.2 release

  ==> Input File <==

--------------------------------------------------------------------------
#psi4
#
memory 32 gb

molecule  {
0 1
  O        2.9446267    -0.7250540     0.0000573
  N       -1.0742560    -1.1771330    -0.0000800
  C        0.9761220     0.0434820    -0.0000150
  C       -0.4881060     0.0430670    -0.0000040
  C        1.8814630     1.1555170    -0.0001020
  C       -1.2332690     1.2310260     0.0000830
  C        1.7670490    -1.0798270     0.0000780
  C       -2.6240280     1.1598410     0.0000810
  C        3.1400070     0.6275730    -0.0000460
  C       -3.2332050    -0.0939970     0.0000020
  C       -2.4150150    -1.2251180    -0.0000720
  H        1.6419750     2.2104320    -0.0002120
  H       -0.7317970     2.1947500     0.0001580
  H        1.5416230    -2.1350490     0.0001580
  H        4.1309200     1.0569280    -0.0000720
  H       -3.2210480     2.0687070     0.0001450
  H       -4.3145730    -0.1971740    -0.0000020
  H       -2.8500980    -2.2235110    -0.0001310
units angstrom
no_reorient  #important for SAPT in psi4, default
symmetry c1  #important for SAPT in psi4, default
}

set PROPERTIES_ORIGIN ["COM"]
properties('MP2/aug-cc-pvtz', properties = ['dipole'])
--------------------------------------------------------------------------

    Molecular point group: c1
  Charge       = 0
  Multiplicity = 1
  Basis Set: AUG-CC-PVTZ
    Blend: AUG-CC-PVTZ
  Basis Set: (AUG-CC-PVTZ AUX)
    Blend: AUG-CC-PVTZ-JKFIT

    Orbital Energies [Eh]
    ---------------------

    Doubly Occupied:

       1A    -20.632752     2A    -15.559169     3A    -11.289882
       4A    -11.289831     5A    -11.286187     6A    -11.274945
       7A    -11.258575     8A    -11.239520     9A    -11.236398
      10A    -11.234615    11A    -11.223908    12A     -1.517921
      13A     -1.252831    14A     -1.099112    15A     -1.083269
      16A     -1.045313    17A     -1.007502    18A     -0.874265
      19A     -0.859454    20A     -0.807139    21A     -0.776420
      22A     -0.755787    23A     -0.687091    24A     -0.669649
      25A     -0.659513    26A     -0.649747    27A     -0.624324
      28A     -0.580501    29A     -0.577867    30A     -0.567136
      31A     -0.543941    32A     -0.522048    33A     -0.514417
      34A     -0.417842    35A     -0.416238    36A     -0.379936
      37A     -0.351584    38A     -0.291353

  @DF-RHF Final Energy:  -474.31762000153185

   => Energetics <=

    Nuclear Repulsion Energy =            544.2024987780572474
    One-Electron Energy =               -1722.9242736273004084
    Two-Electron Energy =                 704.4041548477111974
    Total Energy =                       -474.3176200015318500
  Basis Set: (AUG-CC-PVTZ AUX)
    Blend: AUG-CC-PVTZ-RI
    Molecular point group: c1

    Geometry (in Angstrom), charge = 0, multiplicity = 1:

       Center              X                  Y                   Z               Mass
    ------------   -----------------  -----------------  -----------------  -----------------
         O            2.934453672171    -0.706140012128     0.000057985220    15.994914619570
         N           -1.084429027829    -1.158219012128    -0.000079314780    14.003074004430
         C            0.965948972171     0.062395987872    -0.000014314780    12.000000000000
         C           -0.498279027829     0.061980987872    -0.000003314780    12.000000000000
         C            1.871289972171     1.174430987872    -0.000101314780    12.000000000000
         C           -1.243442027829     1.249939987872     0.000083685220    12.000000000000
         C            1.756875972171    -1.060913012128     0.000078685220    12.000000000000
         C           -2.634201027829     1.178754987872     0.000081685220    12.000000000000
         C            3.129833972171     0.646486987872    -0.000045314780    12.000000000000
         C           -3.243378027829    -0.075083012128     0.000002685220    12.000000000000
         C           -2.425188027829    -1.206204012128    -0.000071314780    12.000000000000
         H            1.631801972171     2.229345987872    -0.000211314780     1.007825032230
         H           -0.741970027829     2.213663987872     0.000158685220     1.007825032230
         H            1.531449972171    -2.116135012128     0.000158685220     1.007825032230
         H            4.120746972171     1.075841987872    -0.000071314780     1.007825032230
         H           -3.231221027829     2.087620987872     0.000145685220     1.007825032230
         H           -4.324746027829    -0.178260012128    -0.000001314780     1.007825032230
         H           -2.860271027829    -2.204597012128    -0.000130314780     1.007825032230

  Basis Set: AUG-CC-PVTZ
    Blend: AUG-CC-PVTZ
  Basis Set: (AUG-CC-PVTZ AUX)
    Blend: AUG-CC-PVTZ-JKFIT
	 Reference Energy          =    -474.3176200015318500 [Eh]
	 Singles Energy            =      -0.0000000000000000 [Eh]
	 Same-Spin Energy          =      -0.5138993431234551 [Eh]
	 Opposite-Spin Energy      =      -1.5524881922804110 [Eh]
	 Correlation Energy        =      -2.0663875354038659 [Eh]
	 Total Energy              =    -476.3840075369357123 [Eh]

	 ================> DF-SCS-MP2 Energies <==================
	-----------------------------------------------------------
	 SCS Same-Spin Scale       =       0.3333333333333333 [-]
	 SCS Opposite-Spin Scale   =       1.2000000000000000 [-]
	 SCS Same-Spin Energy      =      -0.1712997810411517 [Eh]
	 SCS Opposite-Spin Energy  =      -1.8629858307364930 [Eh]
	 SCS Correlation Energy    =      -2.0342856117776447 [Eh]
	 SCS Total Energy          =    -476.3519056133094978 [Eh]
	-----------------------------------------------------------

  Dipole Moment: [D]
     X:    -0.5831      Y:     1.8636      Z:     0.0001     Total:     1.9527

*** Psi4 exiting successfully. Buy a developer a beer!
