                               Psi4 1.3.2 release

  ==> Input File <==

--------------------------------------------------------------------------
#psi4
#
memory 32 gb

molecule  {
0 1
  O        3.0870850    -0.7380670     0.0000600
  N       -1.0742560    -1.1771330    -0.0000800
  C        0.8630370    -0.0453460    -0.0000090
  C       -0.4881060     0.0430670    -0.0000040
  C        1.8814630     1.1555170    -0.0001020
  C       -1.2332690     1.2310260     0.0000830
  C        1.7670490    -1.0798270     0.0000780
  C       -2.6240280     1.1598410     0.0000810
  C        3.1400070     0.6275730    -0.0000460
  C       -3.2332050    -0.0939970     0.0000020
  C       -2.4150150    -1.2251180    -0.0000720
  H        1.6419750     2.2104320    -0.0002120
  H       -0.7317970     2.1947500     0.0001580
  H        1.5416230    -2.1350490     0.0001580
  H        4.1309200     1.0569280    -0.0000720
  H       -3.2210480     2.0687070     0.0001450
  H       -4.3145730    -0.1971740    -0.0000020
  H       -2.8500980    -2.2235110    -0.0001310
units angstrom
no_reorient  #important for SAPT in psi4, default
symmetry c1  #important for SAPT in psi4, default
}

set PROPERTIES_ORIGIN ["COM"]
properties('MP2/aug-cc-pvtz', properties = ['dipole'])
--------------------------------------------------------------------------

    Molecular point group: c1
  Charge       = 0
  Multiplicity = 1
  Basis Set: AUG-CC-PVTZ
    Blend: AUG-CC-PVTZ
  Basis Set: (AUG-CC-PVTZ AUX)
    Blend: AUG-CC-PVTZ-JKFIT

    Orbital Energies [Eh]
    ---------------------

    Doubly Occupied:

       1A    -20.629428     2A    -15.563618     3A    -11.302969
       4A    -11.295210     5A    -11.284128     6A    -11.278682
       7A    -11.263972     8A    -11.245511     9A    -11.244998
      10A    -11.242954    11A    -11.241056    12A     -1.458643
      13A     -1.263506    14A     -1.104035    15A     -1.088007
      16A     -1.028384    17A     -1.000942    18A     -0.891520
      19A     -0.865621    20A     -0.797551    21A     -0.770754
      22A     -0.744552    23A     -0.686519    24A     -0.665232
      25A     -0.656025    26A     -0.636179    27A     -0.609195
      28A     -0.593506    29A     -0.578513    30A     -0.563964
      31A     -0.554059    32A     -0.532749    33A     -0.496799
      34A     -0.425551    35A     -0.424260    36A     -0.382612
      37A     -0.349426    38A     -0.297523

  @DF-RHF Final Energy:  -474.30608856966023

   => Energetics <=

    Nuclear Repulsion Energy =            540.0693006723123517
    One-Electron Energy =               -1714.6344762462033486
    Two-Electron Energy =                 700.2590870042306506
    Total Energy =                       -474.3060885696602327
  Basis Set: (AUG-CC-PVTZ AUX)
    Blend: AUG-CC-PVTZ-RI
    Molecular point group: c1

    Geometry (in Angstrom), charge = 0, multiplicity = 1:

       Center              X                  Y                   Z               Mass
    ------------   -----------------  -----------------  -----------------  -----------------
         O            3.070558502434    -0.710369464747     0.000059891121    15.994914619570
         N           -1.090782497566    -1.149435464747    -0.000080108879    14.003074004430
         C            0.846510502434    -0.017648464747    -0.000009108879    12.000000000000
         C           -0.504632497566     0.070764535253    -0.000004108879    12.000000000000
         C            1.864936502434     1.183214535253    -0.000102108879    12.000000000000
         C           -1.249795497566     1.258723535253     0.000082891121    12.000000000000
         C            1.750522502434    -1.052129464747     0.000077891121    12.000000000000
         C           -2.640554497566     1.187538535253     0.000080891121    12.000000000000
         C            3.123480502434     0.655270535253    -0.000046108879    12.000000000000
         C           -3.249731497566    -0.066299464747     0.000001891121    12.000000000000
         C           -2.431541497566    -1.197420464747    -0.000072108879    12.000000000000
         H            1.625448502434     2.238129535253    -0.000212108879     1.007825032230
         H           -0.748323497566     2.222447535253     0.000157891121     1.007825032230
         H            1.525096502434    -2.107351464747     0.000157891121     1.007825032230
         H            4.114393502434     1.084625535253    -0.000072108879     1.007825032230
         H           -3.237574497566     2.096404535253     0.000144891121     1.007825032230
         H           -4.331099497566    -0.169476464747    -0.000002108879     1.007825032230
         H           -2.866624497566    -2.195813464747    -0.000131108879     1.007825032230

  Basis Set: AUG-CC-PVTZ
    Blend: AUG-CC-PVTZ
  Basis Set: (AUG-CC-PVTZ AUX)
    Blend: AUG-CC-PVTZ-JKFIT
	 Reference Energy          =    -474.3060885696602327 [Eh]
	 Singles Energy            =      -0.0000000000000000 [Eh]
	 Same-Spin Energy          =      -0.5143711139829226 [Eh]
	 Opposite-Spin Energy      =      -1.5589498497039695 [Eh]
	 Correlation Energy        =      -2.0733209636868919 [Eh]
	 Total Energy              =    -476.3794095333471432 [Eh]

	 ================> DF-SCS-MP2 Energies <==================
	-----------------------------------------------------------
	 SCS Same-Spin Scale       =       0.3333333333333333 [-]
	 SCS Opposite-Spin Scale   =       1.2000000000000000 [-]
	 SCS Same-Spin Energy      =      -0.1714570379943075 [Eh]
	 SCS Opposite-Spin Energy  =      -1.8707398196447633 [Eh]
	 SCS Correlation Energy    =      -2.0421968576390710 [Eh]
	 SCS Total Energy          =    -476.3482854272992881 [Eh]
	-----------------------------------------------------------

  Dipole Moment: [D]
     X:    -1.3458      Y:     2.0124      Z:     0.0001     Total:     2.4209

*** Psi4 exiting successfully. Buy a developer a beer!
