                               Psi4 1.4a3.dev225

  ==> Input File <==

--------------------------------------------------------------------------
#psi4
#
memory 32 gb

molecule  {
0 1
  O        3.0870850    -0.7380670     0.0000600
  N       -1.0742560    -1.1771330    -0.0000800
  C        0.9761220     0.0434820    -0.0000150
  C       -0.4881060     0.0430670    -0.0000040
  C        1.8814630     1.1555170    -0.0001020
  C       -1.2332690     1.2310260     0.0000830
  C        1.7186450    -1.0923589     0.0000787
  C       -2.6240280     1.1598410     0.0000810
  C        3.1400070     0.6275730    -0.0000460
  C       -3.2332050    -0.0939970     0.0000020
  C       -2.4150150    -1.2251180    -0.0000720
  H        1.6419750     2.2104320    -0.0002120
  H       -0.7317970     2.1947500     0.0001580
  H        1.5416230    -2.1350490     0.0001580
  H        4.1309200     1.0569280    -0.0000720
  H       -3.2210480     2.0687070     0.0001450
  H       -4.3145730    -0.1971740    -0.0000020
  H       -2.8500980    -2.2235110    -0.0001310
units angstrom
no_reorient  #important for SAPT in psi4, default
symmetry c1  #important for SAPT in psi4, default
}

set PROPERTIES_ORIGIN ["COM"]
properties('MP2/aug-cc-pvtz', properties = ['dipole'])
--------------------------------------------------------------------------

    Molecular point group: c1
  Charge       = 0
  Multiplicity = 1
  Basis Set: AUG-CC-PVTZ
    Blend: AUG-CC-PVTZ
  Basis Set: (AUG-CC-PVTZ AUX)
    Blend: AUG-CC-PVTZ-JKFIT

    Orbital Energies [Eh]
    ---------------------

    Doubly Occupied:

       1A    -20.620690     2A    -15.566957     3A    -11.295457
       4A    -11.292530     5A    -11.291198     6A    -11.280443
       7A    -11.264139     8A    -11.244334     9A    -11.242304
      10A    -11.241252    11A    -11.235702    12A     -1.438565
      13A     -1.259891    14A     -1.107055    15A     -1.089528
      16A     -1.032741    17A     -0.997811    18A     -0.875056
      19A     -0.863936    20A     -0.792504    21A     -0.780685
      22A     -0.743169    23A     -0.685887    24A     -0.663404
      25A     -0.644317    26A     -0.624297    27A     -0.606081
      28A     -0.587430    29A     -0.573980    30A     -0.570943
      31A     -0.549593    32A     -0.539270    33A     -0.521067
      34A     -0.425990    35A     -0.423250    36A     -0.384482
      37A     -0.347443    38A     -0.303114

  @DF-RHF Final Energy:  -474.32759335692663

   => Energetics <=

    Nuclear Repulsion Energy =            539.6453304536315727
    One-Electron Energy =               -1713.9328562949926891
    Two-Electron Energy =                 699.9599324844343755
    Total Energy =                       -474.3275933569266272
  Basis Set: (AUG-CC-PVTZ AUX)
    Blend: AUG-CC-PVTZ-RI
    Molecular point group: c1

    Geometry (in Angstrom), charge = 0, multiplicity = 1:

       Center              X                  Y                   Z               Mass
    ------------   -----------------  -----------------  -----------------  -----------------
         O            3.065207539244    -0.716681327932     0.000060329582    15.994914619570
         N           -1.096133460756    -1.155747327932    -0.000079670418    14.003074004430
         C            0.954244539244     0.064867672068    -0.000014670418    12.000000000000
         C           -0.509983460756     0.064452672068    -0.000003670418    12.000000000000
         C            1.859585539244     1.176902672068    -0.000101670418    12.000000000000
         C           -1.255146460756     1.252411672068     0.000083329582    12.000000000000
         C            1.696767539244    -1.070973227932     0.000079029582    12.000000000000
         C           -2.645905460756     1.181226672068     0.000081329582    12.000000000000
         C            3.118129539244     0.648958672068    -0.000045670418    12.000000000000
         C           -3.255082460756    -0.072611327932     0.000002329582    12.000000000000
         C           -2.436892460756    -1.203732327932    -0.000071670418    12.000000000000
         H            1.620097539244     2.231817672068    -0.000211670418     1.007825032230
         H           -0.753674460756     2.216135672068     0.000158329582     1.007825032230
         H            1.519745539244    -2.113663327932     0.000158329582     1.007825032230
         H            4.109042539244     1.078313672068    -0.000071670418     1.007825032230
         H           -3.242925460756     2.090092672068     0.000145329582     1.007825032230
         H           -4.336450460756    -0.175788327932    -0.000001670418     1.007825032230
         H           -2.871975460756    -2.202125327932    -0.000130670418     1.007825032230

  Basis Set: AUG-CC-PVTZ
    Blend: AUG-CC-PVTZ
  Basis Set: (AUG-CC-PVTZ AUX)
    Blend: AUG-CC-PVTZ-JKFIT
	 Reference Energy          =    -474.3275933569266272 [Eh]
	 Singles Energy            =      -0.0000000000000000 [Eh]
	 Same-Spin Energy          =      -0.5141437553320756 [Eh]
	 Opposite-Spin Energy      =      -1.5578517736517308 [Eh]
	 Correlation Energy        =      -2.0719955289838063 [Eh]
	 Total Energy              =    -476.3995888859104184 [Eh]

	 ================> DF-SCS-MP2 Energies <==================
	-----------------------------------------------------------
	 SCS Same-Spin Scale       =       0.3333333333333333 [-]
	 SCS Opposite-Spin Scale   =       1.2000000000000000 [-]
	 SCS Same-Spin Energy      =      -0.1713812517773585 [Eh]
	 SCS Opposite-Spin Energy  =      -1.8694221283820769 [Eh]
	 SCS Correlation Energy    =      -2.0408033801594354 [Eh]
	 SCS Total Energy          =    -476.3683967370860728 [Eh]
	-----------------------------------------------------------

  Dipole Moment: [D]
     X:    -1.4874      Y:     2.0343      Z:     0.0001     Total:     2.5200

*** Psi4 exiting successfully. Buy a developer a beer!
