                               Psi4 1.4a3.dev225

  ==> Input File <==

--------------------------------------------------------------------------
#psi4
#
memory 32 gb

molecule  {
0 1
  O        3.0870850    -0.7380670     0.0000600
  N       -1.0742560    -1.1771330    -0.0000800
  C        0.9761220     0.0434820    -0.0000150
  C       -0.4881060     0.0430670    -0.0000040
  C        1.8688359     1.1400071    -0.0001008
  C       -1.2332690     1.2310260     0.0000830
  C        1.7670490    -1.0798270     0.0000780
  C       -2.6240280     1.1598410     0.0000810
  C        3.1400070     0.6275730    -0.0000460
  C       -3.2332050    -0.0939970     0.0000020
  C       -2.4150150    -1.2251180    -0.0000720
  H        1.6419750     2.2104320    -0.0002120
  H       -0.7317970     2.1947500     0.0001580
  H        1.5416230    -2.1350490     0.0001580
  H        4.1309200     1.0569280    -0.0000720
  H       -3.2210480     2.0687070     0.0001450
  H       -4.3145730    -0.1971740    -0.0000020
  H       -2.8500980    -2.2235110    -0.0001310
units angstrom
no_reorient  #important for SAPT in psi4, default
symmetry c1  #important for SAPT in psi4, default
}

set PROPERTIES_ORIGIN ["COM"]
properties('MP2/aug-cc-pvtz', properties = ['dipole'])
--------------------------------------------------------------------------

    Molecular point group: c1
  Charge       = 0
  Multiplicity = 1
  Basis Set: AUG-CC-PVTZ
    Blend: AUG-CC-PVTZ
  Basis Set: (AUG-CC-PVTZ AUX)
    Blend: AUG-CC-PVTZ-JKFIT

    Orbital Energies [Eh]
    ---------------------

    Doubly Occupied:

       1A    -20.629196     2A    -15.565891     3A    -11.293595
       4A    -11.293131     5A    -11.292382     6A    -11.279580
       7A    -11.263465     8A    -11.243519     9A    -11.241298
      10A    -11.238054    11A    -11.236945    12A     -1.459230
      13A     -1.258815    14A     -1.108311    15A     -1.088788
      16A     -1.033659    17A     -0.997801    18A     -0.875608
      19A     -0.863649    20A     -0.794667    21A     -0.779071
      22A     -0.744818    23A     -0.687608    24A     -0.662381
      25A     -0.645952    26A     -0.635838    27A     -0.607126
      28A     -0.586559    29A     -0.575989    30A     -0.567769
      31A     -0.549119    32A     -0.539869    33A     -0.521443
      34A     -0.426337    35A     -0.422144    36A     -0.383988
      37A     -0.347660    38A     -0.298410

  @DF-RHF Final Energy:  -474.32990698660012

   => Energetics <=

    Nuclear Repulsion Energy =            540.2149510329323903
    One-Electron Energy =               -1715.0103860349809111
    Two-Electron Energy =                 700.4655280154485126
    Total Energy =                       -474.3299069866001219
  Basis Set: (AUG-CC-PVTZ AUX)
    Blend: AUG-CC-PVTZ-RI
    Molecular point group: c1

    Geometry (in Angstrom), charge = 0, multiplicity = 1:

       Center              X                  Y                   Z               Mass
    ------------   -----------------  -----------------  -----------------  -----------------
         O            3.062247769374    -0.716434962409     0.000060288217    15.994914619570
         N           -1.099093230626    -1.155500962409    -0.000079711783    14.003074004430
         C            0.951284769374     0.065114037591    -0.000014711783    12.000000000000
         C           -0.512943230626     0.064699037591    -0.000003711783    12.000000000000
         C            1.843998669374     1.161639137591    -0.000100511783    12.000000000000
         C           -1.258106230626     1.252658037591     0.000083288217    12.000000000000
         C            1.742211769374    -1.058194962409     0.000078288217    12.000000000000
         C           -2.648865230626     1.181473037591     0.000081288217    12.000000000000
         C            3.115169769374     0.649205037591    -0.000045711783    12.000000000000
         C           -3.258042230626    -0.072364962409     0.000002288217    12.000000000000
         C           -2.439852230626    -1.203485962409    -0.000071711783    12.000000000000
         H            1.617137769374     2.232064037591    -0.000211711783     1.007825032230
         H           -0.756634230626     2.216382037591     0.000158288217     1.007825032230
         H            1.516785769374    -2.113416962409     0.000158288217     1.007825032230
         H            4.106082769374     1.078560037591    -0.000071711783     1.007825032230
         H           -3.245885230626     2.090339037591     0.000145288217     1.007825032230
         H           -4.339410230626    -0.175541962409    -0.000001711783     1.007825032230
         H           -2.874935230626    -2.201878962409    -0.000130711783     1.007825032230

  Basis Set: AUG-CC-PVTZ
    Blend: AUG-CC-PVTZ
  Basis Set: (AUG-CC-PVTZ AUX)
    Blend: AUG-CC-PVTZ-JKFIT
	 Reference Energy          =    -474.3299069866001219 [Eh]
	 Singles Energy            =      -0.0000000000000000 [Eh]
	 Same-Spin Energy          =      -0.5146424995716736 [Eh]
	 Opposite-Spin Energy      =      -1.5574091468391416 [Eh]
	 Correlation Energy        =      -2.0720516464108152 [Eh]
	 Total Energy              =    -476.4019586330109632 [Eh]

	 ================> DF-SCS-MP2 Energies <==================
	-----------------------------------------------------------
	 SCS Same-Spin Scale       =       0.3333333333333333 [-]
	 SCS Opposite-Spin Scale   =       1.2000000000000000 [-]
	 SCS Same-Spin Energy      =      -0.1715474998572245 [Eh]
	 SCS Opposite-Spin Energy  =      -1.8688909762069699 [Eh]
	 SCS Correlation Energy    =      -2.0404384760641943 [Eh]
	 SCS Total Energy          =    -476.3703454626643179 [Eh]
	-----------------------------------------------------------

  Dipole Moment: [D]
     X:    -1.3506      Y:     2.0180      Z:     0.0001     Total:     2.4282

*** Psi4 exiting successfully. Buy a developer a beer!
