                               Psi4 1.4a3.dev225

  ==> Input File <==

--------------------------------------------------------------------------
#psi4
#
memory 32 gb

molecule  {
0 1
  O        3.0870850    -0.7380670     0.0000600
  N       -1.0742560    -1.1771330    -0.0000800
  C        0.9761220     0.0434820    -0.0000150
  C       -0.4881060     0.0430670    -0.0000040
  C        1.8498953     1.1167423    -0.0000990
  C       -1.2332690     1.2310260     0.0000830
  C        1.7670490    -1.0798270     0.0000780
  C       -2.6240280     1.1598410     0.0000810
  C        3.1400070     0.6275730    -0.0000460
  C       -3.2332050    -0.0939970     0.0000020
  C       -2.4150150    -1.2251180    -0.0000720
  H        1.6419750     2.2104320    -0.0002120
  H       -0.7317970     2.1947500     0.0001580
  H        1.5416230    -2.1350490     0.0001580
  H        4.1309200     1.0569280    -0.0000720
  H       -3.2210480     2.0687070     0.0001450
  H       -4.3145730    -0.1971740    -0.0000020
  H       -2.8500980    -2.2235110    -0.0001310
units angstrom
no_reorient  #important for SAPT in psi4, default
symmetry c1  #important for SAPT in psi4, default
}

set PROPERTIES_ORIGIN ["COM"]
properties('MP2/aug-cc-pvtz', properties = ['dipole'])
--------------------------------------------------------------------------

    Molecular point group: c1
  Charge       = 0
  Multiplicity = 1
  Basis Set: AUG-CC-PVTZ
    Blend: AUG-CC-PVTZ
  Basis Set: (AUG-CC-PVTZ AUX)
    Blend: AUG-CC-PVTZ-JKFIT

    Orbital Energies [Eh]
    ---------------------

    Doubly Occupied:

       1A    -20.630126     2A    -15.566214     3A    -11.293276
       4A    -11.292853     5A    -11.292541     6A    -11.279716
       7A    -11.263613     8A    -11.243706     9A    -11.241582
      10A    -11.237505    11A    -11.235269    12A     -1.459798
      13A     -1.259136    14A     -1.112859    15A     -1.089035
      16A     -1.033334    17A     -0.997005    18A     -0.875741
      19A     -0.864035    20A     -0.792858    21A     -0.781171
      22A     -0.744562    23A     -0.688311    24A     -0.662233
      25A     -0.645634    26A     -0.636133    27A     -0.607477
      28A     -0.588599    29A     -0.577227    30A     -0.560395
      31A     -0.549432    32A     -0.542045    33A     -0.522493
      34A     -0.429098    35A     -0.422375    36A     -0.384223
      37A     -0.346203    38A     -0.297295

  @DF-RHF Final Energy:  -474.32615477844979

   => Energetics <=

    Nuclear Repulsion Energy =            540.7268793590764062
    One-Electron Energy =               -1716.0158520646764373
    Two-Electron Energy =                 700.9628179271501267
    Total Energy =                       -474.3261547784497907
  Basis Set: (AUG-CC-PVTZ AUX)
    Blend: AUG-CC-PVTZ-RI
    Molecular point group: c1

    Geometry (in Angstrom), charge = 0, multiplicity = 1:

       Center              X                  Y                   Z               Mass
    ------------   -----------------  -----------------  -----------------  -----------------
         O            3.063814697117    -0.714510300014     0.000060139306    15.994914619570
         N           -1.097526302883    -1.153576300014    -0.000079860694    14.003074004430
         C            0.952851697117     0.067038699986    -0.000014860694    12.000000000000
         C           -0.511376302883     0.066623699986    -0.000003860694    12.000000000000
         C            1.826624997117     1.140298999986    -0.000098860694    12.000000000000
         C           -1.256539302883     1.254582699986     0.000083139306    12.000000000000
         C            1.743778697117    -1.056270300014     0.000078139306    12.000000000000
         C           -2.647298302883     1.183397699986     0.000081139306    12.000000000000
         C            3.116736697117     0.651129699986    -0.000045860694    12.000000000000
         C           -3.256475302883    -0.070440300014     0.000002139306    12.000000000000
         C           -2.438285302883    -1.201561300014    -0.000071860694    12.000000000000
         H            1.618704697117     2.233988699986    -0.000211860694     1.007825032230
         H           -0.755067302883     2.218306699986     0.000158139306     1.007825032230
         H            1.518352697117    -2.111492300014     0.000158139306     1.007825032230
         H            4.107649697117     1.080484699986    -0.000071860694     1.007825032230
         H           -3.244318302883     2.092263699986     0.000145139306     1.007825032230
         H           -4.337843302883    -0.173617300014    -0.000001860694     1.007825032230
         H           -2.873368302883    -2.199954300014    -0.000130860694     1.007825032230

  Basis Set: AUG-CC-PVTZ
    Blend: AUG-CC-PVTZ
  Basis Set: (AUG-CC-PVTZ AUX)
    Blend: AUG-CC-PVTZ-JKFIT
	 Reference Energy          =    -474.3261547784497907 [Eh]
	 Singles Energy            =      -0.0000000000000000 [Eh]
	 Same-Spin Energy          =      -0.5153660374822699 [Eh]
	 Opposite-Spin Energy      =      -1.5582217417071733 [Eh]
	 Correlation Energy        =      -2.0735877791894435 [Eh]
	 Total Energy              =    -476.3997425576392288 [Eh]

	 ================> DF-SCS-MP2 Energies <==================
	-----------------------------------------------------------
	 SCS Same-Spin Scale       =       0.3333333333333333 [-]
	 SCS Opposite-Spin Scale   =       1.2000000000000000 [-]
	 SCS Same-Spin Energy      =      -0.1717886791607566 [Eh]
	 SCS Opposite-Spin Energy  =      -1.8698660900486079 [Eh]
	 SCS Correlation Energy    =      -2.0416547692093645 [Eh]
	 SCS Total Energy          =    -476.3678095476591352 [Eh]
	-----------------------------------------------------------

  Dipole Moment: [D]
     X:    -1.3632      Y:     2.0108      Z:     0.0001     Total:     2.4294

*** Psi4 exiting successfully. Buy a developer a beer!
