                               Psi4 1.3.2 release

  ==> Input File <==

--------------------------------------------------------------------------
#psi4
#
memory 32 gb

molecule  {
0 1
  O        3.0870850    -0.7380670     0.0000600
  N       -1.0742560    -1.1771330    -0.0000800
  C        0.9378640     0.0757554    -0.0000181
  C       -0.4881060     0.0430670    -0.0000040
  C        1.8814630     1.1555170    -0.0001020
  C       -1.2332690     1.2310260     0.0000830
  C        1.7670490    -1.0798270     0.0000780
  C       -2.6240280     1.1598410     0.0000810
  C        3.1400070     0.6275730    -0.0000460
  C       -3.2332050    -0.0939970     0.0000020
  C       -2.4150150    -1.2251180    -0.0000720
  H        1.6419750     2.2104320    -0.0002120
  H       -0.7317970     2.1947500     0.0001580
  H        1.5416230    -2.1350490     0.0001580
  H        4.1309200     1.0569280    -0.0000720
  H       -3.2210480     2.0687070     0.0001450
  H       -4.3145730    -0.1971740    -0.0000020
  H       -2.8500980    -2.2235110    -0.0001310
units angstrom
no_reorient  #important for SAPT in psi4, default
symmetry c1  #important for SAPT in psi4, default
}

set PROPERTIES_ORIGIN ["COM"]
properties('MP2/aug-cc-pvtz', properties = ['dipole'])
--------------------------------------------------------------------------

    Molecular point group: c1
  Charge       = 0
  Multiplicity = 1
  Basis Set: AUG-CC-PVTZ
    Blend: AUG-CC-PVTZ
  Basis Set: (AUG-CC-PVTZ AUX)
    Blend: AUG-CC-PVTZ-JKFIT

    Orbital Energies [Eh]
    ---------------------

    Doubly Occupied:

       1A    -20.633670     2A    -15.565058     3A    -11.302972
       4A    -11.293260     5A    -11.289678     6A    -11.279380
       7A    -11.262630     8A    -11.242744     9A    -11.242040
      10A    -11.240157    11A    -11.239538    12A     -1.460602
      13A     -1.259102    14A     -1.105815    15A     -1.088078
      16A     -1.035278    17A     -0.993929    18A     -0.880825
      19A     -0.863641    20A     -0.792618    21A     -0.779681
      22A     -0.745310    23A     -0.687715    24A     -0.662850
      25A     -0.648872    26A     -0.635987    27A     -0.608513
      28A     -0.588210    29A     -0.576347    30A     -0.570423
      31A     -0.550063    32A     -0.531917    33A     -0.523833
      34A     -0.425987    35A     -0.421522    36A     -0.383644
      37A     -0.349287    38A     -0.291524

  @DF-RHF Final Energy:  -474.32439577524377

   => Energetics <=

    Nuclear Repulsion Energy =            539.7784329547480411
    One-Electron Energy =               -1714.1002572552768015
    Two-Electron Energy =                 699.9974285252850450
    Total Energy =                       -474.3243957752437154
  Basis Set: (AUG-CC-PVTZ AUX)
    Blend: AUG-CC-PVTZ-RI
    Molecular point group: c1

    Geometry (in Angstrom), charge = 0, multiplicity = 1:

       Center              X                  Y                   Z               Mass
    ------------   -----------------  -----------------  -----------------  -----------------
         O            3.064368175713    -0.720388003943     0.000060643950    15.994914619570
         N           -1.096972824287    -1.159454003943    -0.000079356050    14.003074004430
         C            0.915147175713     0.093434396057    -0.000017456050    12.000000000000
         C           -0.510822824287     0.060745996057    -0.000003356050    12.000000000000
         C            1.858746175713     1.173195996057    -0.000101356050    12.000000000000
         C           -1.255985824287     1.248704996057     0.000083643950    12.000000000000
         C            1.744332175713    -1.062148003943     0.000078643950    12.000000000000
         C           -2.646744824287     1.177519996057     0.000081643950    12.000000000000
         C            3.117290175713     0.645251996057    -0.000045356050    12.000000000000
         C           -3.255921824287    -0.076318003943     0.000002643950    12.000000000000
         C           -2.437731824287    -1.207439003943    -0.000071356050    12.000000000000
         H            1.619258175713     2.228110996057    -0.000211356050     1.007825032230
         H           -0.754513824287     2.212428996057     0.000158643950     1.007825032230
         H            1.518906175713    -2.117370003943     0.000158643950     1.007825032230
         H            4.108203175713     1.074606996057    -0.000071356050     1.007825032230
         H           -3.243764824287     2.086385996057     0.000145643950     1.007825032230
         H           -4.337289824287    -0.179495003943    -0.000001356050     1.007825032230
         H           -2.872814824287    -2.205832003943    -0.000130356050     1.007825032230

  Basis Set: AUG-CC-PVTZ
    Blend: AUG-CC-PVTZ
  Basis Set: (AUG-CC-PVTZ AUX)
    Blend: AUG-CC-PVTZ-JKFIT
	 Reference Energy          =    -474.3243957752437723 [Eh]
	 Singles Energy            =      -0.0000000000000000 [Eh]
	 Same-Spin Energy          =      -0.5155169610019167 [Eh]
	 Opposite-Spin Energy      =      -1.5590763872291418 [Eh]
	 Correlation Energy        =      -2.0745933482310583 [Eh]
	 Total Energy              =    -476.3989891234748484 [Eh]

	 ================> DF-SCS-MP2 Energies <==================
	-----------------------------------------------------------
	 SCS Same-Spin Scale       =       0.3333333333333333 [-]
	 SCS Opposite-Spin Scale   =       1.2000000000000000 [-]
	 SCS Same-Spin Energy      =      -0.1718389870006389 [Eh]
	 SCS Opposite-Spin Energy  =      -1.8708916646749700 [Eh]
	 SCS Correlation Energy    =      -2.0427306516756087 [Eh]
	 SCS Total Energy          =    -476.3671264269193557 [Eh]
	-----------------------------------------------------------

  Dipole Moment: [D]
     X:    -1.2703      Y:     2.0174      Z:     0.0001     Total:     2.3841

*** Psi4 exiting successfully. Buy a developer a beer!
