                               Psi4 1.3.2 release

  ==> Input File <==

--------------------------------------------------------------------------
#psi4
#
memory 32 gb

molecule  {
0 1
  O        3.0982081    -0.7843438     0.0000637
  N       -1.0742560    -1.1771330    -0.0000800
  C        0.9761220     0.0434820    -0.0000150
  C       -0.4881060     0.0430670    -0.0000040
  C        1.8814630     1.1555170    -0.0001020
  C       -1.2332690     1.2310260     0.0000830
  C        1.7670490    -1.0798270     0.0000780
  C       -2.6240280     1.1598410     0.0000810
  C        3.1400070     0.6275730    -0.0000460
  C       -3.2332050    -0.0939970     0.0000020
  C       -2.4150150    -1.2251180    -0.0000720
  H        1.6419750     2.2104320    -0.0002120
  H       -0.7317970     2.1947500     0.0001580
  H        1.5416230    -2.1350490     0.0001580
  H        4.1309200     1.0569280    -0.0000720
  H       -3.2210480     2.0687070     0.0001450
  H       -4.3145730    -0.1971740    -0.0000020
  H       -2.8500980    -2.2235110    -0.0001310
units angstrom
no_reorient  #important for SAPT in psi4, default
symmetry c1  #important for SAPT in psi4, default
}

set PROPERTIES_ORIGIN ["COM"]
properties('MP2/aug-cc-pvtz', properties = ['dipole'])
--------------------------------------------------------------------------

    Molecular point group: c1
  Charge       = 0
  Multiplicity = 1
  Basis Set: AUG-CC-PVTZ
    Blend: AUG-CC-PVTZ
  Basis Set: (AUG-CC-PVTZ AUX)
    Blend: AUG-CC-PVTZ-JKFIT

    Orbital Energies [Eh]
    ---------------------

    Doubly Occupied:

       1A    -20.628500     2A    -15.565515     3A    -11.296244
       4A    -11.296080     5A    -11.292898     6A    -11.279650
       7A    -11.263628     8A    -11.243570     9A    -11.243004
      10A    -11.240985    11A    -11.239111    12A     -1.444388
      13A     -1.258703    14A     -1.107910    15A     -1.088799
      16A     -1.035282    17A     -0.992454    18A     -0.873997
      19A     -0.863126    20A     -0.794636    21A     -0.779245
      22A     -0.742598    23A     -0.685915    24A     -0.663067
      25A     -0.645847    26A     -0.627779    27A     -0.600572
      28A     -0.583185    29A     -0.577811    30A     -0.573055
      31A     -0.548866    32A     -0.541661    33A     -0.520708
      34A     -0.426501    35A     -0.421940    36A     -0.384494
      37A     -0.352078    38A     -0.297678

  @DF-RHF Final Energy:  -474.32702150683673

   => Energetics <=

    Nuclear Repulsion Energy =            538.7632494820494458
    One-Electron Energy =               -1712.1375803422959052
    Two-Electron Energy =                 699.0473093534099007
    Total Energy =                       -474.3270215068366724
  Basis Set: (AUG-CC-PVTZ AUX)
    Blend: AUG-CC-PVTZ-RI
    Molecular point group: c1

    Geometry (in Angstrom), charge = 0, multiplicity = 1:

       Center              X                  Y                   Z               Mass
    ------------   -----------------  -----------------  -----------------  -----------------
         O            3.071099707997    -0.758891947811     0.000063679494    15.994914619570
         N           -1.101364392003    -1.151681147811    -0.000080020506    14.003074004430
         C            0.949013607997     0.068933852189    -0.000015020506    12.000000000000
         C           -0.515214392003     0.068518852189    -0.000004020506    12.000000000000
         C            1.854354607997     1.180968852189    -0.000102020506    12.000000000000
         C           -1.260377392003     1.256477852189     0.000082979494    12.000000000000
         C            1.739940607997    -1.054375147811     0.000077979494    12.000000000000
         C           -2.651136392003     1.185292852189     0.000080979494    12.000000000000
         C            3.112898607997     0.653024852189    -0.000046020506    12.000000000000
         C           -3.260313392003    -0.068545147811     0.000001979494    12.000000000000
         C           -2.442123392003    -1.199666147811    -0.000072020506    12.000000000000
         H            1.614866607997     2.235883852189    -0.000212020506     1.007825032230
         H           -0.758905392003     2.220201852189     0.000157979494     1.007825032230
         H            1.514514607997    -2.109597147811     0.000157979494     1.007825032230
         H            4.103811607997     1.082379852189    -0.000072020506     1.007825032230
         H           -3.248156392003     2.094158852189     0.000144979494     1.007825032230
         H           -4.341681392003    -0.171722147811    -0.000002020506     1.007825032230
         H           -2.877206392003    -2.198059147811    -0.000131020506     1.007825032230

  Basis Set: AUG-CC-PVTZ
    Blend: AUG-CC-PVTZ
  Basis Set: (AUG-CC-PVTZ AUX)
    Blend: AUG-CC-PVTZ-JKFIT
	 Reference Energy          =    -474.3270215068367293 [Eh]
	 Singles Energy            =      -0.0000000000000000 [Eh]
	 Same-Spin Energy          =      -0.5142929267167449 [Eh]
	 Opposite-Spin Energy      =      -1.5584281697959941 [Eh]
	 Correlation Energy        =      -2.0727210965127387 [Eh]
	 Total Energy              =    -476.3997426033494662 [Eh]

	 ================> DF-SCS-MP2 Energies <==================
	-----------------------------------------------------------
	 SCS Same-Spin Scale       =       0.3333333333333333 [-]
	 SCS Opposite-Spin Scale   =       1.2000000000000000 [-]
	 SCS Same-Spin Energy      =      -0.1714309755722483 [Eh]
	 SCS Opposite-Spin Energy  =      -1.8701138037551928 [Eh]
	 SCS Correlation Energy    =      -2.0415447793274408 [Eh]
	 SCS Total Energy          =    -476.3685662861641958 [Eh]
	-----------------------------------------------------------

  Dipole Moment: [D]
     X:    -1.4008      Y:     2.1379      Z:     0.0001     Total:     2.5559

*** Psi4 exiting successfully. Buy a developer a beer!
