                               Psi4 1.3.2 release

  ==> Input File <==

--------------------------------------------------------------------------
#psi4
#
memory 32 gb

molecule  {
0 1
  O        3.0870850    -0.7380670     0.0000600
  N       -1.0742560    -1.1771330    -0.0000800
  C        0.9761220     0.0434820    -0.0000150
  C       -0.4448056     0.1332062     0.0000016
  C        1.8814630     1.1555170    -0.0001020
  C       -1.2332690     1.2310260     0.0000830
  C        1.7670490    -1.0798270     0.0000780
  C       -2.6240280     1.1598410     0.0000810
  C        3.1400070     0.6275730    -0.0000460
  C       -3.2332050    -0.0939970     0.0000020
  C       -2.4150150    -1.2251180    -0.0000720
  H        1.6419750     2.2104320    -0.0002120
  H       -0.7317970     2.1947500     0.0001580
  H        1.5416230    -2.1350490     0.0001580
  H        4.1309200     1.0569280    -0.0000720
  H       -3.2210480     2.0687070     0.0001450
  H       -4.3145730    -0.1971740    -0.0000020
  H       -2.8500980    -2.2235110    -0.0001310
units angstrom
no_reorient  #important for SAPT in psi4, default
symmetry c1  #important for SAPT in psi4, default
}

set PROPERTIES_ORIGIN ["COM"]
properties('MP2/aug-cc-pvtz', properties = ['dipole'])
--------------------------------------------------------------------------

    Molecular point group: c1
  Charge       = 0
  Multiplicity = 1
  Basis Set: AUG-CC-PVTZ
    Blend: AUG-CC-PVTZ
  Basis Set: (AUG-CC-PVTZ AUX)
    Blend: AUG-CC-PVTZ-JKFIT

    Orbital Energies [Eh]
    ---------------------

    Doubly Occupied:

       1A    -20.630502     2A    -15.569518     3A    -11.297587
       4A    -11.293834     5A    -11.289872     6A    -11.278528
       7A    -11.264650     8A    -11.241685     9A    -11.239398
      10A    -11.239041    11A    -11.236580    12A     -1.460631
      13A     -1.237532    14A     -1.111585    15A     -1.085057
      16A     -1.036714    17A     -1.000176    18A     -0.882857
      19A     -0.858174    20A     -0.793738    21A     -0.781785
      22A     -0.746679    23A     -0.685140    24A     -0.658213
      25A     -0.645987    26A     -0.637341    27A     -0.610045
      28A     -0.590143    29A     -0.575406    30A     -0.571811
      31A     -0.541802    32A     -0.541738    33A     -0.513103
      34A     -0.429274    35A     -0.418183    36A     -0.379535
      37A     -0.351302    38A     -0.297804

  @DF-RHF Final Energy:  -474.31624407644688

   => Energetics <=

    Nuclear Repulsion Energy =            539.6010052117643454
    One-Electron Energy =               -1713.7885931365924534
    Two-Electron Energy =                 699.8713438483813434
    Total Energy =                       -474.3162440764468784
  Basis Set: (AUG-CC-PVTZ AUX)
    Blend: AUG-CC-PVTZ-RI
    Molecular point group: c1

    Geometry (in Angstrom), charge = 0, multiplicity = 1:

       Center              X                  Y                   Z               Mass
    ------------   -----------------  -----------------  -----------------  -----------------
         O            3.057620970255    -0.725175155746     0.000059924212    15.994914619570
         N           -1.103720029745    -1.164241155746    -0.000080075788    14.003074004430
         C            0.946657970255     0.056373844254    -0.000015075788    12.000000000000
         C           -0.474269629745     0.146098044254     0.000001524212    12.000000000000
         C            1.851998970255     1.168408844254    -0.000102075788    12.000000000000
         C           -1.262733029745     1.243917844254     0.000082924212    12.000000000000
         C            1.737584970255    -1.066935155746     0.000077924212    12.000000000000
         C           -2.653492029745     1.172732844254     0.000080924212    12.000000000000
         C            3.110542970255     0.640464844254    -0.000046075788    12.000000000000
         C           -3.262669029745    -0.081105155746     0.000001924212    12.000000000000
         C           -2.444479029745    -1.212226155746    -0.000072075788    12.000000000000
         H            1.612510970255     2.223323844254    -0.000212075788     1.007825032230
         H           -0.761261029745     2.207641844254     0.000157924212     1.007825032230
         H            1.512158970255    -2.122157155746     0.000157924212     1.007825032230
         H            4.101455970255     1.069819844254    -0.000072075788     1.007825032230
         H           -3.250512029745     2.081598844254     0.000144924212     1.007825032230
         H           -4.344037029745    -0.184282155746    -0.000002075788     1.007825032230
         H           -2.879562029745    -2.210619155746    -0.000131075788     1.007825032230

  Basis Set: AUG-CC-PVTZ
    Blend: AUG-CC-PVTZ
  Basis Set: (AUG-CC-PVTZ AUX)
    Blend: AUG-CC-PVTZ-JKFIT
	 Reference Energy          =    -474.3162440764468784 [Eh]
	 Singles Energy            =      -0.0000000000000000 [Eh]
	 Same-Spin Energy          =      -0.5152939705423053 [Eh]
	 Opposite-Spin Energy      =      -1.5602279475117873 [Eh]
	 Correlation Energy        =      -2.0755219180540925 [Eh]
	 Total Energy              =    -476.3917659945009859 [Eh]

	 ================> DF-SCS-MP2 Energies <==================
	-----------------------------------------------------------
	 SCS Same-Spin Scale       =       0.3333333333333333 [-]
	 SCS Opposite-Spin Scale   =       1.2000000000000000 [-]
	 SCS Same-Spin Energy      =      -0.1717646568474351 [Eh]
	 SCS Opposite-Spin Energy  =      -1.8722735370141446 [Eh]
	 SCS Correlation Energy    =      -2.0440381938615797 [Eh]
	 SCS Total Energy          =    -476.3602822703084598 [Eh]
	-----------------------------------------------------------

  Dipole Moment: [D]
     X:    -1.2361      Y:     2.0281      Z:     0.0001     Total:     2.3751

*** Psi4 exiting successfully. Buy a developer a beer!
