                               Psi4 1.3.2 release

  ==> Input File <==

--------------------------------------------------------------------------
#psi4
#
memory 32 gb

molecule  {
0 1
  O        3.0870850    -0.7380670     0.0000600
  N       -1.0742560    -1.1771330    -0.0000800
  C        0.9761220     0.0434820    -0.0000150
  C       -0.5314064    -0.0470722    -0.0000096
  C        1.8814630     1.1555170    -0.0001020
  C       -1.2332690     1.2310260     0.0000830
  C        1.7670490    -1.0798270     0.0000780
  C       -2.6240280     1.1598410     0.0000810
  C        3.1400070     0.6275730    -0.0000460
  C       -3.2332050    -0.0939970     0.0000020
  C       -2.4150150    -1.2251180    -0.0000720
  H        1.6419750     2.2104320    -0.0002120
  H       -0.7317970     2.1947500     0.0001580
  H        1.5416230    -2.1350490     0.0001580
  H        4.1309200     1.0569280    -0.0000720
  H       -3.2210480     2.0687070     0.0001450
  H       -4.3145730    -0.1971740    -0.0000020
  H       -2.8500980    -2.2235110    -0.0001310
units angstrom
no_reorient  #important for SAPT in psi4, default
symmetry c1  #important for SAPT in psi4, default
}

set PROPERTIES_ORIGIN ["COM"]
properties('MP2/aug-cc-pvtz', properties = ['dipole'])
--------------------------------------------------------------------------

    Molecular point group: c1
  Charge       = 0
  Multiplicity = 1
  Basis Set: AUG-CC-PVTZ
    Blend: AUG-CC-PVTZ
  Basis Set: (AUG-CC-PVTZ AUX)
    Blend: AUG-CC-PVTZ-JKFIT

    Orbital Energies [Eh]
    ---------------------

    Doubly Occupied:

       1A    -20.626485     2A    -15.559899     3A    -11.292888
       4A    -11.292502     5A    -11.289758     6A    -11.280375
       7A    -11.261504     8A    -11.247710     9A    -11.241758
      10A    -11.238405    11A    -11.237394    12A     -1.456807
      13A     -1.288725    14A     -1.100747    15A     -1.092547
      16A     -1.030206    17A     -0.996241    18A     -0.874370
      19A     -0.863905    20A     -0.797383    21A     -0.773648
      22A     -0.743044    23A     -0.694017    24A     -0.662952
      25A     -0.645932    26A     -0.633792    27A     -0.604489
      28A     -0.582186    29A     -0.577217    30A     -0.569875
      31A     -0.561050    32A     -0.536587    33A     -0.523005
      34A     -0.421837    35A     -0.417480    36A     -0.390922
      37A     -0.344320    38A     -0.300495

  @DF-RHF Final Energy:  -474.32235719938581

   => Energetics <=

    Nuclear Repulsion Energy =            540.3008910928142541
    One-Electron Energy =               -1715.1415816352521233
    Two-Electron Energy =                 700.5183333430520634
    Total Energy =                       -474.3223571993858059
  Basis Set: (AUG-CC-PVTZ AUX)
    Blend: AUG-CC-PVTZ-RI
    Molecular point group: c1

    Geometry (in Angstrom), charge = 0, multiplicity = 1:

       Center              X                  Y                   Z               Mass
    ------------   -----------------  -----------------  -----------------  -----------------
         O            3.064785325986    -0.710260991116     0.000060850771    15.994914619570
         N           -1.096555674014    -1.149326991116    -0.000079149229    14.003074004430
         C            0.953822325986     0.071288008884    -0.000014149229    12.000000000000
         C           -0.553706074014    -0.019266191116    -0.000008749229    12.000000000000
         C            1.859163325986     1.183323008884    -0.000101149229    12.000000000000
         C           -1.255568674014     1.258832008884     0.000083850771    12.000000000000
         C            1.744749325986    -1.052020991116     0.000078850771    12.000000000000
         C           -2.646327674014     1.187647008884     0.000081850771    12.000000000000
         C            3.117707325986     0.655379008884    -0.000045149229    12.000000000000
         C           -3.255504674014    -0.066190991116     0.000002850771    12.000000000000
         C           -2.437314674014    -1.197311991116    -0.000071149229    12.000000000000
         H            1.619675325986     2.238238008884    -0.000211149229     1.007825032230
         H           -0.754096674014     2.222556008884     0.000158850771     1.007825032230
         H            1.519323325986    -2.107242991116     0.000158850771     1.007825032230
         H            4.108620325986     1.084734008884    -0.000071149229     1.007825032230
         H           -3.243347674014     2.096513008884     0.000145850771     1.007825032230
         H           -4.336872674014    -0.169367991116    -0.000001149229     1.007825032230
         H           -2.872397674014    -2.195704991116    -0.000130149229     1.007825032230

  Basis Set: AUG-CC-PVTZ
    Blend: AUG-CC-PVTZ
  Basis Set: (AUG-CC-PVTZ AUX)
    Blend: AUG-CC-PVTZ-JKFIT
	 Reference Energy          =    -474.3223571993858059 [Eh]
	 Singles Energy            =      -0.0000000000000000 [Eh]
	 Same-Spin Energy          =      -0.5128336374958538 [Eh]
	 Opposite-Spin Energy      =      -1.5547512038280358 [Eh]
	 Correlation Energy        =      -2.0675848413238898 [Eh]
	 Total Energy              =    -476.3899420407096841 [Eh]

	 ================> DF-SCS-MP2 Energies <==================
	-----------------------------------------------------------
	 SCS Same-Spin Scale       =       0.3333333333333333 [-]
	 SCS Opposite-Spin Scale   =       1.2000000000000000 [-]
	 SCS Same-Spin Energy      =      -0.1709445458319512 [Eh]
	 SCS Opposite-Spin Energy  =      -1.8657014445936428 [Eh]
	 SCS Correlation Energy    =      -2.0366459904255940 [Eh]
	 SCS Total Energy          =    -476.3590031898114034 [Eh]
	-----------------------------------------------------------

  Dipole Moment: [D]
     X:    -1.4504      Y:     1.9654      Z:     0.0001     Total:     2.4427

*** Psi4 exiting successfully. Buy a developer a beer!
