                               Psi4 1.3.2 release

  ==> Input File <==

--------------------------------------------------------------------------
#psi4
#
memory 32 gb

molecule  {
0 1
  O        3.0870850    -0.7380670     0.0000600
  N       -1.0742560    -1.1771330    -0.0000800
  C        0.9761220     0.0434820    -0.0000150
  C       -0.2881060     0.0431237    -0.0000055
  C        1.8814630     1.1555170    -0.0001020
  C       -1.2332690     1.2310260     0.0000830
  C        1.7670490    -1.0798270     0.0000780
  C       -2.6240280     1.1598410     0.0000810
  C        3.1400070     0.6275730    -0.0000460
  C       -3.2332050    -0.0939970     0.0000020
  C       -2.4150150    -1.2251180    -0.0000720
  H        1.6419750     2.2104320    -0.0002120
  H       -0.7317970     2.1947500     0.0001580
  H        1.5416230    -2.1350490     0.0001580
  H        4.1309200     1.0569280    -0.0000720
  H       -3.2210480     2.0687070     0.0001450
  H       -4.3145730    -0.1971740    -0.0000020
  H       -2.8500980    -2.2235110    -0.0001310
units angstrom
no_reorient  #important for SAPT in psi4, default
symmetry c1  #important for SAPT in psi4, default
}

set PROPERTIES_ORIGIN ["COM"]
properties('MP2/aug-cc-pvtz', properties = ['dipole'])
--------------------------------------------------------------------------

    Molecular point group: c1
  Charge       = 0
  Multiplicity = 1
  Basis Set: AUG-CC-PVTZ
    Blend: AUG-CC-PVTZ
  Basis Set: (AUG-CC-PVTZ AUX)
    Blend: AUG-CC-PVTZ-JKFIT

    Orbital Energies [Eh]
    ---------------------

    Doubly Occupied:

       1A    -20.643445     2A    -15.559805     3A    -11.316164
       4A    -11.304576     5A    -11.297192     6A    -11.271829
       7A    -11.255236     8A    -11.248541     9A    -11.248416
      10A    -11.234140    11A    -11.232038    12A     -1.473903
      13A     -1.227538    14A     -1.138371    15A     -1.070621
      16A     -1.039159    17A     -0.995856    18A     -0.905752
      19A     -0.848003    20A     -0.800365    21A     -0.784182
      22A     -0.755521    23A     -0.680595    24A     -0.656249
      25A     -0.650252    26A     -0.647393    27A     -0.614023
      28A     -0.591379    29A     -0.582304    30A     -0.571644
      31A     -0.546368    32A     -0.535447    33A     -0.519786
      34A     -0.446800    35A     -0.388569    36A     -0.373429
      37A     -0.353626    38A     -0.279995

  @DF-RHF Final Energy:  -474.26099992149307

   => Energetics <=

    Nuclear Repulsion Energy =            539.9890009276433602
    One-Electron Energy =               -1714.3229816470964124
    Two-Electron Energy =                 700.0729807979598718
    Total Energy =                       -474.2609999214930667
  Basis Set: (AUG-CC-PVTZ AUX)
    Blend: AUG-CC-PVTZ-RI
    Molecular point group: c1

    Geometry (in Angstrom), charge = 0, multiplicity = 1:

       Center              X                  Y                   Z               Mass
    ------------   -----------------  -----------------  -----------------  -----------------
         O            3.044657444775    -0.717722764138     0.000060511584    15.994914619570
         N           -1.116683555225    -1.156788764138    -0.000079488416    14.003074004430
         C            0.933694444775     0.063826235862    -0.000014488416    12.000000000000
         C           -0.330533555225     0.063467935862    -0.000004988416    12.000000000000
         C            1.839035444775     1.175861235862    -0.000101488416    12.000000000000
         C           -1.275696555225     1.251370235862     0.000083511584    12.000000000000
         C            1.724621444775    -1.059482764138     0.000078511584    12.000000000000
         C           -2.666455555225     1.180185235862     0.000081511584    12.000000000000
         C            3.097579444775     0.647917235862    -0.000045488416    12.000000000000
         C           -3.275632555225    -0.073652764138     0.000002511584    12.000000000000
         C           -2.457442555225    -1.204773764138    -0.000071488416    12.000000000000
         H            1.599547444775     2.230776235862    -0.000211488416     1.007825032230
         H           -0.774224555225     2.215094235862     0.000158511584     1.007825032230
         H            1.499195444775    -2.114704764138     0.000158511584     1.007825032230
         H            4.088492444775     1.077272235862    -0.000071488416     1.007825032230
         H           -3.263475555225     2.089051235862     0.000145511584     1.007825032230
         H           -4.357000555225    -0.176829764138    -0.000001488416     1.007825032230
         H           -2.892525555225    -2.203166764138    -0.000130488416     1.007825032230

  Basis Set: AUG-CC-PVTZ
    Blend: AUG-CC-PVTZ
  Basis Set: (AUG-CC-PVTZ AUX)
    Blend: AUG-CC-PVTZ-JKFIT
	 Reference Energy          =    -474.2609999214930667 [Eh]
	 Singles Energy            =      -0.0000000000000000 [Eh]
	 Same-Spin Energy          =      -0.5193829938018900 [Eh]
	 Opposite-Spin Energy      =      -1.5661114427540554 [Eh]
	 Correlation Energy        =      -2.0854944365559454 [Eh]
	 Total Energy              =    -476.3464943580490285 [Eh]

	 ================> DF-SCS-MP2 Energies <==================
	-----------------------------------------------------------
	 SCS Same-Spin Scale       =       0.3333333333333333 [-]
	 SCS Opposite-Spin Scale   =       1.2000000000000000 [-]
	 SCS Same-Spin Energy      =      -0.1731276646006300 [Eh]
	 SCS Opposite-Spin Energy  =      -1.8793337313048664 [Eh]
	 SCS Correlation Energy    =      -2.0524613959054965 [Eh]
	 SCS Total Energy          =    -476.3134613173985485 [Eh]
	-----------------------------------------------------------

  Dipole Moment: [D]
     X:    -0.3318      Y:     2.0465      Z:     0.0001     Total:     2.0732

*** Psi4 exiting successfully. Buy a developer a beer!
