                               Psi4 1.3.2 release

  ==> Input File <==

--------------------------------------------------------------------------
#psi4
#
memory 32 gb

molecule  {
0 1
  O        3.0870850    -0.7380670     0.0000600
  N       -1.0742560    -1.1771330    -0.0000800
  C        0.9761220     0.0434820    -0.0000150
  C       -0.4881060     0.0430670    -0.0000040
  C        1.8814630     1.1555170    -0.0001020
  C       -1.2332690     1.2310260     0.0000830
  C        1.5734328    -1.1299546     0.0000806
  C       -2.6240280     1.1598410     0.0000810
  C        3.1400070     0.6275730    -0.0000460
  C       -3.2332050    -0.0939970     0.0000020
  C       -2.4150150    -1.2251180    -0.0000720
  H        1.6419750     2.2104320    -0.0002120
  H       -0.7317970     2.1947500     0.0001580
  H        1.5416230    -2.1350490     0.0001580
  H        4.1309200     1.0569280    -0.0000720
  H       -3.2210480     2.0687070     0.0001450
  H       -4.3145730    -0.1971740    -0.0000020
  H       -2.8500980    -2.2235110    -0.0001310
units angstrom
no_reorient  #important for SAPT in psi4, default
symmetry c1  #important for SAPT in psi4, default
}

set PROPERTIES_ORIGIN ["COM"]
properties('MP2/aug-cc-pvtz', properties = ['dipole'])
--------------------------------------------------------------------------

    Molecular point group: c1
  Charge       = 0
  Multiplicity = 1
  Basis Set: AUG-CC-PVTZ
    Blend: AUG-CC-PVTZ
  Basis Set: (AUG-CC-PVTZ AUX)
    Blend: AUG-CC-PVTZ-JKFIT

    Orbital Energies [Eh]
    ---------------------

    Doubly Occupied:

       1A    -20.595978     2A    -15.570757     3A    -11.300002
       4A    -11.293896     5A    -11.289617     6A    -11.283490
       7A    -11.266439     8A    -11.248898     9A    -11.246760
      10A    -11.245458    11A    -11.231136    12A     -1.390623
      13A     -1.264138    14A     -1.113603    15A     -1.092140
      16A     -1.030476    17A     -0.998302    18A     -0.875565
      19A     -0.865051    20A     -0.792811    21A     -0.784388
      22A     -0.739823    23A     -0.684284    24A     -0.666488
      25A     -0.643350    26A     -0.611049    27A     -0.597828
      28A     -0.588186    29A     -0.577504    30A     -0.567947
      31A     -0.550724    32A     -0.528524    33A     -0.505976
      34A     -0.431499    35A     -0.427242    36A     -0.386749
      37A     -0.343521    38A     -0.313036

  @DF-RHF Final Energy:  -474.29534150186868

   => Energetics <=

    Nuclear Repulsion Energy =            539.1511838936293088
    One-Electron Energy =               -1713.0065299687726110
    Two-Electron Energy =                 699.5600045732745684
    Total Energy =                       -474.2953415018686201
  Basis Set: (AUG-CC-PVTZ AUX)
    Blend: AUG-CC-PVTZ-RI
    Molecular point group: c1

    Geometry (in Angstrom), charge = 0, multiplicity = 1:

       Center              X                  Y                   Z               Mass
    ------------   -----------------  -----------------  -----------------  -----------------
         O            3.077220729160    -0.713571091436     0.000060172398    15.994914619570
         N           -1.084120270840    -1.152637091436    -0.000079827602    14.003074004430
         C            0.966257729160     0.067977908564    -0.000014827602    12.000000000000
         C           -0.497970270840     0.067562908564    -0.000003827602    12.000000000000
         C            1.871598729160     1.180012908564    -0.000101827602    12.000000000000
         C           -1.243133270840     1.255521908564     0.000083172398    12.000000000000
         C            1.563568529160    -1.105458691436     0.000080772398    12.000000000000
         C           -2.633892270840     1.184336908564     0.000081172398    12.000000000000
         C            3.130142729160     0.652068908564    -0.000045827602    12.000000000000
         C           -3.243069270840    -0.069501091436     0.000002172398    12.000000000000
         C           -2.424879270840    -1.200622091436    -0.000071827602    12.000000000000
         H            1.632110729160     2.234927908564    -0.000211827602     1.007825032230
         H           -0.741661270840     2.219245908564     0.000158172398     1.007825032230
         H            1.531758729160    -2.110553091436     0.000158172398     1.007825032230
         H            4.121055729160     1.081423908564    -0.000071827602     1.007825032230
         H           -3.230912270840     2.093202908564     0.000145172398     1.007825032230
         H           -4.324437270840    -0.172678091436    -0.000001827602     1.007825032230
         H           -2.859962270840    -2.199015091436    -0.000130827602     1.007825032230

  Basis Set: AUG-CC-PVTZ
    Blend: AUG-CC-PVTZ
  Basis Set: (AUG-CC-PVTZ AUX)
    Blend: AUG-CC-PVTZ-JKFIT
	 Reference Energy          =    -474.2953415018686769 [Eh]
	 Singles Energy            =      -0.0000000000000000 [Eh]
	 Same-Spin Energy          =      -0.5145592204424535 [Eh]
	 Opposite-Spin Energy      =      -1.5610278268523317 [Eh]
	 Correlation Energy        =      -2.0755870472947850 [Eh]
	 Total Energy              =    -476.3709285491634660 [Eh]

	 ================> DF-SCS-MP2 Energies <==================
	-----------------------------------------------------------
	 SCS Same-Spin Scale       =       0.3333333333333333 [-]
	 SCS Opposite-Spin Scale   =       1.2000000000000000 [-]
	 SCS Same-Spin Energy      =      -0.1715197401474845 [Eh]
	 SCS Opposite-Spin Energy  =      -1.8732333922227979 [Eh]
	 SCS Correlation Energy    =      -2.0447531323702823 [Eh]
	 SCS Total Energy          =    -476.3400946342389375 [Eh]
	-----------------------------------------------------------

  Dipole Moment: [D]
     X:    -1.8957      Y:     2.0434      Z:     0.0001     Total:     2.7873

*** Psi4 exiting successfully. Buy a developer a beer!
