                               Psi4 1.3.2 release

  ==> Input File <==

--------------------------------------------------------------------------
#psi4
#
memory 32 gb

molecule  {
0 1
  O        3.2301232    -0.7361177     0.0000615
  N       -1.0742560    -1.1771330    -0.0000800
  C        0.9761220     0.0434820    -0.0000150
  C       -0.4881060     0.0430670    -0.0000040
  C        1.8814630     1.1555170    -0.0001020
  C       -1.2332690     1.2310260     0.0000830
  C        1.7670490    -1.0798270     0.0000780
  C       -2.6240280     1.1598410     0.0000810
  C        3.1400070     0.6275730    -0.0000460
  C       -3.2332050    -0.0939970     0.0000020
  C       -2.4150150    -1.2251180    -0.0000720
  H        1.6419750     2.2104320    -0.0002120
  H       -0.7317970     2.1947500     0.0001580
  H        1.5416230    -2.1350490     0.0001580
  H        4.1309200     1.0569280    -0.0000720
  H       -3.2210480     2.0687070     0.0001450
  H       -4.3145730    -0.1971740    -0.0000020
  H       -2.8500980    -2.2235110    -0.0001310
units angstrom
no_reorient  #important for SAPT in psi4, default
symmetry c1  #important for SAPT in psi4, default
}

set PROPERTIES_ORIGIN ["COM"]
properties('MP2/aug-cc-pvtz', properties = ['dipole'])
--------------------------------------------------------------------------

    Molecular point group: c1
  Charge       = 0
  Multiplicity = 1
  Basis Set: AUG-CC-PVTZ
    Blend: AUG-CC-PVTZ
  Basis Set: (AUG-CC-PVTZ AUX)
    Blend: AUG-CC-PVTZ-JKFIT

    Orbital Energies [Eh]
    ---------------------

    Doubly Occupied:

       1A    -20.624154     2A    -15.571523     3A    -11.299485
       4A    -11.297779     5A    -11.297137     6A    -11.283594
       7A    -11.267624     8A    -11.252670     9A    -11.249611
      10A    -11.246865    11A    -11.235478    12A     -1.416576
      13A     -1.263852    14A     -1.113710    15A     -1.093538
      16A     -1.035720    17A     -0.983743    18A     -0.878269
      19A     -0.865978    20A     -0.790094    21A     -0.777712
      22A     -0.736113    23A     -0.687811    24A     -0.667385
      25A     -0.647481    26A     -0.611743    27A     -0.592723
      28A     -0.590454    29A     -0.577945    30A     -0.562713
      31A     -0.553149    32A     -0.540060    33A     -0.525151
      34A     -0.432453    35A     -0.427064    36A     -0.387829
      37A     -0.348088    38A     -0.303297

  @DF-RHF Final Energy:  -474.30950595074790

   => Energetics <=

    Nuclear Repulsion Energy =            536.0974683240544891
    One-Electron Energy =               -1706.7408099928011325
    Two-Electron Energy =                 696.3338357179987952
    Total Energy =                       -474.3095059507478481
  Basis Set: (AUG-CC-PVTZ AUX)
    Blend: AUG-CC-PVTZ-RI
    Molecular point group: c1

    Geometry (in Angstrom), charge = 0, multiplicity = 1:

       Center              X                  Y                   Z               Mass
    ------------   -----------------  -----------------  -----------------  -----------------
         O            3.188468578711    -0.715983722021     0.000061722087    15.994914619570
         N           -1.115910621289    -1.156999022021    -0.000079777913    14.003074004430
         C            0.934467378711     0.063615977979    -0.000014777913    12.000000000000
         C           -0.529760621289     0.063200977979    -0.000003777913    12.000000000000
         C            1.839808378711     1.175650977979    -0.000101777913    12.000000000000
         C           -1.274923621289     1.251159977979     0.000083222087    12.000000000000
         C            1.725394378711    -1.059693022021     0.000078222087    12.000000000000
         C           -2.665682621289     1.179974977979     0.000081222087    12.000000000000
         C            3.098352378711     0.647706977979    -0.000045777913    12.000000000000
         C           -3.274859621289    -0.073863022021     0.000002222087    12.000000000000
         C           -2.456669621289    -1.204984022021    -0.000071777913    12.000000000000
         H            1.600320378711     2.230565977979    -0.000211777913     1.007825032230
         H           -0.773451621289     2.214883977979     0.000158222087     1.007825032230
         H            1.499968378711    -2.114915022021     0.000158222087     1.007825032230
         H            4.089265378711     1.077061977979    -0.000071777913     1.007825032230
         H           -3.262702621289     2.088840977979     0.000145222087     1.007825032230
         H           -4.356227621289    -0.177040022021    -0.000001777913     1.007825032230
         H           -2.891752621289    -2.203377022021    -0.000130777913     1.007825032230

  Basis Set: AUG-CC-PVTZ
    Blend: AUG-CC-PVTZ
  Basis Set: (AUG-CC-PVTZ AUX)
    Blend: AUG-CC-PVTZ-JKFIT
	 Reference Energy          =    -474.3095059507479050 [Eh]
	 Singles Energy            =      -0.0000000000000000 [Eh]
	 Same-Spin Energy          =      -0.5149080086687742 [Eh]
	 Opposite-Spin Energy      =      -1.5622145321730714 [Eh]
	 Correlation Energy        =      -2.0771225408418457 [Eh]
	 Total Energy              =    -476.3866284915897609 [Eh]

	 ================> DF-SCS-MP2 Energies <==================
	-----------------------------------------------------------
	 SCS Same-Spin Scale       =       0.3333333333333333 [-]
	 SCS Opposite-Spin Scale   =       1.2000000000000000 [-]
	 SCS Same-Spin Energy      =      -0.1716360028895914 [Eh]
	 SCS Opposite-Spin Energy  =      -1.8746574386076855 [Eh]
	 SCS Correlation Energy    =      -2.0462934414972769 [Eh]
	 SCS Total Energy          =    -476.3557993922451601 [Eh]
	-----------------------------------------------------------

  Dipole Moment: [D]
     X:    -2.0088      Y:     2.0865      Z:     0.0001     Total:     2.8963

*** Psi4 exiting successfully. Buy a developer a beer!
