                               Psi4 1.3.2 release

  ==> Input File <==

--------------------------------------------------------------------------
#psi4
#
memory 32 gb

molecule  {
0 1
  O        3.0870850    -0.7380670     0.0000600
  N       -1.0742560    -1.1771330    -0.0000800
  C        0.9761220     0.0434820    -0.0000150
  C       -0.4881060     0.0430670    -0.0000040
  C        1.8814630     1.1555170    -0.0001020
  C       -1.2332690     1.2310260     0.0000830
  C        1.7670490    -1.0798270     0.0000780
  C       -2.6240280     1.1598410     0.0000810
  C        3.1400070     0.6275730    -0.0000460
  C       -3.2332050    -0.0939970     0.0000020
  C       -2.4150150    -1.2251180    -0.0000720
  H        1.6419750     2.2104320    -0.0002120
  H       -0.7317970     2.1947500     0.0001580
  H        1.4998400    -2.3306358     0.0001728
  H        4.1309200     1.0569280    -0.0000720
  H       -3.2210480     2.0687070     0.0001450
  H       -4.3145730    -0.1971740    -0.0000020
  H       -2.8500980    -2.2235110    -0.0001310
units angstrom
no_reorient  #important for SAPT in psi4, default
symmetry c1  #important for SAPT in psi4, default
}

set PROPERTIES_ORIGIN ["COM"]
properties('MP2/aug-cc-pvtz', properties = ['dipole'])
--------------------------------------------------------------------------

    Molecular point group: c1
  Charge       = 0
  Multiplicity = 1
  Basis Set: AUG-CC-PVTZ
    Blend: AUG-CC-PVTZ
  Basis Set: (AUG-CC-PVTZ AUX)
    Blend: AUG-CC-PVTZ-JKFIT

    Orbital Energies [Eh]
    ---------------------

    Doubly Occupied:

       1A    -20.630054     2A    -15.565086     3A    -11.312672
       4A    -11.293692     5A    -11.292163     6A    -11.279144
       7A    -11.263119     8A    -11.243196     9A    -11.240831
      10A    -11.240161    11A    -11.238139    12A     -1.459880
      13A     -1.258212    14A     -1.106006    15A     -1.088330
      16A     -1.033421    17A     -0.992931    18A     -0.874071
      19A     -0.863167    20A     -0.796530    21A     -0.767610
      22A     -0.732586    23A     -0.685688    24A     -0.661910
      25A     -0.645525    26A     -0.636558    27A     -0.594609
      28A     -0.582502    29A     -0.572248    30A     -0.565397
      31A     -0.548639    32A     -0.527612    33A     -0.519955
      34A     -0.425098    35A     -0.420829    36A     -0.383558
      37A     -0.348936    38A     -0.299028

  @DF-RHF Final Energy:  -474.30727273806605

   => Energetics <=

    Nuclear Repulsion Energy =            538.9455928681043133
    One-Electron Energy =               -1712.5275475243720393
    Two-Electron Energy =                 699.2746819182017362
    Total Energy =                       -474.3072727380659899
  Basis Set: (AUG-CC-PVTZ AUX)
    Blend: AUG-CC-PVTZ-RI
    Molecular point group: c1

    Geometry (in Angstrom), charge = 0, multiplicity = 1:

       Center              X                  Y                   Z               Mass
    ------------   -----------------  -----------------  -----------------  -----------------
         O            3.061493455952    -0.716359138463     0.000060284661    15.994914619570
         N           -1.099847544048    -1.155425138463    -0.000079715339    14.003074004430
         C            0.950530455952     0.065189861537    -0.000014715339    12.000000000000
         C           -0.513697544048     0.064774861537    -0.000003715339    12.000000000000
         C            1.855871455952     1.177224861537    -0.000101715339    12.000000000000
         C           -1.258860544048     1.252733861537     0.000083284661    12.000000000000
         C            1.741457455952    -1.058119138463     0.000078284661    12.000000000000
         C           -2.649619544048     1.181548861537     0.000081284661    12.000000000000
         C            3.114415455952     0.649280861537    -0.000045715339    12.000000000000
         C           -3.258796544048    -0.072289138463     0.000002284661    12.000000000000
         C           -2.440606544048    -1.203410138463    -0.000071715339    12.000000000000
         H            1.616383455952     2.232139861537    -0.000211715339     1.007825032230
         H           -0.757388544048     2.216457861537     0.000158284661     1.007825032230
         H            1.474248455952    -2.308927938463     0.000173084661     1.007825032230
         H            4.105328455952     1.078635861537    -0.000071715339     1.007825032230
         H           -3.246639544048     2.090414861537     0.000145284661     1.007825032230
         H           -4.340164544048    -0.175466138463    -0.000001715339     1.007825032230
         H           -2.875689544048    -2.201803138463    -0.000130715339     1.007825032230

  Basis Set: AUG-CC-PVTZ
    Blend: AUG-CC-PVTZ
  Basis Set: (AUG-CC-PVTZ AUX)
    Blend: AUG-CC-PVTZ-JKFIT
	 Reference Energy          =    -474.3072727380660467 [Eh]
	 Singles Energy            =      -0.0000000000000000 [Eh]
	 Same-Spin Energy          =      -0.5149356877509208 [Eh]
	 Opposite-Spin Energy      =      -1.5594769909500028 [Eh]
	 Correlation Energy        =      -2.0744126787009236 [Eh]
	 Total Energy              =    -476.3816854167669703 [Eh]

	 ================> DF-SCS-MP2 Energies <==================
	-----------------------------------------------------------
	 SCS Same-Spin Scale       =       0.3333333333333333 [-]
	 SCS Opposite-Spin Scale   =       1.2000000000000000 [-]
	 SCS Same-Spin Energy      =      -0.1716452292503069 [Eh]
	 SCS Opposite-Spin Energy  =      -1.8713723891400034 [Eh]
	 SCS Correlation Energy    =      -2.0430176183903104 [Eh]
	 SCS Total Energy          =    -476.3502903564563553 [Eh]
	-----------------------------------------------------------

  Dipole Moment: [D]
     X:    -1.3384      Y:     1.9701      Z:     0.0001     Total:     2.3817

*** Psi4 exiting successfully. Buy a developer a beer!
