                               Psi4 1.3.2 release

  ==> Input File <==

--------------------------------------------------------------------------
#psi4
#
memory 32 gb

molecule  {
0 1
  O        3.0870850    -0.7380670     0.0000600
  N       -1.0742560    -1.1771330    -0.0000800
  C        0.9761220     0.0434820    -0.0000150
  C       -0.4674867     0.0562528    -0.0000031
  C        1.8814630     1.1555170    -0.0001020
  C       -1.2332690     1.2310260     0.0000830
  C        1.7670490    -1.0798270     0.0000780
  C       -2.6240280     1.1598410     0.0000810
  C        3.1400070     0.6275730    -0.0000460
  C       -3.2332050    -0.0939970     0.0000020
  C       -2.4150150    -1.2251180    -0.0000720
  H        1.6419750     2.2104320    -0.0002120
  H       -0.7317970     2.1947500     0.0001580
  H        1.5416230    -2.1350490     0.0001580
  H        4.1309200     1.0569280    -0.0000720
  H       -3.2210480     2.0687070     0.0001450
  H       -4.3145730    -0.1971740    -0.0000020
  H       -2.8500980    -2.2235110    -0.0001310
units angstrom
no_reorient  #important for SAPT in psi4, default
symmetry c1  #important for SAPT in psi4, default
}

set PROPERTIES_ORIGIN ["COM"]
properties('MP2/aug-cc-pvtz', properties = ['dipole'])
--------------------------------------------------------------------------

    Molecular point group: c1
  Charge       = 0
  Multiplicity = 1
  Basis Set: AUG-CC-PVTZ
    Blend: AUG-CC-PVTZ
  Basis Set: (AUG-CC-PVTZ AUX)
    Blend: AUG-CC-PVTZ-JKFIT

    Orbital Energies [Eh]
    ---------------------

    Doubly Occupied:

       1A    -20.629810     2A    -15.566084     3A    -11.295672
       4A    -11.294120     5A    -11.292470     6A    -11.278864
       7A    -11.263071     8A    -11.243228     9A    -11.240688
      10A    -11.239179    11A    -11.237800    12A     -1.460047
      13A     -1.252565    14A     -1.108326    15A     -1.086608
      16A     -1.034259    17A     -0.998814    18A     -0.878290
      19A     -0.861301    20A     -0.796192    21A     -0.778941
      22A     -0.745950    23A     -0.686241    24A     -0.660964
      25A     -0.646494    26A     -0.636795    27A     -0.607860
      28A     -0.586582    29A     -0.575653    30A     -0.572427
      31A     -0.546301    32A     -0.539321    33A     -0.520810
      34A     -0.426672    35A     -0.419908    36A     -0.382236
      37A     -0.349222    38A     -0.297983

  @DF-RHF Final Energy:  -474.32915554646587

   => Energetics <=

    Nuclear Repulsion Energy =            539.8123177799873247
    One-Electron Energy =               -1714.2074524635697799
    Two-Electron Energy =                 700.0659791371166421
    Total Energy =                       -474.3291555464658131
  Basis Set: (AUG-CC-PVTZ AUX)
    Blend: AUG-CC-PVTZ-RI
    Molecular point group: c1

    Geometry (in Angstrom), charge = 0, multiplicity = 1:

       Center              X                  Y                   Z               Mass
    ------------   -----------------  -----------------  -----------------  -----------------
         O            3.059497344015    -0.718808915107     0.000060313036    15.994914619570
         N           -1.101843655985    -1.157874915107    -0.000079686964    14.003074004430
         C            0.948534344015     0.062740084893    -0.000014686964    12.000000000000
         C           -0.495074355985     0.075510884893    -0.000002786964    12.000000000000
         C            1.853875344015     1.174775084893    -0.000101686964    12.000000000000
         C           -1.260856655985     1.250284084893     0.000083313036    12.000000000000
         C            1.739461344015    -1.060568915107     0.000078313036    12.000000000000
         C           -2.651615655985     1.179099084893     0.000081313036    12.000000000000
         C            3.112419344015     0.646831084893    -0.000045686964    12.000000000000
         C           -3.260792655985    -0.074738915107     0.000002313036    12.000000000000
         C           -2.442602655985    -1.205859915107    -0.000071686964    12.000000000000
         H            1.614387344015     2.229690084893    -0.000211686964     1.007825032230
         H           -0.759384655985     2.214008084893     0.000158313036     1.007825032230
         H            1.514035344015    -2.115790915107     0.000158313036     1.007825032230
         H            4.103332344015     1.076186084893    -0.000071686964     1.007825032230
         H           -3.248635655985     2.087965084893     0.000145313036     1.007825032230
         H           -4.342160655985    -0.177915915107    -0.000001686964     1.007825032230
         H           -2.877685655985    -2.204252915107    -0.000130686964     1.007825032230

  Basis Set: AUG-CC-PVTZ
    Blend: AUG-CC-PVTZ
  Basis Set: (AUG-CC-PVTZ AUX)
    Blend: AUG-CC-PVTZ-JKFIT
	 Reference Energy          =    -474.3291555464658700 [Eh]
	 Singles Energy            =      -0.0000000000000000 [Eh]
	 Same-Spin Energy          =      -0.5146127988731881 [Eh]
	 Opposite-Spin Energy      =      -1.5577635961319907 [Eh]
	 Correlation Energy        =      -2.0723763950051790 [Eh]
	 Total Energy              =    -476.4015319414710348 [Eh]

	 ================> DF-SCS-MP2 Energies <==================
	-----------------------------------------------------------
	 SCS Same-Spin Scale       =       0.3333333333333333 [-]
	 SCS Opposite-Spin Scale   =       1.2000000000000000 [-]
	 SCS Same-Spin Energy      =      -0.1715375996243960 [Eh]
	 SCS Opposite-Spin Energy  =      -1.8693163153583887 [Eh]
	 SCS Correlation Energy    =      -2.0408539149827849 [Eh]
	 SCS Total Energy          =    -476.3700094614486602 [Eh]
	-----------------------------------------------------------

  Dipole Moment: [D]
     X:    -1.2564      Y:     2.0250      Z:     0.0001     Total:     2.3831

*** Psi4 exiting successfully. Buy a developer a beer!
