                               Psi4 1.3.2 release

  ==> Input File <==

--------------------------------------------------------------------------
#psi4
#
memory 32 gb

molecule  {
0 1
  O        3.0870850    -0.7380670     0.0000600
  N       -1.0742560    -1.1771330    -0.0000800
  C        0.9761220     0.0434820    -0.0000150
  C       -0.4881060     0.0430670    -0.0000040
  C        1.8814630     1.1555170    -0.0001020
  C       -1.2332690     1.2310260     0.0000830
  C        1.7670490    -1.0798270     0.0000780
  C       -2.6240280     1.1598410     0.0000810
  C        3.1400070     0.6275730    -0.0000460
  C       -3.2332050    -0.0939970     0.0000020
  C       -2.4150150    -1.2251180    -0.0000720
  H        1.6419750     2.2104320    -0.0002120
  H       -0.7317970     2.1947500     0.0001580
  H        1.5834060    -1.9394622     0.0001432
  H        4.1309200     1.0569280    -0.0000720
  H       -3.2210480     2.0687070     0.0001450
  H       -4.3145730    -0.1971740    -0.0000020
  H       -2.8500980    -2.2235110    -0.0001310
units angstrom
no_reorient  #important for SAPT in psi4, default
symmetry c1  #important for SAPT in psi4, default
}

set PROPERTIES_ORIGIN ["COM"]
properties('MP2/aug-cc-pvtz', properties = ['dipole'])
--------------------------------------------------------------------------

    Molecular point group: c1
  Charge       = 0
  Multiplicity = 1
  Basis Set: AUG-CC-PVTZ
    Blend: AUG-CC-PVTZ
  Basis Set: (AUG-CC-PVTZ AUX)
    Blend: AUG-CC-PVTZ-JKFIT

    Orbital Energies [Eh]
    ---------------------

    Doubly Occupied:

       1A    -20.627865     2A    -15.566346     3A    -11.293602
       4A    -11.292480     5A    -11.279857     6A    -11.272106
       7A    -11.263690     8A    -11.243796     9A    -11.241561
      10A    -11.239080    11A    -11.236853    12A     -1.458445
      13A     -1.259085    14A     -1.105708    15A     -1.089021
      16A     -1.036276    17A     -1.009864    18A     -0.879761
      19A     -0.863770    20A     -0.808064    21A     -0.795905
      22A     -0.752630    23A     -0.689116    24A     -0.663520
      25A     -0.648269    26A     -0.635252    27A     -0.625203
      28A     -0.587679    29A     -0.577510    30A     -0.571933
      31A     -0.549276    32A     -0.541377    33A     -0.520876
      34A     -0.424481    35A     -0.422831    36A     -0.384162
      37A     -0.348847    38A     -0.299665

  @DF-RHF Final Energy:  -474.29426630943931

   => Energetics <=

    Nuclear Repulsion Energy =            541.0613658134097932
    One-Electron Energy =               -1716.4997404470250331
    Two-Electron Energy =                 701.1441083241759316
    Total Energy =                       -474.2942663094393083
  Basis Set: (AUG-CC-PVTZ AUX)
    Blend: AUG-CC-PVTZ-RI
    Molecular point group: c1

    Geometry (in Angstrom), charge = 0, multiplicity = 1:

       Center              X                  Y                   Z               Mass
    ------------   -----------------  -----------------  -----------------  -----------------
         O            3.060912840289    -0.719077008399     0.000060490322    15.994914619570
         N           -1.100428159711    -1.158143008399    -0.000079509678    14.003074004430
         C            0.949949840289     0.062471991601    -0.000014509678    12.000000000000
         C           -0.514278159711     0.062056991601    -0.000003509678    12.000000000000
         C            1.855290840289     1.174506991601    -0.000101509678    12.000000000000
         C           -1.259441159711     1.250015991601     0.000083490322    12.000000000000
         C            1.740876840289    -1.060837008399     0.000078490322    12.000000000000
         C           -2.650200159711     1.178830991601     0.000081490322    12.000000000000
         C            3.113834840289     0.646562991601    -0.000045509678    12.000000000000
         C           -3.259377159711    -0.075007008399     0.000002490322    12.000000000000
         C           -2.441187159711    -1.206128008399    -0.000071509678    12.000000000000
         H            1.615802840289     2.229421991601    -0.000211509678     1.007825032230
         H           -0.757969159711     2.213739991601     0.000158490322     1.007825032230
         H            1.557233840289    -1.920472208399     0.000143690322     1.007825032230
         H            4.104747840289     1.075917991601    -0.000071509678     1.007825032230
         H           -3.247220159711     2.087696991601     0.000145490322     1.007825032230
         H           -4.340745159711    -0.178184008399    -0.000001509678     1.007825032230
         H           -2.876270159711    -2.204521008399    -0.000130509678     1.007825032230

  Basis Set: AUG-CC-PVTZ
    Blend: AUG-CC-PVTZ
  Basis Set: (AUG-CC-PVTZ AUX)
    Blend: AUG-CC-PVTZ-JKFIT
	 Reference Energy          =    -474.2942663094393083 [Eh]
	 Singles Energy            =      -0.0000000000000000 [Eh]
	 Same-Spin Energy          =      -0.5138699324134025 [Eh]
	 Opposite-Spin Energy      =      -1.5561882467803061 [Eh]
	 Correlation Energy        =      -2.0700581791937087 [Eh]
	 Total Energy              =    -476.3643244886330308 [Eh]

	 ================> DF-SCS-MP2 Energies <==================
	-----------------------------------------------------------
	 SCS Same-Spin Scale       =       0.3333333333333333 [-]
	 SCS Opposite-Spin Scale   =       1.2000000000000000 [-]
	 SCS Same-Spin Energy      =      -0.1712899774711342 [Eh]
	 SCS Opposite-Spin Energy  =      -1.8674258961363672 [Eh]
	 SCS Correlation Energy    =      -2.0387158736075013 [Eh]
	 SCS Total Energy          =    -476.3329821830467949 [Eh]
	-----------------------------------------------------------

  Dipole Moment: [D]
     X:    -1.3526      Y:     2.1011      Z:     0.0001     Total:     2.4989

*** Psi4 exiting successfully. Buy a developer a beer!
