                               Psi4 1.4a3.dev225

  ==> Input File <==

--------------------------------------------------------------------------
#psi4
#
memory 32 gb

molecule  {
0 1
  O        3.0870850    -0.7380670     0.0000600
  N       -1.0742560    -1.1771330    -0.0000800
  C        0.9761220     0.0434820    -0.0000150
  C       -0.4881060     0.0430670    -0.0000040
  C        1.8814630     1.1555170    -0.0001020
  C       -1.2332690     1.2310260     0.0000830
  C        1.8154530    -1.0672951     0.0000773
  C       -2.6240280     1.1598410     0.0000810
  C        3.1400070     0.6275730    -0.0000460
  C       -3.2332050    -0.0939970     0.0000020
  C       -2.4150150    -1.2251180    -0.0000720
  H        1.6419750     2.2104320    -0.0002120
  H       -0.7317970     2.1947500     0.0001580
  H        1.5416230    -2.1350490     0.0001580
  H        4.1309200     1.0569280    -0.0000720
  H       -3.2210480     2.0687070     0.0001450
  H       -4.3145730    -0.1971740    -0.0000020
  H       -2.8500980    -2.2235110    -0.0001310
units angstrom
no_reorient  #important for SAPT in psi4, default
symmetry c1  #important for SAPT in psi4, default
}

set PROPERTIES_ORIGIN ["COM"]
properties('MP2/aug-cc-pvtz', properties = ['dipole'])
--------------------------------------------------------------------------

    Molecular point group: c1
  Charge       = 0
  Multiplicity = 1
  Basis Set: AUG-CC-PVTZ
    Blend: AUG-CC-PVTZ
  Basis Set: (AUG-CC-PVTZ AUX)
    Blend: AUG-CC-PVTZ-JKFIT

    Orbital Energies [Eh]
    ---------------------

    Doubly Occupied:

       1A    -20.636753     2A    -15.564336     3A    -11.297494
       4A    -11.292066     5A    -11.290994     6A    -11.278519
       7A    -11.262547     8A    -11.242341     9A    -11.239803
      10A    -11.239302    11A    -11.236806    12A     -1.482147
      13A     -1.257332    14A     -1.104566    15A     -1.087628
      16A     -1.035596    17A     -0.998977    18A     -0.876393
      19A     -0.862739    20A     -0.800416    21A     -0.774815
      22A     -0.747215    23A     -0.689202    24A     -0.661730
      25A     -0.648832    26A     -0.648752    27A     -0.608343
      28A     -0.585377    29A     -0.577961    30A     -0.571943
      31A     -0.548159    32A     -0.531581    33A     -0.519302
      34A     -0.423742    35A     -0.420689    36A     -0.383218
      37A     -0.350015    38A     -0.294572

  @DF-RHF Final Energy:  -474.32946278260812

   => Energetics <=

    Nuclear Repulsion Energy =            540.1597056866611410
    One-Electron Energy =               -1714.8339324683959148
    Two-Electron Energy =                 700.3447639991268261
    Total Energy =                       -474.3294627826080614
  Basis Set: (AUG-CC-PVTZ AUX)
    Blend: AUG-CC-PVTZ-RI
    Molecular point group: c1

    Geometry (in Angstrom), charge = 0, multiplicity = 1:

       Center              X                  Y                   Z               Mass
    ------------   -----------------  -----------------  -----------------  -----------------
         O            3.057198756997    -0.718754818930     0.000060445402    15.994914619570
         N           -1.104142243003    -1.157820818930    -0.000079554598    14.003074004430
         C            0.946235756997     0.062794181070    -0.000014554598    12.000000000000
         C           -0.517992243003     0.062379181070    -0.000003554598    12.000000000000
         C            1.851576756997     1.174829181070    -0.000101554598    12.000000000000
         C           -1.263155243003     1.250338181070     0.000083445402    12.000000000000
         C            1.785566756997    -1.047982918930     0.000077745402    12.000000000000
         C           -2.653914243003     1.179153181070     0.000081445402    12.000000000000
         C            3.110120756997     0.646885181070    -0.000045554598    12.000000000000
         C           -3.263091243003    -0.074684818930     0.000002445402    12.000000000000
         C           -2.444901243003    -1.205805818930    -0.000071554598    12.000000000000
         H            1.612088756997     2.229744181070    -0.000211554598     1.007825032230
         H           -0.761683243003     2.214062181070     0.000158445402     1.007825032230
         H            1.511736756997    -2.115736818930     0.000158445402     1.007825032230
         H            4.101033756997     1.076240181070    -0.000071554598     1.007825032230
         H           -3.250934243003     2.088019181070     0.000145445402     1.007825032230
         H           -4.344459243003    -0.177861818930    -0.000001554598     1.007825032230
         H           -2.879984243003    -2.204198818930    -0.000130554598     1.007825032230

  Basis Set: AUG-CC-PVTZ
    Blend: AUG-CC-PVTZ
  Basis Set: (AUG-CC-PVTZ AUX)
    Blend: AUG-CC-PVTZ-JKFIT
	 Reference Energy          =    -474.3294627826081182 [Eh]
	 Singles Energy            =      -0.0000000000000000 [Eh]
	 Same-Spin Energy          =      -0.5143218637082072 [Eh]
	 Opposite-Spin Energy      =      -1.5561257234994801 [Eh]
	 Correlation Energy        =      -2.0704475872076875 [Eh]
	 Total Energy              =    -476.3999103698158137 [Eh]

	 ================> DF-SCS-MP2 Energies <==================
	-----------------------------------------------------------
	 SCS Same-Spin Scale       =       0.3333333333333333 [-]
	 SCS Opposite-Spin Scale   =       1.2000000000000000 [-]
	 SCS Same-Spin Energy      =      -0.1714406212360691 [Eh]
	 SCS Opposite-Spin Energy  =      -1.8673508681993760 [Eh]
	 SCS Correlation Energy    =      -2.0387914894354449 [Eh]
	 SCS Total Energy          =    -476.3682542720435436 [Eh]
	-----------------------------------------------------------

  Dipole Moment: [D]
     X:    -1.1922      Y:     2.0043      Z:     0.0001     Total:     2.3321

*** Psi4 exiting successfully. Buy a developer a beer!
