                               Psi4 1.3.2 release

  ==> Input File <==

--------------------------------------------------------------------------
#psi4
#
memory 32 gb

molecule  {
0 1
  O        3.0870850    -0.7380670     0.0000600
  N       -1.0742560    -1.1771330    -0.0000800
  C        0.9761220     0.0434820    -0.0000150
  C       -0.4881060     0.0430670    -0.0000040
  C        1.8814630     1.1555170    -0.0001020
  C       -1.2332690     1.2310260     0.0000830
  C        1.7797804    -1.1256874     0.0000817
  C       -2.6240280     1.1598410     0.0000810
  C        3.1400070     0.6275730    -0.0000460
  C       -3.2332050    -0.0939970     0.0000020
  C       -2.4150150    -1.2251180    -0.0000720
  H        1.6419750     2.2104320    -0.0002120
  H       -0.7317970     2.1947500     0.0001580
  H        1.5416230    -2.1350490     0.0001580
  H        4.1309200     1.0569280    -0.0000720
  H       -3.2210480     2.0687070     0.0001450
  H       -4.3145730    -0.1971740    -0.0000020
  H       -2.8500980    -2.2235110    -0.0001310
units angstrom
no_reorient  #important for SAPT in psi4, default
symmetry c1  #important for SAPT in psi4, default
}

set PROPERTIES_ORIGIN ["COM"]
properties('MP2/aug-cc-pvtz', properties = ['dipole'])
--------------------------------------------------------------------------

    Molecular point group: c1
  Charge       = 0
  Multiplicity = 1
  Basis Set: AUG-CC-PVTZ
    Blend: AUG-CC-PVTZ
  Basis Set: (AUG-CC-PVTZ AUX)
    Blend: AUG-CC-PVTZ-JKFIT

    Orbital Energies [Eh]
    ---------------------

    Doubly Occupied:

       1A    -20.630464     2A    -15.564961     3A    -11.297102
       4A    -11.294235     5A    -11.291330     6A    -11.278969
       7A    -11.262776     8A    -11.244197     9A    -11.242591
      10A    -11.240315    11A    -11.238252    12A     -1.457954
      13A     -1.257779    14A     -1.099891    15A     -1.087939
      16A     -1.034290    17A     -0.996918    18A     -0.875740
      19A     -0.862625    20A     -0.792094    21A     -0.784220
      22A     -0.746013    23A     -0.687021    24A     -0.661882
      25A     -0.646598    26A     -0.634276    27A     -0.617138
      28A     -0.584322    29A     -0.577919    30A     -0.570826
      31A     -0.548185    32A     -0.532452    33A     -0.519867
      34A     -0.421821    35A     -0.421477    36A     -0.383338
      37A     -0.348604    38A     -0.294061

  @DF-RHF Final Energy:  -474.32561863057543

   => Energetics <=

    Nuclear Repulsion Energy =            539.0174157107952624
    One-Electron Energy =               -1712.6251871940962701
    Two-Electron Energy =                 699.2821528527254031
    Total Energy =                       -474.3256186305754909
  Basis Set: (AUG-CC-PVTZ AUX)
    Blend: AUG-CC-PVTZ-RI
    Molecular point group: c1

    Geometry (in Angstrom), charge = 0, multiplicity = 1:

       Center              X                  Y                   Z               Mass
    ------------   -----------------  -----------------  -----------------  -----------------
         O            3.060149898282    -0.713924110563     0.000060081396    15.994914619570
         N           -1.101191101718    -1.152990110563    -0.000079918604    14.003074004430
         C            0.949186898282     0.067624889437    -0.000014918604    12.000000000000
         C           -0.515041101718     0.067209889437    -0.000003918604    12.000000000000
         C            1.854527898282     1.179659889437    -0.000101918604    12.000000000000
         C           -1.260204101718     1.255168889437     0.000083081396    12.000000000000
         C            1.752845298282    -1.101544510563     0.000081781396    12.000000000000
         C           -2.650963101718     1.183983889437     0.000081081396    12.000000000000
         C            3.113071898282     0.651715889437    -0.000045918604    12.000000000000
         C           -3.260140101718    -0.069854110563     0.000002081396    12.000000000000
         C           -2.441950101718    -1.200975110563    -0.000071918604    12.000000000000
         H            1.615039898282     2.234574889437    -0.000211918604     1.007825032230
         H           -0.758732101718     2.218892889437     0.000158081396     1.007825032230
         H            1.514687898282    -2.110906110563     0.000158081396     1.007825032230
         H            4.103984898282     1.081070889437    -0.000071918604     1.007825032230
         H           -3.247983101718     2.092849889437     0.000145081396     1.007825032230
         H           -4.341508101718    -0.173031110563    -0.000001918604     1.007825032230
         H           -2.877033101718    -2.199368110563    -0.000130918604     1.007825032230

  Basis Set: AUG-CC-PVTZ
    Blend: AUG-CC-PVTZ
  Basis Set: (AUG-CC-PVTZ AUX)
    Blend: AUG-CC-PVTZ-JKFIT
	 Reference Energy          =    -474.3256186305754341 [Eh]
	 Singles Energy            =      -0.0000000000000000 [Eh]
	 Same-Spin Energy          =      -0.5149300771479043 [Eh]
	 Opposite-Spin Energy      =      -1.5581439344332251 [Eh]
	 Correlation Energy        =      -2.0730740115811295 [Eh]
	 Total Energy              =    -476.3986926421565613 [Eh]

	 ================> DF-SCS-MP2 Energies <==================
	-----------------------------------------------------------
	 SCS Same-Spin Scale       =       0.3333333333333333 [-]
	 SCS Opposite-Spin Scale   =       1.2000000000000000 [-]
	 SCS Same-Spin Energy      =      -0.1716433590493014 [Eh]
	 SCS Opposite-Spin Energy  =      -1.8697727213198700 [Eh]
	 SCS Correlation Energy    =      -2.0414160803691717 [Eh]
	 SCS Total Energy          =    -476.3670347109446084 [Eh]
	-----------------------------------------------------------

  Dipole Moment: [D]
     X:    -1.2617      Y:     2.0211      Z:     0.0001     Total:     2.3825

*** Psi4 exiting successfully. Buy a developer a beer!
