                               Psi4 1.3.2 release

  ==> Input File <==

--------------------------------------------------------------------------
#psi4
#
memory 32 gb

molecule  {
0 1
  O        3.0870850    -0.7380670     0.0000600
  N       -1.0742560    -1.1771330    -0.0000800
  C        0.9761220     0.0434820    -0.0000150
  C       -0.6881060     0.0430103    -0.0000025
  C        1.8814630     1.1555170    -0.0001020
  C       -1.2332690     1.2310260     0.0000830
  C        1.7670490    -1.0798270     0.0000780
  C       -2.6240280     1.1598410     0.0000810
  C        3.1400070     0.6275730    -0.0000460
  C       -3.2332050    -0.0939970     0.0000020
  C       -2.4150150    -1.2251180    -0.0000720
  H        1.6419750     2.2104320    -0.0002120
  H       -0.7317970     2.1947500     0.0001580
  H        1.5416230    -2.1350490     0.0001580
  H        4.1309200     1.0569280    -0.0000720
  H       -3.2210480     2.0687070     0.0001450
  H       -4.3145730    -0.1971740    -0.0000020
  H       -2.8500980    -2.2235110    -0.0001310
units angstrom
no_reorient  #important for SAPT in psi4, default
symmetry c1  #important for SAPT in psi4, default
}

set PROPERTIES_ORIGIN ["COM"]
properties('MP2/aug-cc-pvtz', properties = ['dipole'])
--------------------------------------------------------------------------

    Molecular point group: c1
  Charge       = 0
  Multiplicity = 1
  Basis Set: AUG-CC-PVTZ
    Blend: AUG-CC-PVTZ
  Basis Set: (AUG-CC-PVTZ AUX)
    Blend: AUG-CC-PVTZ-JKFIT

    Orbital Energies [Eh]
    ---------------------

    Doubly Occupied:

       1A    -20.617283     2A    -15.571028     3A    -11.290315
       4A    -11.287729     5A    -11.284065     6A    -11.278006
       7A    -11.271463     8A    -11.246580     9A    -11.239765
      10A    -11.233412    11A    -11.227397    12A     -1.447381
      13A     -1.297195    14A     -1.113320    15A     -1.084577
      16A     -1.039574    17A     -0.989347    18A     -0.882981
      19A     -0.859639    20A     -0.787350    21A     -0.767485
      22A     -0.739782    23A     -0.692449    24A     -0.675856
      25A     -0.649169    26A     -0.624577    27A     -0.599843
      28A     -0.585877    29A     -0.573359    30A     -0.572395
      31A     -0.563370    32A     -0.527811    33A     -0.495194
      34A     -0.430217    35A     -0.408843    36A     -0.394533
      37A     -0.354874    38A     -0.301463

  @DF-RHF Final Energy:  -474.29097028896342

   => Energetics <=

    Nuclear Repulsion Energy =            540.4755776082104148
    One-Electron Energy =               -1715.5220902078449399
    Two-Electron Energy =                 700.7555423106711032
    Total Energy =                       -474.2909702889634218
  Basis Set: (AUG-CC-PVTZ AUX)
    Blend: AUG-CC-PVTZ-RI
    Molecular point group: c1

    Geometry (in Angstrom), charge = 0, multiplicity = 1:

       Center              X                  Y                   Z               Mass
    ------------   -----------------  -----------------  -----------------  -----------------
         O            3.077748851465    -0.717713382724     0.000060263399    15.994914619570
         N           -1.083592148535    -1.156779382724    -0.000079736601    14.003074004430
         C            0.966785851465     0.063835617276    -0.000014736601    12.000000000000
         C           -0.697442148535     0.063363917276    -0.000002236601    12.000000000000
         C            1.872126851465     1.175870617276    -0.000101736601    12.000000000000
         C           -1.242605148535     1.251379617276     0.000083263399    12.000000000000
         C            1.757712851465    -1.059473382724     0.000078263399    12.000000000000
         C           -2.633364148535     1.180194617276     0.000081263399    12.000000000000
         C            3.130670851465     0.647926617276    -0.000045736601    12.000000000000
         C           -3.242541148535    -0.073643382724     0.000002263399    12.000000000000
         C           -2.424351148535    -1.204764382724    -0.000071736601    12.000000000000
         H            1.632638851465     2.230785617276    -0.000211736601     1.007825032230
         H           -0.741133148535     2.215103617276     0.000158263399     1.007825032230
         H            1.532286851465    -2.114695382724     0.000158263399     1.007825032230
         H            4.121583851465     1.077281617276    -0.000071736601     1.007825032230
         H           -3.230384148535     2.089060617276     0.000145263399     1.007825032230
         H           -4.323909148535    -0.176820382724    -0.000001736601     1.007825032230
         H           -2.859434148535    -2.203157382724    -0.000130736601     1.007825032230

  Basis Set: AUG-CC-PVTZ
    Blend: AUG-CC-PVTZ
  Basis Set: (AUG-CC-PVTZ AUX)
    Blend: AUG-CC-PVTZ-JKFIT
	 Reference Energy          =    -474.2909702889634218 [Eh]
	 Singles Energy            =      -0.0000000000000000 [Eh]
	 Same-Spin Energy          =      -0.5134623229141307 [Eh]
	 Opposite-Spin Energy      =      -1.5560610737169365 [Eh]
	 Correlation Energy        =      -2.0695233966310673 [Eh]
	 Total Energy              =    -476.3604936855944629 [Eh]

	 ================> DF-SCS-MP2 Energies <==================
	-----------------------------------------------------------
	 SCS Same-Spin Scale       =       0.3333333333333333 [-]
	 SCS Opposite-Spin Scale   =       1.2000000000000000 [-]
	 SCS Same-Spin Energy      =      -0.1711541076380436 [Eh]
	 SCS Opposite-Spin Energy  =      -1.8672732884603236 [Eh]
	 SCS Correlation Energy    =      -2.0384273960983670 [Eh]
	 SCS Total Energy          =    -476.3293976850617923 [Eh]
	-----------------------------------------------------------

  Dipole Moment: [D]
     X:    -2.3654      Y:     2.0188      Z:     0.0001     Total:     3.1098

*** Psi4 exiting successfully. Buy a developer a beer!
