                               Psi4 1.3.2 release

  ==> Input File <==

--------------------------------------------------------------------------
#psi4
#
memory 32 gb

molecule  {
0 1
  O        3.0870850    -0.7380670     0.0000600
  N       -1.0742560    -1.1771330    -0.0000800
  C        0.9761220     0.0434820    -0.0000150
  C       -0.4881060     0.0430670    -0.0000040
  C        1.8814630     1.1555170    -0.0001020
  C       -1.2332690     1.2310260     0.0000830
  C        1.9606652    -1.0296994     0.0000754
  C       -2.6240280     1.1598410     0.0000810
  C        3.1400070     0.6275730    -0.0000460
  C       -3.2332050    -0.0939970     0.0000020
  C       -2.4150150    -1.2251180    -0.0000720
  H        1.6419750     2.2104320    -0.0002120
  H       -0.7317970     2.1947500     0.0001580
  H        1.5416230    -2.1350490     0.0001580
  H        4.1309200     1.0569280    -0.0000720
  H       -3.2210480     2.0687070     0.0001450
  H       -4.3145730    -0.1971740    -0.0000020
  H       -2.8500980    -2.2235110    -0.0001310
units angstrom
no_reorient  #important for SAPT in psi4, default
symmetry c1  #important for SAPT in psi4, default
}

set PROPERTIES_ORIGIN ["COM"]
properties('MP2/aug-cc-pvtz', properties = ['dipole'])
--------------------------------------------------------------------------

    Molecular point group: c1
  Charge       = 0
  Multiplicity = 1
  Basis Set: AUG-CC-PVTZ
    Blend: AUG-CC-PVTZ
  Basis Set: (AUG-CC-PVTZ AUX)
    Blend: AUG-CC-PVTZ-JKFIT

    Orbital Energies [Eh]
    ---------------------

    Doubly Occupied:

       1A    -20.663159     2A    -15.559309     3A    -11.313811
       4A    -11.291130     5A    -11.283001     6A    -11.275080
       7A    -11.259437     8A    -11.245761     9A    -11.238098
      10A    -11.234735    11A    -11.230436    12A     -1.573318
      13A     -1.252971    14A     -1.106778    15A     -1.083784
      16A     -1.043306    17A     -1.002978    18A     -0.880677
      19A     -0.859640    20A     -0.815333    21A     -0.775259
      22A     -0.752884    23A     -0.701594    24A     -0.698765
      25A     -0.660788    26A     -0.652957    27A     -0.612233
      28A     -0.598599    29A     -0.574159    30A     -0.569104
      31A     -0.545133    32A     -0.516982    33A     -0.492266
      34A     -0.424471    35A     -0.415804    36A     -0.381155
      37A     -0.353123    38A     -0.279564

  @DF-RHF Final Energy:  -474.28005405872710

   => Energetics <=

    Nuclear Repulsion Energy =            541.3622482489021195
    One-Electron Energy =               -1716.8494395607649494
    Two-Electron Energy =                 701.2071372531356701
    Total Energy =                       -474.2800540587270461
  Basis Set: (AUG-CC-PVTZ AUX)
    Blend: AUG-CC-PVTZ-RI
    Molecular point group: c1

    Geometry (in Angstrom), charge = 0, multiplicity = 1:

       Center              X                  Y                   Z               Mass
    ------------   -----------------  -----------------  -----------------  -----------------
         O            3.045185567080    -0.721865055426     0.000060602586    15.994914619570
         N           -1.116155432920    -1.160931055426    -0.000079397414    14.003074004430
         C            0.934222567080     0.059683944574    -0.000014397414    12.000000000000
         C           -0.530005432920     0.059268944574    -0.000003397414    12.000000000000
         C            1.839563567080     1.171718944574    -0.000101397414    12.000000000000
         C           -1.275168432920     1.247227944574     0.000083602586    12.000000000000
         C            1.918765767080    -1.013497455426     0.000076002586    12.000000000000
         C           -2.665927432920     1.176042944574     0.000081602586    12.000000000000
         C            3.098107567080     0.643774944574    -0.000045397414    12.000000000000
         C           -3.275104432920    -0.077795055426     0.000002602586    12.000000000000
         C           -2.456914432920    -1.208916055426    -0.000071397414    12.000000000000
         H            1.600075567080     2.226633944574    -0.000211397414     1.007825032230
         H           -0.773696432920     2.210951944574     0.000158602586     1.007825032230
         H            1.499723567080    -2.118847055426     0.000158602586     1.007825032230
         H            4.089020567080     1.073129944574    -0.000071397414     1.007825032230
         H           -3.262947432920     2.084908944574     0.000145602586     1.007825032230
         H           -4.356472432920    -0.180972055426    -0.000001397414     1.007825032230
         H           -2.891997432920    -2.207309055426    -0.000130397414     1.007825032230

  Basis Set: AUG-CC-PVTZ
    Blend: AUG-CC-PVTZ
  Basis Set: (AUG-CC-PVTZ AUX)
    Blend: AUG-CC-PVTZ-JKFIT
	 Reference Energy          =    -474.2800540587271030 [Eh]
	 Singles Energy            =      -0.0000000000000000 [Eh]
	 Same-Spin Energy          =      -0.5145399356109314 [Eh]
	 Opposite-Spin Energy      =      -1.5536507776508448 [Eh]
	 Correlation Energy        =      -2.0681907132617763 [Eh]
	 Total Energy              =    -476.3482447719889024 [Eh]

	 ================> DF-SCS-MP2 Energies <==================
	-----------------------------------------------------------
	 SCS Same-Spin Scale       =       0.3333333333333333 [-]
	 SCS Opposite-Spin Scale   =       1.2000000000000000 [-]
	 SCS Same-Spin Energy      =      -0.1715133118703104 [Eh]
	 SCS Opposite-Spin Energy  =      -1.8643809331810137 [Eh]
	 SCS Correlation Energy    =      -2.0358942450513240 [Eh]
	 SCS Total Energy          =    -476.3159483037784412 [Eh]
	-----------------------------------------------------------

  Dipole Moment: [D]
     X:    -0.6458      Y:     1.9041      Z:     0.0001     Total:     2.0107

*** Psi4 exiting successfully. Buy a developer a beer!
