                               Psi4 1.3.2 release

  ==> Input File <==

--------------------------------------------------------------------------
#psi4
#
memory 32 gb

molecule  {
0 1
  O        3.0870850    -0.7380670     0.0000600
  N       -1.0742560    -1.1771330    -0.0000800
  C        1.0558990    -0.0169625    -0.0000091
  C       -0.4881060     0.0430670    -0.0000040
  C        1.8814630     1.1555170    -0.0001020
  C       -1.2332690     1.2310260     0.0000830
  C        1.7670490    -1.0798270     0.0000780
  C       -2.6240280     1.1598410     0.0000810
  C        3.1400070     0.6275730    -0.0000460
  C       -3.2332050    -0.0939970     0.0000020
  C       -2.4150150    -1.2251180    -0.0000720
  H        1.6419750     2.2104320    -0.0002120
  H       -0.7317970     2.1947500     0.0001580
  H        1.5416230    -2.1350490     0.0001580
  H        4.1309200     1.0569280    -0.0000720
  H       -3.2210480     2.0687070     0.0001450
  H       -4.3145730    -0.1971740    -0.0000020
  H       -2.8500980    -2.2235110    -0.0001310
units angstrom
no_reorient  #important for SAPT in psi4, default
symmetry c1  #important for SAPT in psi4, default
}

set PROPERTIES_ORIGIN ["COM"]
properties('MP2/aug-cc-pvtz', properties = ['dipole'])
--------------------------------------------------------------------------

    Molecular point group: c1
  Charge       = 0
  Multiplicity = 1
  Basis Set: AUG-CC-PVTZ
    Blend: AUG-CC-PVTZ
  Basis Set: (AUG-CC-PVTZ AUX)
    Blend: AUG-CC-PVTZ-JKFIT

    Orbital Energies [Eh]
    ---------------------

    Doubly Occupied:

       1A    -20.619232     2A    -15.566299     3A    -11.296413
       4A    -11.293934     5A    -11.279356     6A    -11.275091
       7A    -11.264333     8A    -11.245491     9A    -11.242336
      10A    -11.234132    11A    -11.231211    12A     -1.457192
      13A     -1.257284    14A     -1.107879    15A     -1.089174
      16A     -1.031802    17A     -1.008364    18A     -0.865872
      19A     -0.862505    20A     -0.803682    21A     -0.772703
      22A     -0.743898    23A     -0.685983    24A     -0.661789
      25A     -0.643179    26A     -0.636727    27A     -0.604565
      28A     -0.588409    29A     -0.579961    30A     -0.565821
      31A     -0.546724    32A     -0.542023    33A     -0.508596
      34A     -0.423822    35A     -0.421565    36A     -0.383977
      37A     -0.347971    38A     -0.314237

  @DF-RHF Final Energy:  -474.32175151381847

   => Energetics <=

    Nuclear Repulsion Energy =            540.2148286152137189
    One-Electron Energy =               -1715.0660905891688799
    Two-Electron Energy =                 700.5295104601366347
    Total Energy =                       -474.3217515138185263
  Basis Set: (AUG-CC-PVTZ AUX)
    Blend: AUG-CC-PVTZ-RI
    Molecular point group: c1

    Geometry (in Angstrom), charge = 0, multiplicity = 1:

       Center              X                  Y                   Z               Mass
    ------------   -----------------  -----------------  -----------------  -----------------
         O            3.054603315241    -0.712717589602     0.000059899393    15.994914619570
         N           -1.106737684759    -1.151783589602    -0.000080100607    14.003074004430
         C            1.023417315241     0.008386910398    -0.000009200607    12.000000000000
         C           -0.520587684759     0.068416410398    -0.000004100607    12.000000000000
         C            1.848981315241     1.180866410398    -0.000102100607    12.000000000000
         C           -1.265750684759     1.256375410398     0.000082899393    12.000000000000
         C            1.734567315241    -1.054477589602     0.000077899393    12.000000000000
         C           -2.656509684759     1.185190410398     0.000080899393    12.000000000000
         C            3.107525315241     0.652922410398    -0.000046100607    12.000000000000
         C           -3.265686684759    -0.068647589602     0.000001899393    12.000000000000
         C           -2.447496684759    -1.199768589602    -0.000072100607    12.000000000000
         H            1.609493315241     2.235781410398    -0.000212100607     1.007825032230
         H           -0.764278684759     2.220099410398     0.000157899393     1.007825032230
         H            1.509141315241    -2.109699589602     0.000157899393     1.007825032230
         H            4.098438315241     1.082277410398    -0.000072100607     1.007825032230
         H           -3.253529684759     2.094056410398     0.000144899393     1.007825032230
         H           -4.347054684759    -0.171824589602    -0.000002100607     1.007825032230
         H           -2.882579684759    -2.198161589602    -0.000131100607     1.007825032230

  Basis Set: AUG-CC-PVTZ
    Blend: AUG-CC-PVTZ
  Basis Set: (AUG-CC-PVTZ AUX)
    Blend: AUG-CC-PVTZ-JKFIT
	 Reference Energy          =    -474.3217515138184694 [Eh]
	 Singles Energy            =      -0.0000000000000000 [Eh]
	 Same-Spin Energy          =      -0.5122461845580297 [Eh]
	 Opposite-Spin Energy      =      -1.5538756916956347 [Eh]
	 Correlation Energy        =      -2.0661218762536642 [Eh]
	 Total Energy              =    -476.3878733900721159 [Eh]

	 ================> DF-SCS-MP2 Energies <==================
	-----------------------------------------------------------
	 SCS Same-Spin Scale       =       0.3333333333333333 [-]
	 SCS Opposite-Spin Scale   =       1.2000000000000000 [-]
	 SCS Same-Spin Energy      =      -0.1707487281860099 [Eh]
	 SCS Opposite-Spin Energy  =      -1.8646508300347615 [Eh]
	 SCS Correlation Energy    =      -2.0353995582207713 [Eh]
	 SCS Total Energy          =    -476.3571510720392439 [Eh]
	-----------------------------------------------------------

  Dipole Moment: [D]
     X:    -1.4835      Y:     2.0458      Z:     0.0001     Total:     2.5271

*** Psi4 exiting successfully. Buy a developer a beer!
