                               Psi4 1.3.2 release

  ==> Input File <==

--------------------------------------------------------------------------
#psi4
#
memory 32 gb

molecule  {
0 1
  O        3.0870850    -0.7380670     0.0000600
  N       -1.0742560    -1.1771330    -0.0000800
  C        0.8996906    -0.0144266    -0.0000111
  C       -0.4881060     0.0430670    -0.0000040
  C        1.8814630     1.1555170    -0.0001020
  C       -1.2332690     1.2310260     0.0000830
  C        1.7670490    -1.0798270     0.0000780
  C       -2.6240280     1.1598410     0.0000810
  C        3.1400070     0.6275730    -0.0000460
  C       -3.2332050    -0.0939970     0.0000020
  C       -2.4150150    -1.2251180    -0.0000720
  H        1.6419750     2.2104320    -0.0002120
  H       -0.7317970     2.1947500     0.0001580
  H        1.5416230    -2.1350490     0.0001580
  H        4.1309200     1.0569280    -0.0000720
  H       -3.2210480     2.0687070     0.0001450
  H       -4.3145730    -0.1971740    -0.0000020
  H       -2.8500980    -2.2235110    -0.0001310
units angstrom
no_reorient  #important for SAPT in psi4, default
symmetry c1  #important for SAPT in psi4, default
}

set PROPERTIES_ORIGIN ["COM"]
properties('MP2/aug-cc-pvtz', properties = ['dipole'])
--------------------------------------------------------------------------

    Molecular point group: c1
  Charge       = 0
  Multiplicity = 1
  Basis Set: AUG-CC-PVTZ
    Blend: AUG-CC-PVTZ
  Basis Set: (AUG-CC-PVTZ AUX)
    Blend: AUG-CC-PVTZ-JKFIT

    Orbital Energies [Eh]
    ---------------------

    Doubly Occupied:

       1A    -20.629049     2A    -15.564249     3A    -11.299787
       4A    -11.294616     5A    -11.286942     6A    -11.278943
       7A    -11.263755     8A    -11.244422     9A    -11.243423
      10A    -11.241525    11A    -11.241052    12A     -1.458551
      13A     -1.261537    14A     -1.102939    15A     -1.088305
      16A     -1.030663    17A     -1.000092    18A     -0.886000
      19A     -0.864893    20A     -0.796914    21A     -0.772449
      22A     -0.744916    23A     -0.686750    24A     -0.664251
      25A     -0.652509    26A     -0.635844    27A     -0.608228
      28A     -0.591031    29A     -0.577382    30A     -0.566160
      31A     -0.552105    32A     -0.532773    33A     -0.509378
      34A     -0.424453    35A     -0.423511    36A     -0.382980
      37A     -0.349224    38A     -0.298412

  @DF-RHF Final Energy:  -474.31985802647483

   => Energetics <=

    Nuclear Repulsion Energy =            539.9711006291389594
    One-Electron Energy =               -1714.4818937761904181
    Two-Electron Energy =                 700.1909351205767962
    Total Energy =                       -474.3198580264747761
  Basis Set: (AUG-CC-PVTZ AUX)
    Blend: AUG-CC-PVTZ-RI
    Molecular point group: c1

    Geometry (in Angstrom), charge = 0, multiplicity = 1:

       Center              X                  Y                   Z               Mass
    ------------   -----------------  -----------------  -----------------  -----------------
         O            3.067526204473    -0.712927380847     0.000060064850    15.994914619570
         N           -1.093814795527    -1.151993380847    -0.000079935150    14.003074004430
         C            0.880131804473     0.010713019153    -0.000011035150    12.000000000000
         C           -0.507664795527     0.068206619153    -0.000003935150    12.000000000000
         C            1.861904204473     1.180656619153    -0.000101935150    12.000000000000
         C           -1.252827795527     1.256165619153     0.000083064850    12.000000000000
         C            1.747490204473    -1.054687380847     0.000078064850    12.000000000000
         C           -2.643586795527     1.184980619153     0.000081064850    12.000000000000
         C            3.120448204473     0.652712619153    -0.000045935150    12.000000000000
         C           -3.252763795527    -0.068857380847     0.000002064850    12.000000000000
         C           -2.434573795527    -1.199978380847    -0.000071935150    12.000000000000
         H            1.622416204473     2.235571619153    -0.000211935150     1.007825032230
         H           -0.751355795527     2.219889619153     0.000158064850     1.007825032230
         H            1.522064204473    -2.109909380847     0.000158064850     1.007825032230
         H            4.111361204473     1.082067619153    -0.000071935150     1.007825032230
         H           -3.240606795527     2.093846619153     0.000145064850     1.007825032230
         H           -4.334131795527    -0.172034380847    -0.000001935150     1.007825032230
         H           -2.869656795527    -2.198371380847    -0.000130935150     1.007825032230

  Basis Set: AUG-CC-PVTZ
    Blend: AUG-CC-PVTZ
  Basis Set: (AUG-CC-PVTZ AUX)
    Blend: AUG-CC-PVTZ-JKFIT
	 Reference Energy          =    -474.3198580264748330 [Eh]
	 Singles Energy            =      -0.0000000000000000 [Eh]
	 Same-Spin Energy          =      -0.5140703023413610 [Eh]
	 Opposite-Spin Energy      =      -1.5578886932224383 [Eh]
	 Correlation Energy        =      -2.0719589955637994 [Eh]
	 Total Energy              =    -476.3918170220386514 [Eh]

	 ================> DF-SCS-MP2 Energies <==================
	-----------------------------------------------------------
	 SCS Same-Spin Scale       =       0.3333333333333333 [-]
	 SCS Opposite-Spin Scale   =       1.2000000000000000 [-]
	 SCS Same-Spin Energy      =      -0.1713567674471203 [Eh]
	 SCS Opposite-Spin Energy  =      -1.8694664318669258 [Eh]
	 SCS Correlation Energy    =      -2.0408231993140462 [Eh]
	 SCS Total Energy          =    -476.3606812257888805 [Eh]
	-----------------------------------------------------------

  Dipole Moment: [D]
     X:    -1.3347      Y:     2.0140      Z:     0.0001     Total:     2.4161

*** Psi4 exiting successfully. Buy a developer a beer!
