                               Psi4 1.4a3.dev225

  ==> Input File <==

--------------------------------------------------------------------------
#psi4
#
memory 32 gb

molecule  {
0 1
  O        3.0870850    -0.7380670     0.0000600
  N       -1.0742560    -1.1771330    -0.0000800
  C        0.9761220     0.0434820    -0.0000150
  C       -0.4881060     0.0430670    -0.0000040
  C        1.8814630     1.1555170    -0.0001020
  C       -1.2332690     1.2310260     0.0000830
  C        1.7670490    -1.0798270     0.0000780
  C       -2.6240280     1.1598410     0.0000810
  C        3.1400070     0.6275730    -0.0000460
  C       -3.2332050    -0.0939970     0.0000020
  C       -2.4150150    -1.2251180    -0.0000720
  H        1.6375472     2.2299357    -0.0002140
  H       -0.7317970     2.1947500     0.0001580
  H        1.5416230    -2.1350490     0.0001580
  H        4.1309200     1.0569280    -0.0000720
  H       -3.2210480     2.0687070     0.0001450
  H       -4.3145730    -0.1971740    -0.0000020
  H       -2.8500980    -2.2235110    -0.0001310
units angstrom
no_reorient  #important for SAPT in psi4, default
symmetry c1  #important for SAPT in psi4, default
}

set PROPERTIES_ORIGIN ["COM"]
properties('MP2/aug-cc-pvtz', properties = ['dipole'])
--------------------------------------------------------------------------

    Molecular point group: c1
  Charge       = 0
  Multiplicity = 1
  Basis Set: AUG-CC-PVTZ
    Blend: AUG-CC-PVTZ
  Basis Set: (AUG-CC-PVTZ AUX)
    Blend: AUG-CC-PVTZ-JKFIT

    Orbital Energies [Eh]
    ---------------------

    Doubly Occupied:

       1A    -20.628773     2A    -15.565712     3A    -11.293952
       4A    -11.293459     5A    -11.292300     6A    -11.279496
       7A    -11.263358     8A    -11.243381     9A    -11.241129
      10A    -11.239964    11A    -11.238902    12A     -1.459011
      13A     -1.258630    14A     -1.105413    15A     -1.088606
      16A     -1.033759    17A     -0.998191    18A     -0.875527
      19A     -0.863341    20A     -0.794286    21A     -0.777686
      22A     -0.744107    23A     -0.687133    24A     -0.662242
      25A     -0.646149    26A     -0.635805    27A     -0.606797
      28A     -0.585689    29A     -0.574403    30A     -0.570063
      31A     -0.548940    32A     -0.538153    33A     -0.520479
      34A     -0.424732    35A     -0.422011    36A     -0.383844
      37A     -0.348789    38A     -0.299098

  @DF-RHF Final Energy:  -474.33045822617783

   => Energetics <=

    Nuclear Repulsion Energy =            539.7811409984434476
    One-Electron Energy =               -1714.1565788435073046
    Two-Electron Energy =                 700.0449796188861455
    Total Energy =                       -474.3304582261778251
  Basis Set: (AUG-CC-PVTZ AUX)
    Blend: AUG-CC-PVTZ-RI
    Molecular point group: c1

    Geometry (in Angstrom), charge = 0, multiplicity = 1:

       Center              X                  Y                   Z               Mass
    ------------   -----------------  -----------------  -----------------  -----------------
         O            3.061233912427    -0.717853584927     0.000060401388    15.994914619570
         N           -1.100107087573    -1.156919584927    -0.000079598612    14.003074004430
         C            0.950270912427     0.063695415073    -0.000014598612    12.000000000000
         C           -0.513957087573     0.063280415073    -0.000003598612    12.000000000000
         C            1.855611912427     1.175730415073    -0.000101598612    12.000000000000
         C           -1.259120087573     1.251239415073     0.000083401388    12.000000000000
         C            1.741197912427    -1.059613584927     0.000078401388    12.000000000000
         C           -2.649879087573     1.180054415073     0.000081401388    12.000000000000
         C            3.114155912427     0.647786415073    -0.000045598612    12.000000000000
         C           -3.259056087573    -0.073783584927     0.000002401388    12.000000000000
         C           -2.440866087573    -1.204904584927    -0.000071598612    12.000000000000
         H            1.611696112427     2.250149115073    -0.000213598612     1.007825032230
         H           -0.757648087573     2.214963415073     0.000158401388     1.007825032230
         H            1.515771912427    -2.114835584927     0.000158401388     1.007825032230
         H            4.105068912427     1.077141415073    -0.000071598612     1.007825032230
         H           -3.246899087573     2.088920415073     0.000145401388     1.007825032230
         H           -4.340424087573    -0.176960584927    -0.000001598612     1.007825032230
         H           -2.875949087573    -2.203297584927    -0.000130598612     1.007825032230

  Basis Set: AUG-CC-PVTZ
    Blend: AUG-CC-PVTZ
  Basis Set: (AUG-CC-PVTZ AUX)
    Blend: AUG-CC-PVTZ-JKFIT
	 Reference Energy          =    -474.3304582261778251 [Eh]
	 Singles Energy            =      -0.0000000000000000 [Eh]
	 Same-Spin Energy          =      -0.5142441396911517 [Eh]
	 Opposite-Spin Energy      =      -1.5571113791331421 [Eh]
	 Correlation Energy        =      -2.0713555188242938 [Eh]
	 Total Energy              =    -476.4018137450021300 [Eh]

	 ================> DF-SCS-MP2 Energies <==================
	-----------------------------------------------------------
	 SCS Same-Spin Scale       =       0.3333333333333333 [-]
	 SCS Opposite-Spin Scale   =       1.2000000000000000 [-]
	 SCS Same-Spin Energy      =      -0.1714147132303839 [Eh]
	 SCS Opposite-Spin Energy  =      -1.8685336549597704 [Eh]
	 SCS Correlation Energy    =      -2.0399483681901542 [Eh]
	 SCS Total Energy          =    -476.3704065943679780 [Eh]
	-----------------------------------------------------------

  Dipole Moment: [D]
     X:    -1.3451      Y:     2.0203      Z:     0.0001     Total:     2.4271

*** Psi4 exiting successfully. Buy a developer a beer!
