                               Psi4 1.3.2 release

  ==> Input File <==

--------------------------------------------------------------------------
#psi4
#
memory 32 gb

molecule  {
0 1
  O        3.0870850    -0.7380670     0.0000600
  N       -1.0742560    -1.1771330    -0.0000800
  C        0.9761220     0.0434820    -0.0000150
  C       -0.4668998     0.0326514    -0.0000049
  C        1.8814630     1.1555170    -0.0001020
  C       -1.2332690     1.2310260     0.0000830
  C        1.7670490    -1.0798270     0.0000780
  C       -2.6240280     1.1598410     0.0000810
  C        3.1400070     0.6275730    -0.0000460
  C       -3.2332050    -0.0939970     0.0000020
  C       -2.4150150    -1.2251180    -0.0000720
  H        1.6419750     2.2104320    -0.0002120
  H       -0.7317970     2.1947500     0.0001580
  H        1.5416230    -2.1350490     0.0001580
  H        4.1309200     1.0569280    -0.0000720
  H       -3.2210480     2.0687070     0.0001450
  H       -4.3145730    -0.1971740    -0.0000020
  H       -2.8500980    -2.2235110    -0.0001310
units angstrom
no_reorient  #important for SAPT in psi4, default
symmetry c1  #important for SAPT in psi4, default
}

set PROPERTIES_ORIGIN ["COM"]
properties('MP2/aug-cc-pvtz', properties = ['dipole'])
--------------------------------------------------------------------------

    Molecular point group: c1
  Charge       = 0
  Multiplicity = 1
  Basis Set: AUG-CC-PVTZ
    Blend: AUG-CC-PVTZ
  Basis Set: (AUG-CC-PVTZ AUX)
    Blend: AUG-CC-PVTZ-JKFIT

    Orbital Energies [Eh]
    ---------------------

    Doubly Occupied:

       1A    -20.630031     2A    -15.564605     3A    -11.295728
       4A    -11.294543     5A    -11.293262     6A    -11.278646
       7A    -11.262208     8A    -11.244651     9A    -11.240282
      10A    -11.239297    11A    -11.238318    12A     -1.460305
      13A     -1.256802    14A     -1.108394    15A     -1.086578
      16A     -1.033353    17A     -0.998527    18A     -0.877886
      19A     -0.861667    20A     -0.797187    21A     -0.778372
      22A     -0.746058    23A     -0.687040    24A     -0.660735
      25A     -0.646632    26A     -0.637064    27A     -0.607524
      28A     -0.585538    29A     -0.576332    30A     -0.572523
      31A     -0.547517    32A     -0.538950    33A     -0.523229
      34A     -0.426779    35A     -0.418390    36A     -0.383172
      37A     -0.348285    38A     -0.297682

  @DF-RHF Final Energy:  -474.32983247589243

   => Energetics <=

    Nuclear Repulsion Energy =            539.8814649048467800
    One-Electron Energy =               -1714.3344072641846196
    Two-Electron Energy =                 700.1231098834454087
    Total Energy =                       -474.3298324758924309
  Basis Set: (AUG-CC-PVTZ AUX)
    Blend: AUG-CC-PVTZ-RI
    Molecular point group: c1

    Geometry (in Angstrom), charge = 0, multiplicity = 1:

       Center              X                  Y                   Z               Mass
    ------------   -----------------  -----------------  -----------------  -----------------
         O            3.059448790649    -0.716856406292     0.000060461947    15.994914619570
         N           -1.101892209351    -1.155922406292    -0.000079538053    14.003074004430
         C            0.948485790649     0.064692593708    -0.000014538053    12.000000000000
         C           -0.494536009351     0.053861993708    -0.000004438053    12.000000000000
         C            1.853826790649     1.176727593708    -0.000101538053    12.000000000000
         C           -1.260905209351     1.252236593708     0.000083461947    12.000000000000
         C            1.739412790649    -1.058616406292     0.000078461947    12.000000000000
         C           -2.651664209351     1.181051593708     0.000081461947    12.000000000000
         C            3.112370790649     0.648783593708    -0.000045538053    12.000000000000
         C           -3.260841209351    -0.072786406292     0.000002461947    12.000000000000
         C           -2.442651209351    -1.203907406292    -0.000071538053    12.000000000000
         H            1.614338790649     2.231642593708    -0.000211538053     1.007825032230
         H           -0.759433209351     2.215960593708     0.000158461947     1.007825032230
         H            1.513986790649    -2.113838406292     0.000158461947     1.007825032230
         H            4.103283790649     1.078138593708    -0.000071538053     1.007825032230
         H           -3.248684209351     2.089917593708     0.000145461947     1.007825032230
         H           -4.342209209351    -0.175963406292    -0.000001538053     1.007825032230
         H           -2.877734209351    -2.202300406292    -0.000130538053     1.007825032230

  Basis Set: AUG-CC-PVTZ
    Blend: AUG-CC-PVTZ
  Basis Set: (AUG-CC-PVTZ AUX)
    Blend: AUG-CC-PVTZ-JKFIT
	 Reference Energy          =    -474.3298324758924309 [Eh]
	 Singles Energy            =      -0.0000000000000000 [Eh]
	 Same-Spin Energy          =      -0.5144764751013982 [Eh]
	 Opposite-Spin Energy      =      -1.5573359654258259 [Eh]
	 Correlation Energy        =      -2.0718124405272240 [Eh]
	 Total Energy              =    -476.4016449164196274 [Eh]

	 ================> DF-SCS-MP2 Energies <==================
	-----------------------------------------------------------
	 SCS Same-Spin Scale       =       0.3333333333333333 [-]
	 SCS Opposite-Spin Scale   =       1.2000000000000000 [-]
	 SCS Same-Spin Energy      =      -0.1714921583671327 [Eh]
	 SCS Opposite-Spin Energy  =      -1.8688031585109910 [Eh]
	 SCS Correlation Energy    =      -2.0402953168781237 [Eh]
	 SCS Total Energy          =    -476.3701277927705746 [Eh]
	-----------------------------------------------------------

  Dipole Moment: [D]
     X:    -1.2218      Y:     2.0182      Z:     0.0001     Total:     2.3592

*** Psi4 exiting successfully. Buy a developer a beer!
