                               Psi4 1.3.2 release

  ==> Input File <==

--------------------------------------------------------------------------
#psi4
#
memory 32 gb

molecule  {
0 1
  O        3.0870850    -0.7380670     0.0000600
  N       -1.0742560    -1.1771330    -0.0000800
  C        0.9761220     0.0434820    -0.0000150
  C       -0.3637714    -0.0248867    -0.0000095
  C        1.8814630     1.1555170    -0.0001020
  C       -1.2332690     1.2310260     0.0000830
  C        1.7670490    -1.0798270     0.0000780
  C       -2.6240280     1.1598410     0.0000810
  C        3.1400070     0.6275730    -0.0000460
  C       -3.2332050    -0.0939970     0.0000020
  C       -2.4150150    -1.2251180    -0.0000720
  H        1.6419750     2.2104320    -0.0002120
  H       -0.7317970     2.1947500     0.0001580
  H        1.5416230    -2.1350490     0.0001580
  H        4.1309200     1.0569280    -0.0000720
  H       -3.2210480     2.0687070     0.0001450
  H       -4.3145730    -0.1971740    -0.0000020
  H       -2.8500980    -2.2235110    -0.0001310
units angstrom
no_reorient  #important for SAPT in psi4, default
symmetry c1  #important for SAPT in psi4, default
}

set PROPERTIES_ORIGIN ["COM"]
properties('MP2/aug-cc-pvtz', properties = ['dipole'])
--------------------------------------------------------------------------

    Molecular point group: c1
  Charge       = 0
  Multiplicity = 1
  Basis Set: AUG-CC-PVTZ
    Blend: AUG-CC-PVTZ
  Basis Set: (AUG-CC-PVTZ AUX)
    Blend: AUG-CC-PVTZ-JKFIT

    Orbital Energies [Eh]
    ---------------------

    Doubly Occupied:

       1A    -20.637634     2A    -15.558793     3A    -11.306492
       4A    -11.301098     5A    -11.297480     6A    -11.274341
       7A    -11.255864     8A    -11.248960     9A    -11.246086
      10A    -11.237239    11A    -11.235274    12A     -1.468150
      13A     -1.248530    14A     -1.124624    15A     -1.078212
      16A     -1.034687    17A     -0.996555    18A     -0.892249
      19A     -0.853471    20A     -0.802852    21A     -0.780500
      22A     -0.751980    23A     -0.685057    24A     -0.653209
      25A     -0.651173    26A     -0.644748    27A     -0.610717
      28A     -0.587646    29A     -0.578439    30A     -0.574183
      31A     -0.542533    32A     -0.540906    33A     -0.528962
      34A     -0.437832    35A     -0.397822    36A     -0.380647
      37A     -0.348589    38A     -0.288335

  @DF-RHF Final Energy:  -474.30139523550787

   => Energetics <=

    Nuclear Repulsion Energy =            540.0385530171249684
    One-Electron Energy =               -1714.5161570466225385
    Two-Electron Energy =                 700.1762087939897583
    Total Energy =                       -474.3013952355078118
  Basis Set: (AUG-CC-PVTZ AUX)
    Blend: AUG-CC-PVTZ-RI
    Molecular point group: c1

    Geometry (in Angstrom), charge = 0, multiplicity = 1:

       Center              X                  Y                   Z               Mass
    ------------   -----------------  -----------------  -----------------  -----------------
         O            3.050917131085    -0.712096364624     0.000060842499    15.994914619570
         N           -1.110423868915    -1.151162364624    -0.000079157501    14.003074004430
         C            0.939954131085     0.069452635376    -0.000014157501    12.000000000000
         C           -0.399939268915     0.001083935376    -0.000008657501    12.000000000000
         C            1.845295131085     1.181487635376    -0.000101157501    12.000000000000
         C           -1.269436868915     1.256996635376     0.000083842499    12.000000000000
         C            1.730881131085    -1.053856364624     0.000078842499    12.000000000000
         C           -2.660195868915     1.185811635376     0.000081842499    12.000000000000
         C            3.103839131085     0.653543635376    -0.000045157501    12.000000000000
         C           -3.269372868915    -0.068026364624     0.000002842499    12.000000000000
         C           -2.451182868915    -1.199147364624    -0.000071157501    12.000000000000
         H            1.605807131085     2.236402635376    -0.000211157501     1.007825032230
         H           -0.767964868915     2.220720635376     0.000158842499     1.007825032230
         H            1.505455131085    -2.109078364624     0.000158842499     1.007825032230
         H            4.094752131085     1.082898635376    -0.000071157501     1.007825032230
         H           -3.257215868915     2.094677635376     0.000145842499     1.007825032230
         H           -4.350740868915    -0.171203364624    -0.000001157501     1.007825032230
         H           -2.886265868915    -2.197540364624    -0.000130157501     1.007825032230

  Basis Set: AUG-CC-PVTZ
    Blend: AUG-CC-PVTZ
  Basis Set: (AUG-CC-PVTZ AUX)
    Blend: AUG-CC-PVTZ-JKFIT
	 Reference Energy          =    -474.3013952355078686 [Eh]
	 Singles Energy            =      -0.0000000000000000 [Eh]
	 Same-Spin Energy          =      -0.5163357098207297 [Eh]
	 Opposite-Spin Energy      =      -1.5605577215700048 [Eh]
	 Correlation Energy        =      -2.0768934313907348 [Eh]
	 Total Energy              =    -476.3782886668985839 [Eh]

	 ================> DF-SCS-MP2 Energies <==================
	-----------------------------------------------------------
	 SCS Same-Spin Scale       =       0.3333333333333333 [-]
	 SCS Opposite-Spin Scale   =       1.2000000000000000 [-]
	 SCS Same-Spin Energy      =      -0.1721119032735766 [Eh]
	 SCS Opposite-Spin Energy  =      -1.8726692658840056 [Eh]
	 SCS Correlation Energy    =      -2.0447811691575821 [Eh]
	 SCS Total Energy          =    -476.3461764046654707 [Eh]
	-----------------------------------------------------------

  Dipole Moment: [D]
     X:    -0.5906      Y:     1.9911      Z:     0.0001     Total:     2.0768

*** Psi4 exiting successfully. Buy a developer a beer!
