                               Psi4 1.3.2 release

  ==> Input File <==

--------------------------------------------------------------------------
#psi4
#
memory 32 gb

molecule  {
0 1
  O        3.0809194    -0.7150812     0.0000582
  N       -1.0742560    -1.1771330    -0.0000800
  C        0.9761220     0.0434820    -0.0000150
  C       -0.4881060     0.0430670    -0.0000040
  C        1.8814630     1.1555170    -0.0001020
  C       -1.2332690     1.2310260     0.0000830
  C        1.7670490    -1.0798270     0.0000780
  C       -2.6240280     1.1598410     0.0000810
  C        3.1400070     0.6275730    -0.0000460
  C       -3.2332050    -0.0939970     0.0000020
  C       -2.4150150    -1.2251180    -0.0000720
  H        1.6419750     2.2104320    -0.0002120
  H       -0.7317970     2.1947500     0.0001580
  H        1.5416230    -2.1350490     0.0001580
  H        4.1309200     1.0569280    -0.0000720
  H       -3.2210480     2.0687070     0.0001450
  H       -4.3145730    -0.1971740    -0.0000020
  H       -2.8500980    -2.2235110    -0.0001310
units angstrom
no_reorient  #important for SAPT in psi4, default
symmetry c1  #important for SAPT in psi4, default
}

set PROPERTIES_ORIGIN ["COM"]
properties('MP2/aug-cc-pvtz', properties = ['dipole'])
--------------------------------------------------------------------------

    Molecular point group: c1
  Charge       = 0
  Multiplicity = 1
  Basis Set: AUG-CC-PVTZ
    Blend: AUG-CC-PVTZ
  Basis Set: (AUG-CC-PVTZ AUX)
    Blend: AUG-CC-PVTZ-JKFIT

    Orbital Energies [Eh]
    ---------------------

    Doubly Occupied:

       1A    -20.628692     2A    -15.565772     3A    -11.292682
       4A    -11.291976     5A    -11.291963     6A    -11.279407
       7A    -11.263231     8A    -11.243308     9A    -11.241183
      10A    -11.238997    11A    -11.234507    12A     -1.466814
      13A     -1.258567    14A     -1.104508    15A     -1.088515
      16A     -1.033306    17A     -1.001400    18A     -0.876442
      19A     -0.863472    20A     -0.796837    21A     -0.776792
      22A     -0.746360    23A     -0.687882    24A     -0.662234
      25A     -0.646626    26A     -0.640023    27A     -0.610920
      28A     -0.586295    29A     -0.574748    30A     -0.570390
      31A     -0.548939    32A     -0.535798    33A     -0.520441
      34A     -0.423832    35A     -0.422011    36A     -0.383516
      37A     -0.346922    38A     -0.299733

  @DF-RHF Final Energy:  -474.33179373549069

   => Energetics <=

    Nuclear Repulsion Energy =            540.4604020108832856
    One-Electron Energy =               -1715.4943102599254416
    Two-Electron Energy =                 700.7021145135515781
    Total Energy =                       -474.3317937354906917
  Basis Set: (AUG-CC-PVTZ AUX)
    Blend: AUG-CC-PVTZ-RI
    Molecular point group: c1

    Geometry (in Angstrom), charge = 0, multiplicity = 1:

       Center              X                  Y                   Z               Mass
    ------------   -----------------  -----------------  -----------------  -----------------
         O            3.055717426552    -0.697266909095     0.000058785977    15.994914619570
         N           -1.099457973448    -1.159318709095    -0.000079414023    14.003074004430
         C            0.950920026552     0.061296290905    -0.000014414023    12.000000000000
         C           -0.513307973448     0.060881290905    -0.000003414023    12.000000000000
         C            1.856261026552     1.173331290905    -0.000101414023    12.000000000000
         C           -1.258470973448     1.248840290905     0.000083585977    12.000000000000
         C            1.741847026552    -1.062012709095     0.000078585977    12.000000000000
         C           -2.649229973448     1.177655290905     0.000081585977    12.000000000000
         C            3.114805026552     0.645387290905    -0.000045414023    12.000000000000
         C           -3.258406973448    -0.076182709095     0.000002585977    12.000000000000
         C           -2.440216973448    -1.207303709095    -0.000071414023    12.000000000000
         H            1.616773026552     2.228246290905    -0.000211414023     1.007825032230
         H           -0.756998973448     2.212564290905     0.000158585977     1.007825032230
         H            1.516421026552    -2.117234709095     0.000158585977     1.007825032230
         H            4.105718026552     1.074742290905    -0.000071414023     1.007825032230
         H           -3.246249973448     2.086521290905     0.000145585977     1.007825032230
         H           -4.339774973448    -0.179359709095    -0.000001414023     1.007825032230
         H           -2.875299973448    -2.205696709095    -0.000130414023     1.007825032230

  Basis Set: AUG-CC-PVTZ
    Blend: AUG-CC-PVTZ
  Basis Set: (AUG-CC-PVTZ AUX)
    Blend: AUG-CC-PVTZ-JKFIT
	 Reference Energy          =    -474.3317937354906917 [Eh]
	 Singles Energy            =      -0.0000000000000000 [Eh]
	 Same-Spin Energy          =      -0.5141802429432374 [Eh]
	 Opposite-Spin Energy      =      -1.5562541866874440 [Eh]
	 Correlation Energy        =      -2.0704344296306814 [Eh]
	 Total Energy              =    -476.4022281651213575 [Eh]

	 ================> DF-SCS-MP2 Energies <==================
	-----------------------------------------------------------
	 SCS Same-Spin Scale       =       0.3333333333333333 [-]
	 SCS Opposite-Spin Scale   =       1.2000000000000000 [-]
	 SCS Same-Spin Energy      =      -0.1713934143144125 [Eh]
	 SCS Opposite-Spin Energy  =      -1.8675050240249327 [Eh]
	 SCS Correlation Energy    =      -2.0388984383393449 [Eh]
	 SCS Total Energy          =    -476.3706921738300366 [Eh]
	-----------------------------------------------------------

  Dipole Moment: [D]
     X:    -1.3104      Y:     1.9626      Z:     0.0001     Total:     2.3599

*** Psi4 exiting successfully. Buy a developer a beer!
