                               Psi4 1.3.2 release

  ==> Input File <==

--------------------------------------------------------------------------
#psi4
#
memory 32 gb

molecule  {
0 1
  O        3.0870850    -0.7380670     0.0000600
  N       -1.0742560    -1.1771330    -0.0000800
  C        0.9761220     0.0434820    -0.0000150
  C       -0.4458787     0.0218673    -0.0000058
  C        1.8814630     1.1555170    -0.0001020
  C       -1.2332690     1.2310260     0.0000830
  C        1.7670490    -1.0798270     0.0000780
  C       -2.6240280     1.1598410     0.0000810
  C        3.1400070     0.6275730    -0.0000460
  C       -3.2332050    -0.0939970     0.0000020
  C       -2.4150150    -1.2251180    -0.0000720
  H        1.6419750     2.2104320    -0.0002120
  H       -0.7317970     2.1947500     0.0001580
  H        1.5416230    -2.1350490     0.0001580
  H        4.1309200     1.0569280    -0.0000720
  H       -3.2210480     2.0687070     0.0001450
  H       -4.3145730    -0.1971740    -0.0000020
  H       -2.8500980    -2.2235110    -0.0001310
units angstrom
no_reorient  #important for SAPT in psi4, default
symmetry c1  #important for SAPT in psi4, default
}

set PROPERTIES_ORIGIN ["COM"]
properties('MP2/aug-cc-pvtz', properties = ['dipole'])
--------------------------------------------------------------------------

    Molecular point group: c1
  Charge       = 0
  Multiplicity = 1
  Basis Set: AUG-CC-PVTZ
    Blend: AUG-CC-PVTZ
  Basis Set: (AUG-CC-PVTZ AUX)
    Blend: AUG-CC-PVTZ-JKFIT

    Orbital Energies [Eh]
    ---------------------

    Doubly Occupied:

       1A    -20.631452     2A    -15.563496     3A    -11.297705
       4A    -11.295772     5A    -11.294202     6A    -11.277792
       7A    -11.261012     8A    -11.245790     9A    -11.240294
      10A    -11.239389    11A    -11.238474    12A     -1.461766
      13A     -1.255035    14A     -1.111371    15A     -1.084681
      16A     -1.032995    17A     -0.998608    18A     -0.880497
      19A     -0.859849    20A     -0.798319    21A     -0.778984
      22A     -0.747210    23A     -0.686781    24A     -0.659005
      25A     -0.647152    26A     -0.638492    27A     -0.608046
      28A     -0.585515    29A     -0.577279    30A     -0.573070
      31A     -0.546234    32A     -0.539701    33A     -0.525354
      34A     -0.428946    35A     -0.414611    36A     -0.382561
      37A     -0.348011    38A     -0.296132

  @DF-RHF Final Energy:  -474.32706731359633

   => Energetics <=

    Nuclear Repulsion Energy =            539.8935169817017368
    One-Electron Energy =               -1714.3379995193990908
    Two-Electron Energy =                 700.1174152241009097
    Total Energy =                       -474.3270673135963307
  Basis Set: (AUG-CC-PVTZ AUX)
    Blend: AUG-CC-PVTZ-RI
    Molecular point group: c1

    Geometry (in Angstrom), charge = 0, multiplicity = 1:

       Center              X                  Y                   Z               Mass
    ------------   -----------------  -----------------  -----------------  -----------------
         O            3.057709746226    -0.715964253695     0.000060536403    15.994914619570
         N           -1.103631253774    -1.155030253695    -0.000079463597    14.003074004430
         C            0.946746746226     0.065584746305    -0.000014463597    12.000000000000
         C           -0.475253953774     0.043970046305    -0.000005263597    12.000000000000
         C            1.852087746226     1.177619746305    -0.000101463597    12.000000000000
         C           -1.262644253774     1.253128746305     0.000083536403    12.000000000000
         C            1.737673746226    -1.057724253695     0.000078536403    12.000000000000
         C           -2.653403253774     1.181943746305     0.000081536403    12.000000000000
         C            3.110631746226     0.649675746305    -0.000045463597    12.000000000000
         C           -3.262580253774    -0.071894253695     0.000002536403    12.000000000000
         C           -2.444390253774    -1.203015253695    -0.000071463597    12.000000000000
         H            1.612599746226     2.232534746305    -0.000211463597     1.007825032230
         H           -0.761172253774     2.216852746305     0.000158536403     1.007825032230
         H            1.512247746226    -2.112946253695     0.000158536403     1.007825032230
         H            4.101544746226     1.079030746305    -0.000071463597     1.007825032230
         H           -3.250423253774     2.090809746305     0.000145536403     1.007825032230
         H           -4.343948253774    -0.175071253695    -0.000001463597     1.007825032230
         H           -2.879473253774    -2.201408253695    -0.000130463597     1.007825032230

  Basis Set: AUG-CC-PVTZ
    Blend: AUG-CC-PVTZ
  Basis Set: (AUG-CC-PVTZ AUX)
    Blend: AUG-CC-PVTZ-JKFIT
	 Reference Energy          =    -474.3270673135963307 [Eh]
	 Singles Energy            =      -0.0000000000000000 [Eh]
	 Same-Spin Energy          =      -0.5147855336349354 [Eh]
	 Opposite-Spin Energy      =      -1.5578099266089513 [Eh]
	 Correlation Energy        =      -2.0725954602438867 [Eh]
	 Total Energy              =    -476.3996627738401912 [Eh]

	 ================> DF-SCS-MP2 Energies <==================
	-----------------------------------------------------------
	 SCS Same-Spin Scale       =       0.3333333333333333 [-]
	 SCS Opposite-Spin Scale   =       1.2000000000000000 [-]
	 SCS Same-Spin Energy      =      -0.1715951778783118 [Eh]
	 SCS Opposite-Spin Energy  =      -1.8693719119307415 [Eh]
	 SCS Correlation Energy    =      -2.0409670898090533 [Eh]
	 SCS Total Energy          =    -476.3680344034053746 [Eh]
	-----------------------------------------------------------

  Dipole Moment: [D]
     X:    -1.0980      Y:     2.0140      Z:     0.0001     Total:     2.2939

*** Psi4 exiting successfully. Buy a developer a beer!
