                               Psi4 1.3.2 release

  ==> Input File <==

--------------------------------------------------------------------------
#psi4
#
memory 32 gb

molecule  {
0 1
  O        3.0870850    -0.7380670     0.0000600
  N       -1.0742560    -1.1771330    -0.0000800
  C        0.9681442    -0.1095738    -0.0000254
  C       -0.4881060     0.0430670    -0.0000040
  C        1.8814630     1.1555170    -0.0001020
  C       -1.2332690     1.2310260     0.0000830
  C        1.7670490    -1.0798270     0.0000780
  C       -2.6240280     1.1598410     0.0000810
  C        3.1400070     0.6275730    -0.0000460
  C       -3.2332050    -0.0939970     0.0000020
  C       -2.4150150    -1.2251180    -0.0000720
  H        1.6419750     2.2104320    -0.0002120
  H       -0.7317970     2.1947500     0.0001580
  H        1.5416230    -2.1350490     0.0001580
  H        4.1309200     1.0569280    -0.0000720
  H       -3.2210480     2.0687070     0.0001450
  H       -4.3145730    -0.1971740    -0.0000020
  H       -2.8500980    -2.2235110    -0.0001310
units angstrom
no_reorient  #important for SAPT in psi4, default
symmetry c1  #important for SAPT in psi4, default
}

set PROPERTIES_ORIGIN ["COM"]
properties('MP2/aug-cc-pvtz', properties = ['dipole'])
--------------------------------------------------------------------------

    Molecular point group: c1
  Charge       = 0
  Multiplicity = 1
  Basis Set: AUG-CC-PVTZ
    Blend: AUG-CC-PVTZ
  Basis Set: (AUG-CC-PVTZ AUX)
    Blend: AUG-CC-PVTZ-JKFIT

    Orbital Energies [Eh]
    ---------------------

    Doubly Occupied:

       1A    -20.617149     2A    -15.565970     3A    -11.294125
       4A    -11.293913     5A    -11.279500     6A    -11.276619
       7A    -11.266051     8A    -11.248642     9A    -11.243842
      10A    -11.239614    11A    -11.233097    12A     -1.453796
      13A     -1.261283    14A     -1.104558    15A     -1.089415
      16A     -1.027989    17A     -1.012219    18A     -0.876450
      19A     -0.864886    20A     -0.804869    21A     -0.765808
      22A     -0.744066    23A     -0.685430    24A     -0.664750
      25A     -0.650487    26A     -0.635242    27A     -0.605046
      28A     -0.593404    29A     -0.579248    30A     -0.560770
      31A     -0.550580    32A     -0.535493    33A     -0.495187
      34A     -0.425062    35A     -0.424478    36A     -0.383567
      37A     -0.347476    38A     -0.318305

  @DF-RHF Final Energy:  -474.31102338456782

   => Energetics <=

    Nuclear Repulsion Energy =            540.2324216323362407
    One-Electron Energy =               -1715.0501195875010580
    Two-Electron Energy =                 700.5066745705970561
    Total Energy =                       -474.3110233845678749
  Basis Set: (AUG-CC-PVTZ AUX)
    Blend: AUG-CC-PVTZ-RI
    Molecular point group: c1

    Geometry (in Angstrom), charge = 0, multiplicity = 1:

       Center              X                  Y                   Z               Mass
    ------------   -----------------  -----------------  -----------------  -----------------
         O            3.061863139681    -0.705055994121     0.000061247868    15.994914619570
         N           -1.099477860319    -1.144121994121    -0.000078752132    14.003074004430
         C            0.942922339681    -0.076562794121    -0.000024152132    12.000000000000
         C           -0.513327860319     0.076078005879    -0.000002752132    12.000000000000
         C            1.856241139681     1.188528005879    -0.000100752132    12.000000000000
         C           -1.258490860319     1.264037005879     0.000084247868    12.000000000000
         C            1.741827139681    -1.046815994121     0.000079247868    12.000000000000
         C           -2.649249860319     1.192852005879     0.000082247868    12.000000000000
         C            3.114785139681     0.660584005879    -0.000044752132    12.000000000000
         C           -3.258426860319    -0.060985994121     0.000003247868    12.000000000000
         C           -2.440236860319    -1.192106994121    -0.000070752132    12.000000000000
         H            1.616753139681     2.243443005879    -0.000210752132     1.007825032230
         H           -0.757018860319     2.227761005879     0.000159247868     1.007825032230
         H            1.516401139681    -2.102037994121     0.000159247868     1.007825032230
         H            4.105698139681     1.089939005879    -0.000070752132     1.007825032230
         H           -3.246269860319     2.101718005879     0.000146247868     1.007825032230
         H           -4.339794860319    -0.164162994121    -0.000000752132     1.007825032230
         H           -2.875319860319    -2.190499994121    -0.000129752132     1.007825032230

  Basis Set: AUG-CC-PVTZ
    Blend: AUG-CC-PVTZ
  Basis Set: (AUG-CC-PVTZ AUX)
    Blend: AUG-CC-PVTZ-JKFIT
	 Reference Energy          =    -474.3110233845678181 [Eh]
	 Singles Energy            =      -0.0000000000000000 [Eh]
	 Same-Spin Energy          =      -0.5113274439404161 [Eh]
	 Opposite-Spin Energy      =      -1.5538884198295504 [Eh]
	 Correlation Energy        =      -2.0652158637699665 [Eh]
	 Total Energy              =    -476.3762392483378107 [Eh]

	 ================> DF-SCS-MP2 Energies <==================
	-----------------------------------------------------------
	 SCS Same-Spin Scale       =       0.3333333333333333 [-]
	 SCS Opposite-Spin Scale   =       1.2000000000000000 [-]
	 SCS Same-Spin Energy      =      -0.1704424813134720 [Eh]
	 SCS Opposite-Spin Energy  =      -1.8646661037954604 [Eh]
	 SCS Correlation Energy    =      -2.0351085851089326 [Eh]
	 SCS Total Energy          =    -476.3461319696767760 [Eh]
	-----------------------------------------------------------

  Dipole Moment: [D]
     X:    -1.6005      Y:     2.0420      Z:     0.0001     Total:     2.5945

*** Psi4 exiting successfully. Buy a developer a beer!
