                               Psi4 1.3.2 release

  ==> Input File <==

--------------------------------------------------------------------------
#psi4
#
memory 32 gb

molecule  {
0 1
  O        3.0870850    -0.7380670     0.0000600
  N       -1.0742560    -1.1771330    -0.0000800
  C        0.9761220     0.0434820    -0.0000150
  C       -0.4881060     0.0430670    -0.0000040
  C        1.8908686     1.1774012    -0.0001037
  C       -1.2332690     1.2310260     0.0000830
  C        1.7670490    -1.0798270     0.0000780
  C       -2.6240280     1.1598410     0.0000810
  C        3.1400070     0.6275730    -0.0000460
  C       -3.2332050    -0.0939970     0.0000020
  C       -2.4150150    -1.2251180    -0.0000720
  H        1.6419750     2.2104320    -0.0002120
  H       -0.7317970     2.1947500     0.0001580
  H        1.5416230    -2.1350490     0.0001580
  H        4.1309200     1.0569280    -0.0000720
  H       -3.2210480     2.0687070     0.0001450
  H       -4.3145730    -0.1971740    -0.0000020
  H       -2.8500980    -2.2235110    -0.0001310
units angstrom
no_reorient  #important for SAPT in psi4, default
symmetry c1  #important for SAPT in psi4, default
}

set PROPERTIES_ORIGIN ["COM"]
properties('MP2/aug-cc-pvtz', properties = ['dipole'])
--------------------------------------------------------------------------

    Molecular point group: c1
  Charge       = 0
  Multiplicity = 1
  Basis Set: AUG-CC-PVTZ
    Blend: AUG-CC-PVTZ
  Basis Set: (AUG-CC-PVTZ AUX)
    Blend: AUG-CC-PVTZ-JKFIT

    Orbital Energies [Eh]
    ---------------------

    Doubly Occupied:

       1A    -20.628660     2A    -15.565452     3A    -11.294705
       4A    -11.294048     5A    -11.292057     6A    -11.279374
       7A    -11.263259     8A    -11.243272     9A    -11.240928
      10A    -11.240810    11A    -11.237874    12A     -1.458644
      13A     -1.258386    14A     -1.102464    15A     -1.088408
      16A     -1.033791    17A     -0.998366    18A     -0.875437
      19A     -0.863230    20A     -0.798553    21A     -0.775964
      22A     -0.745216    23A     -0.686757    24A     -0.662832
      25A     -0.646860    26A     -0.635474    27A     -0.607142
      28A     -0.585098    29A     -0.578977    30A     -0.572341
      31A     -0.548711    32A     -0.535901    33A     -0.519110
      34A     -0.422841    35A     -0.421813    36A     -0.383613
      37A     -0.349314    38A     -0.299473

  @DF-RHF Final Energy:  -474.33088551320401

   => Energetics <=

    Nuclear Repulsion Energy =            539.4332525780347396
    One-Electron Energy =               -1713.4579642659573437
    Two-Electron Energy =                 699.6938261747186516
    Total Energy =                       -474.3308855132040662
  Basis Set: (AUG-CC-PVTZ AUX)
    Blend: AUG-CC-PVTZ-RI
    Molecular point group: c1

    Geometry (in Angstrom), charge = 0, multiplicity = 1:

       Center              X                  Y                   Z               Mass
    ------------   -----------------  -----------------  -----------------  -----------------
         O            3.060425036783    -0.719528520837     0.000060528130    15.994914619570
         N           -1.100915963217    -1.158594520837    -0.000079471870    14.003074004430
         C            0.949462036783     0.062020479163    -0.000014471870    12.000000000000
         C           -0.514765963217     0.061605479163    -0.000003471870    12.000000000000
         C            1.864208636783     1.195939679163    -0.000103171870    12.000000000000
         C           -1.259928963217     1.249564479163     0.000083528130    12.000000000000
         C            1.740389036783    -1.061288520837     0.000078528130    12.000000000000
         C           -2.650687963217     1.178379479163     0.000081528130    12.000000000000
         C            3.113347036783     0.646111479163    -0.000045471870    12.000000000000
         C           -3.259864963217    -0.075458520837     0.000002528130    12.000000000000
         C           -2.441674963217    -1.206579520837    -0.000071471870    12.000000000000
         H            1.615315036783     2.228970479163    -0.000211471870     1.007825032230
         H           -0.758456963217     2.213288479163     0.000158528130     1.007825032230
         H            1.514963036783    -2.116510520837     0.000158528130     1.007825032230
         H            4.104260036783     1.075466479163    -0.000071471870     1.007825032230
         H           -3.247707963217     2.087245479163     0.000145528130     1.007825032230
         H           -4.341232963217    -0.178635520837    -0.000001471870     1.007825032230
         H           -2.876757963217    -2.204972520837    -0.000130471870     1.007825032230

  Basis Set: AUG-CC-PVTZ
    Blend: AUG-CC-PVTZ
  Basis Set: (AUG-CC-PVTZ AUX)
    Blend: AUG-CC-PVTZ-JKFIT
	 Reference Energy          =    -474.3308855132040094 [Eh]
	 Singles Energy            =      -0.0000000000000000 [Eh]
	 Same-Spin Energy          =      -0.5138332693869357 [Eh]
	 Opposite-Spin Energy      =      -1.5567093341225915 [Eh]
	 Correlation Energy        =      -2.0705426035095273 [Eh]
	 Total Energy              =    -476.4014281167135323 [Eh]

	 ================> DF-SCS-MP2 Energies <==================
	-----------------------------------------------------------
	 SCS Same-Spin Scale       =       0.3333333333333333 [-]
	 SCS Opposite-Spin Scale   =       1.2000000000000000 [-]
	 SCS Same-Spin Energy      =      -0.1712777564623119 [Eh]
	 SCS Opposite-Spin Energy  =      -1.8680512009471097 [Eh]
	 SCS Correlation Energy    =      -2.0393289574094218 [Eh]
	 SCS Total Energy          =    -476.3702144706134050 [Eh]
	-----------------------------------------------------------

  Dipole Moment: [D]
     X:    -1.3345      Y:     2.0226      Z:     0.0001     Total:     2.4232

*** Psi4 exiting successfully. Buy a developer a beer!
