                               Psi4 1.4a3.dev225

  ==> Input File <==

--------------------------------------------------------------------------
#psi4
#
memory 32 gb

molecule  {
0 1
  O        3.0870850    -0.7380670     0.0000600
  N       -1.0742560    -1.1771330    -0.0000800
  C        0.9761220     0.0434820    -0.0000150
  C       -0.4881060     0.0430670    -0.0000040
  C        1.8814630     1.1555170    -0.0001020
  C       -1.2332690     1.2310260     0.0000830
  C        1.7670490    -1.0798270     0.0000780
  C       -2.6240280     1.1598410     0.0000810
  C        3.1400070     0.6275730    -0.0000460
  C       -3.2332050    -0.0939970     0.0000020
  C       -2.4150150    -1.2251180    -0.0000720
  H        1.6309056     2.2591913    -0.0002171
  H       -0.7317970     2.1947500     0.0001580
  H        1.5416230    -2.1350490     0.0001580
  H        4.1309200     1.0569280    -0.0000720
  H       -3.2210480     2.0687070     0.0001450
  H       -4.3145730    -0.1971740    -0.0000020
  H       -2.8500980    -2.2235110    -0.0001310
units angstrom
no_reorient  #important for SAPT in psi4, default
symmetry c1  #important for SAPT in psi4, default
}

set PROPERTIES_ORIGIN ["COM"]
properties('MP2/aug-cc-pvtz', properties = ['dipole'])
--------------------------------------------------------------------------

    Molecular point group: c1
  Charge       = 0
  Multiplicity = 1
  Basis Set: AUG-CC-PVTZ
    Blend: AUG-CC-PVTZ
  Basis Set: (AUG-CC-PVTZ AUX)
    Blend: AUG-CC-PVTZ-JKFIT

    Orbital Energies [Eh]
    ---------------------

    Doubly Occupied:

       1A    -20.628965     2A    -15.565742     3A    -11.294144
       4A    -11.293644     5A    -11.292319     6A    -11.279493
       7A    -11.263334     8A    -11.243344     9A    -11.243007
      10A    -11.241138    11A    -11.239471    12A     -1.459202
      13A     -1.258647    14A     -1.105243    15A     -1.088581
      16A     -1.033469    17A     -0.998173    18A     -0.875511
      19A     -0.863239    20A     -0.791961    21A     -0.777711
      22A     -0.742812    23A     -0.686998    24A     -0.661859
      25A     -0.645876    26A     -0.635999    27A     -0.606596
      28A     -0.585751    29A     -0.573996    30A     -0.566147
      31A     -0.548955    32A     -0.538234    33A     -0.520350
      34A     -0.424857    35A     -0.422029    36A     -0.383844
      37A     -0.348863    38A     -0.299207

  @DF-RHF Final Energy:  -474.32857781383473

   => Energetics <=

    Nuclear Repulsion Energy =            539.6379393645277105
    One-Electron Energy =               -1713.8756137325617601
    Two-Electron Energy =                 699.9090965541993228
    Total Energy =                       -474.3285778138347268
  Basis Set: (AUG-CC-PVTZ AUX)
    Blend: AUG-CC-PVTZ-RI
    Molecular point group: c1

    Geometry (in Angstrom), charge = 0, multiplicity = 1:

       Center              X                  Y                   Z               Mass
    ------------   -----------------  -----------------  -----------------  -----------------
         O            3.061280058191    -0.718056852519     0.000060422926    15.994914619570
         N           -1.100060941809    -1.157122852519    -0.000079577074    14.003074004430
         C            0.950317058191     0.063492147481    -0.000014577074    12.000000000000
         C           -0.513910941809     0.063077147481    -0.000003577074    12.000000000000
         C            1.855658058191     1.175527147481    -0.000101577074    12.000000000000
         C           -1.259073941809     1.251036147481     0.000083422926    12.000000000000
         C            1.741244058191    -1.059816852519     0.000078422926    12.000000000000
         C           -2.649832941809     1.179851147481     0.000081422926    12.000000000000
         C            3.114202058191     0.647583147481    -0.000045577074    12.000000000000
         C           -3.259009941809    -0.073986852519     0.000002422926    12.000000000000
         C           -2.440819941809    -1.205107852519    -0.000071577074    12.000000000000
         H            1.605100658191     2.279201447481    -0.000216677074     1.007825032230
         H           -0.757601941809     2.214760147481     0.000158422926     1.007825032230
         H            1.515818058191    -2.115038852519     0.000158422926     1.007825032230
         H            4.105115058191     1.076938147481    -0.000071577074     1.007825032230
         H           -3.246852941809     2.088717147481     0.000145422926     1.007825032230
         H           -4.340377941809    -0.177163852519    -0.000001577074     1.007825032230
         H           -2.875902941809    -2.203500852519    -0.000130577074     1.007825032230

  Basis Set: AUG-CC-PVTZ
    Blend: AUG-CC-PVTZ
  Basis Set: (AUG-CC-PVTZ AUX)
    Blend: AUG-CC-PVTZ-JKFIT
	 Reference Energy          =    -474.3285778138347268 [Eh]
	 Singles Energy            =      -0.0000000000000000 [Eh]
	 Same-Spin Energy          =      -0.5143136854601218 [Eh]
	 Opposite-Spin Energy      =      -1.5573821216406714 [Eh]
	 Correlation Energy        =      -2.0716958071007934 [Eh]
	 Total Energy              =    -476.4002736209355362 [Eh]

	 ================> DF-SCS-MP2 Energies <==================
	-----------------------------------------------------------
	 SCS Same-Spin Scale       =       0.3333333333333333 [-]
	 SCS Opposite-Spin Scale   =       1.2000000000000000 [-]
	 SCS Same-Spin Energy      =      -0.1714378951533739 [Eh]
	 SCS Opposite-Spin Energy  =      -1.8688585459688056 [Eh]
	 SCS Correlation Energy    =      -2.0402964411221793 [Eh]
	 SCS Total Energy          =    -476.3688742549568929 [Eh]
	-----------------------------------------------------------

  Dipole Moment: [D]
     X:    -1.3467      Y:     2.0173      Z:     0.0001     Total:     2.4255

*** Psi4 exiting successfully. Buy a developer a beer!
