                               Psi4 1.3.2 release

  ==> Input File <==

--------------------------------------------------------------------------
#psi4
#
memory 32 gb

molecule  {
0 1
  O        3.0870850    -0.7380670     0.0000600
  N       -1.0742560    -1.1771330    -0.0000800
  C        0.9956676     0.0278510    -0.0000130
  C       -0.4881060     0.0430670    -0.0000040
  C        1.8814630     1.1555170    -0.0001020
  C       -1.2332690     1.2310260     0.0000830
  C        1.7670490    -1.0798270     0.0000780
  C       -2.6240280     1.1598410     0.0000810
  C        3.1400070     0.6275730    -0.0000460
  C       -3.2332050    -0.0939970     0.0000020
  C       -2.4150150    -1.2251180    -0.0000720
  H        1.6419750     2.2104320    -0.0002120
  H       -0.7317970     2.1947500     0.0001580
  H        1.5416230    -2.1350490     0.0001580
  H        4.1309200     1.0569280    -0.0000720
  H       -3.2210480     2.0687070     0.0001450
  H       -4.3145730    -0.1971740    -0.0000020
  H       -2.8500980    -2.2235110    -0.0001310
units angstrom
no_reorient  #important for SAPT in psi4, default
symmetry c1  #important for SAPT in psi4, default
}

set PROPERTIES_ORIGIN ["COM"]
properties('MP2/aug-cc-pvtz', properties = ['dipole'])
--------------------------------------------------------------------------

    Molecular point group: c1
  Charge       = 0
  Multiplicity = 1
  Basis Set: AUG-CC-PVTZ
    Blend: AUG-CC-PVTZ
  Basis Set: (AUG-CC-PVTZ AUX)
    Blend: AUG-CC-PVTZ-JKFIT

    Orbital Energies [Eh]
    ---------------------

    Doubly Occupied:

       1A    -20.626208     2A    -15.565927     3A    -11.293473
       4A    -11.293444     5A    -11.289175     6A    -11.279511
       7A    -11.263682     8A    -11.244012     9A    -11.241516
      10A    -11.237381    11A    -11.236180    12A     -1.458231
      13A     -1.258334    14A     -1.105780    15A     -1.088827
      16A     -1.033389    17A     -1.000573    18A     -0.872994
      19A     -0.863255    20A     -0.797912    21A     -0.776508
      22A     -0.744756    23A     -0.686958    24A     -0.662362
      25A     -0.645317    26A     -0.635719    27A     -0.606269
      28A     -0.585041    29A     -0.575910    30A     -0.571583
      31A     -0.548377    32A     -0.540004    33A     -0.518297
      34A     -0.424196    35A     -0.422074    36A     -0.383911
      37A     -0.348517    38A     -0.302834

  @DF-RHF Final Energy:  -474.33180575489638

   => Energetics <=

    Nuclear Repulsion Energy =            539.9455098262197907
    One-Electron Energy =               -1714.4977521467531005
    Two-Electron Energy =                 700.2204365656371010
    Total Energy =                       -474.3318057548963225
  Basis Set: (AUG-CC-PVTZ AUX)
    Blend: AUG-CC-PVTZ-RI
    Molecular point group: c1

    Geometry (in Angstrom), charge = 0, multiplicity = 1:

       Center              X                  Y                   Z               Mass
    ------------   -----------------  -----------------  -----------------  -----------------
         O            3.059586169624    -0.716424943986     0.000060222035    15.994914619570
         N           -1.101754830376    -1.155490943986    -0.000079777965    14.003074004430
         C            0.968168769624     0.049493056014    -0.000012777965    12.000000000000
         C           -0.515604830376     0.064709056014    -0.000003777965    12.000000000000
         C            1.853964169624     1.177159056014    -0.000101777965    12.000000000000
         C           -1.260767830376     1.252668056014     0.000083222035    12.000000000000
         C            1.739550169624    -1.058184943986     0.000078222035    12.000000000000
         C           -2.651526830376     1.181483056014     0.000081222035    12.000000000000
         C            3.112508169624     0.649215056014    -0.000045777965    12.000000000000
         C           -3.260703830376    -0.072354943986     0.000002222035    12.000000000000
         C           -2.442513830376    -1.203475943986    -0.000071777965    12.000000000000
         H            1.614476169624     2.232074056014    -0.000211777965     1.007825032230
         H           -0.759295830376     2.216392056014     0.000158222035     1.007825032230
         H            1.514124169624    -2.113406943986     0.000158222035     1.007825032230
         H            4.103421169624     1.078570056014    -0.000071777965     1.007825032230
         H           -3.248546830376     2.090349056014     0.000145222035     1.007825032230
         H           -4.342071830376    -0.175531943986    -0.000001777965     1.007825032230
         H           -2.877596830376    -2.201868943986    -0.000130777965     1.007825032230

  Basis Set: AUG-CC-PVTZ
    Blend: AUG-CC-PVTZ
  Basis Set: (AUG-CC-PVTZ AUX)
    Blend: AUG-CC-PVTZ-JKFIT
	 Reference Energy          =    -474.3318057548963793 [Eh]
	 Singles Energy            =      -0.0000000000000000 [Eh]
	 Same-Spin Energy          =      -0.5136211263904769 [Eh]
	 Opposite-Spin Energy      =      -1.5560259982810734 [Eh]
	 Correlation Energy        =      -2.0696471246715502 [Eh]
	 Total Energy              =    -476.4014528795679553 [Eh]

	 ================> DF-SCS-MP2 Energies <==================
	-----------------------------------------------------------
	 SCS Same-Spin Scale       =       0.3333333333333333 [-]
	 SCS Opposite-Spin Scale   =       1.2000000000000000 [-]
	 SCS Same-Spin Energy      =      -0.1712070421301589 [Eh]
	 SCS Opposite-Spin Energy  =      -1.8672311979372880 [Eh]
	 SCS Correlation Energy    =      -2.0384382400674470 [Eh]
	 SCS Total Energy          =    -476.3702439949638006 [Eh]
	-----------------------------------------------------------

  Dipole Moment: [D]
     X:    -1.3812      Y:     2.0265      Z:     0.0001     Total:     2.4524

*** Psi4 exiting successfully. Buy a developer a beer!
