                               Psi4 1.3.2 release

  ==> Input File <==

--------------------------------------------------------------------------
#psi4
#
memory 32 gb

molecule  {
0 1
  O        3.0870850    -0.7380670     0.0000600
  N       -1.0742560    -1.1771330    -0.0000800
  C        0.9958469     0.0571145    -0.0000159
  C       -0.4881060     0.0430670    -0.0000040
  C        1.8814630     1.1555170    -0.0001020
  C       -1.2332690     1.2310260     0.0000830
  C        1.7670490    -1.0798270     0.0000780
  C       -2.6240280     1.1598410     0.0000810
  C        3.1400070     0.6275730    -0.0000460
  C       -3.2332050    -0.0939970     0.0000020
  C       -2.4150150    -1.2251180    -0.0000720
  H        1.6419750     2.2104320    -0.0002120
  H       -0.7317970     2.1947500     0.0001580
  H        1.5416230    -2.1350490     0.0001580
  H        4.1309200     1.0569280    -0.0000720
  H       -3.2210480     2.0687070     0.0001450
  H       -4.3145730    -0.1971740    -0.0000020
  H       -2.8500980    -2.2235110    -0.0001310
units angstrom
no_reorient  #important for SAPT in psi4, default
symmetry c1  #important for SAPT in psi4, default
}

set PROPERTIES_ORIGIN ["COM"]
properties('MP2/aug-cc-pvtz', properties = ['dipole'])
--------------------------------------------------------------------------

    Molecular point group: c1
  Charge       = 0
  Multiplicity = 1
  Basis Set: AUG-CC-PVTZ
    Blend: AUG-CC-PVTZ
  Basis Set: (AUG-CC-PVTZ AUX)
    Blend: AUG-CC-PVTZ-JKFIT

    Orbital Energies [Eh]
    ---------------------

    Doubly Occupied:

       1A    -20.628661     2A    -15.566044     3A    -11.293471
       4A    -11.293088     5A    -11.292421     6A    -11.279612
       7A    -11.263267     8A    -11.243159     9A    -11.241132
      10A    -11.238493    11A    -11.235536    12A     -1.459133
      13A     -1.258037    14A     -1.107433    15A     -1.088588
      16A     -1.034459    17A     -0.997718    18A     -0.873148
      19A     -0.862998    20A     -0.796085    21A     -0.779145
      22A     -0.744893    23A     -0.687339    24A     -0.662112
      25A     -0.645045    26A     -0.635798    27A     -0.606782
      28A     -0.584915    29A     -0.578300    30A     -0.570050
      31A     -0.548246    32A     -0.540386    33A     -0.519919
      34A     -0.425312    35A     -0.421552    36A     -0.384042
      37A     -0.348641    38A     -0.298894

  @DF-RHF Final Energy:  -474.33026020987506

   => Energetics <=

    Nuclear Repulsion Energy =            539.8820129559401266
    One-Electron Energy =               -1714.3568398063282530
    Two-Electron Energy =                 700.1445666405130623
    Total Energy =                       -474.3302602098750640
  Basis Set: (AUG-CC-PVTZ AUX)
    Blend: AUG-CC-PVTZ-RI
    Molecular point group: c1

    Geometry (in Angstrom), charge = 0, multiplicity = 1:

       Center              X                  Y                   Z               Mass
    ------------   -----------------  -----------------  -----------------  -----------------
         O            3.059571336401    -0.718845869935     0.000060461947    15.994914619570
         N           -1.101769663599    -1.157911869935    -0.000079538053    14.003074004430
         C            0.968333236401     0.076335630065    -0.000015438053    12.000000000000
         C           -0.515619663599     0.062288130065    -0.000003538053    12.000000000000
         C            1.853949336401     1.174738130065    -0.000101538053    12.000000000000
         C           -1.260782663599     1.250247130065     0.000083461947    12.000000000000
         C            1.739535336401    -1.060605869935     0.000078461947    12.000000000000
         C           -2.651541663599     1.179062130065     0.000081461947    12.000000000000
         C            3.112493336401     0.646794130065    -0.000045538053    12.000000000000
         C           -3.260718663599    -0.074775869935     0.000002461947    12.000000000000
         C           -2.442528663599    -1.205896869935    -0.000071538053    12.000000000000
         H            1.614461336401     2.229653130065    -0.000211538053     1.007825032230
         H           -0.759310663599     2.213971130065     0.000158461947     1.007825032230
         H            1.514109336401    -2.115827869935     0.000158461947     1.007825032230
         H            4.103406336401     1.076149130065    -0.000071538053     1.007825032230
         H           -3.248561663599     2.087928130065     0.000145461947     1.007825032230
         H           -4.342086663599    -0.177952869935    -0.000001538053     1.007825032230
         H           -2.877611663599    -2.204289869935    -0.000130538053     1.007825032230

  Basis Set: AUG-CC-PVTZ
    Blend: AUG-CC-PVTZ
  Basis Set: (AUG-CC-PVTZ AUX)
    Blend: AUG-CC-PVTZ-JKFIT
	 Reference Energy          =    -474.3302602098750640 [Eh]
	 Singles Energy            =      -0.0000000000000000 [Eh]
	 Same-Spin Energy          =      -0.5143840120883794 [Eh]
	 Opposite-Spin Energy      =      -1.5569757938360169 [Eh]
	 Correlation Energy        =      -2.0713598059243963 [Eh]
	 Total Energy              =    -476.4016200157994376 [Eh]

	 ================> DF-SCS-MP2 Energies <==================
	-----------------------------------------------------------
	 SCS Same-Spin Scale       =       0.3333333333333333 [-]
	 SCS Opposite-Spin Scale   =       1.2000000000000000 [-]
	 SCS Same-Spin Energy      =      -0.1714613373627931 [Eh]
	 SCS Opposite-Spin Energy  =      -1.8683709526032202 [Eh]
	 SCS Correlation Energy    =      -2.0398322899660135 [Eh]
	 SCS Total Energy          =    -476.3700924998410642 [Eh]
	-----------------------------------------------------------

  Dipole Moment: [D]
     X:    -1.3495      Y:     2.0257      Z:     0.0001     Total:     2.4340

*** Psi4 exiting successfully. Buy a developer a beer!
