                               Psi4 1.3.2 release

  ==> Input File <==

--------------------------------------------------------------------------
#psi4
#
memory 32 gb

molecule  {
0 1
  O        3.0870850    -0.7380670     0.0000600
  N       -1.0742560    -1.1771330    -0.0000800
  C        0.9725842    -0.0586584    -0.0000220
  C       -0.4881060     0.0430670    -0.0000040
  C        1.8814630     1.1555170    -0.0001020
  C       -1.2332690     1.2310260     0.0000830
  C        1.7670490    -1.0798270     0.0000780
  C       -2.6240280     1.1598410     0.0000810
  C        3.1400070     0.6275730    -0.0000460
  C       -3.2332050    -0.0939970     0.0000020
  C       -2.4150150    -1.2251180    -0.0000720
  H        1.6419750     2.2104320    -0.0002120
  H       -0.7317970     2.1947500     0.0001580
  H        1.5416230    -2.1350490     0.0001580
  H        4.1309200     1.0569280    -0.0000720
  H       -3.2210480     2.0687070     0.0001450
  H       -4.3145730    -0.1971740    -0.0000020
  H       -2.8500980    -2.2235110    -0.0001310
units angstrom
no_reorient  #important for SAPT in psi4, default
symmetry c1  #important for SAPT in psi4, default
}

set PROPERTIES_ORIGIN ["COM"]
properties('MP2/aug-cc-pvtz', properties = ['dipole'])
--------------------------------------------------------------------------

    Molecular point group: c1
  Charge       = 0
  Multiplicity = 1
  Basis Set: AUG-CC-PVTZ
    Blend: AUG-CC-PVTZ
  Basis Set: (AUG-CC-PVTZ AUX)
    Blend: AUG-CC-PVTZ-JKFIT

    Orbital Energies [Eh]
    ---------------------

    Doubly Occupied:

       1A    -20.620682     2A    -15.565713     3A    -11.293992
       4A    -11.293128     5A    -11.282342     6A    -11.279393
       7A    -11.265067     8A    -11.246763     9A    -11.242816
      10A    -11.239228    11A    -11.234854    12A     -1.455545
      13A     -1.260183    14A     -1.103386    15A     -1.089184
      16A     -1.029765    17A     -1.007982    18A     -0.875743
      19A     -0.864371    20A     -0.802195    21A     -0.769358
      22A     -0.744417    23A     -0.686017    24A     -0.663797
      25A     -0.648608    26A     -0.635348    27A     -0.605375
      28A     -0.590273    29A     -0.577447    30A     -0.564907
      31A     -0.549828    32A     -0.536414    33A     -0.507026
      34A     -0.424003    35A     -0.423346    36A     -0.383538
      37A     -0.348054    38A     -0.312187

  @DF-RHF Final Energy:  -474.32421490644799

   => Energetics <=

    Nuclear Repulsion Energy =            540.1108329905497385
    One-Electron Energy =               -1714.8255455278010686
    Two-Electron Energy =                 700.3904976308032246
    Total Energy =                       -474.3242149064479918
  Basis Set: (AUG-CC-PVTZ AUX)
    Blend: AUG-CC-PVTZ-RI
    Molecular point group: c1

    Geometry (in Angstrom), charge = 0, multiplicity = 1:

       Center              X                  Y                   Z               Mass
    ------------   -----------------  -----------------  -----------------  -----------------
         O            3.061495825067    -0.709268149641     0.000060966591    15.994914619570
         N           -1.099845174933    -1.148334149641    -0.000079033409    14.003074004430
         C            0.946995025067    -0.029859549641    -0.000021033409    12.000000000000
         C           -0.513695174933     0.071865850359    -0.000003033409    12.000000000000
         C            1.855873825067     1.184315850359    -0.000101033409    12.000000000000
         C           -1.258858174933     1.259824850359     0.000083966591    12.000000000000
         C            1.741459825067    -1.051028149641     0.000078966591    12.000000000000
         C           -2.649617174933     1.188639850359     0.000081966591    12.000000000000
         C            3.114417825067     0.656371850359    -0.000045033409    12.000000000000
         C           -3.258794174933    -0.065198149641     0.000002966591    12.000000000000
         C           -2.440604174933    -1.196319149641    -0.000071033409    12.000000000000
         H            1.616385825067     2.239230850359    -0.000211033409     1.007825032230
         H           -0.757386174933     2.223548850359     0.000158966591     1.007825032230
         H            1.516033825067    -2.106250149641     0.000158966591     1.007825032230
         H            4.105330825067     1.085726850359    -0.000071033409     1.007825032230
         H           -3.246637174933     2.097505850359     0.000145966591     1.007825032230
         H           -4.340162174933    -0.168375149641    -0.000001033409     1.007825032230
         H           -2.875687174933    -2.194712149641    -0.000130033409     1.007825032230

  Basis Set: AUG-CC-PVTZ
    Blend: AUG-CC-PVTZ
  Basis Set: (AUG-CC-PVTZ AUX)
    Blend: AUG-CC-PVTZ-JKFIT
	 Reference Energy          =    -474.3242149064479918 [Eh]
	 Singles Energy            =      -0.0000000000000000 [Eh]
	 Same-Spin Energy          =      -0.5120221167122598 [Eh]
	 Opposite-Spin Energy      =      -1.5544819689672971 [Eh]
	 Correlation Energy        =      -2.0665040856795569 [Eh]
	 Total Energy              =    -476.3907189921275744 [Eh]

	 ================> DF-SCS-MP2 Energies <==================
	-----------------------------------------------------------
	 SCS Same-Spin Scale       =       0.3333333333333333 [-]
	 SCS Opposite-Spin Scale   =       1.2000000000000000 [-]
	 SCS Same-Spin Energy      =      -0.1706740389040866 [Eh]
	 SCS Opposite-Spin Energy  =      -1.8653783627607563 [Eh]
	 SCS Correlation Energy    =      -2.0360524016648429 [Eh]
	 SCS Total Energy          =    -476.3602673081128387 [Eh]
	-----------------------------------------------------------

  Dipole Moment: [D]
     X:    -1.4962      Y:     2.0324      Z:     0.0001     Total:     2.5238

*** Psi4 exiting successfully. Buy a developer a beer!
