                               Psi4 1.3.2 release

  ==> Input File <==

--------------------------------------------------------------------------
#psi4
#
memory 32 gb

molecule  {
0 1
  O        3.0870850    -0.7380670     0.0000600
  N       -1.0742560    -1.1771330    -0.0000800
  C        0.9374009     0.0151948    -0.0000131
  C       -0.4881060     0.0430670    -0.0000040
  C        1.8814630     1.1555170    -0.0001020
  C       -1.2332690     1.2310260     0.0000830
  C        1.7670490    -1.0798270     0.0000780
  C       -2.6240280     1.1598410     0.0000810
  C        3.1400070     0.6275730    -0.0000460
  C       -3.2332050    -0.0939970     0.0000020
  C       -2.4150150    -1.2251180    -0.0000720
  H        1.6419750     2.2104320    -0.0002120
  H       -0.7317970     2.1947500     0.0001580
  H        1.5416230    -2.1350490     0.0001580
  H        4.1309200     1.0569280    -0.0000720
  H       -3.2210480     2.0687070     0.0001450
  H       -4.3145730    -0.1971740    -0.0000020
  H       -2.8500980    -2.2235110    -0.0001310
units angstrom
no_reorient  #important for SAPT in psi4, default
symmetry c1  #important for SAPT in psi4, default
}

set PROPERTIES_ORIGIN ["COM"]
properties('MP2/aug-cc-pvtz', properties = ['dipole'])
--------------------------------------------------------------------------

    Molecular point group: c1
  Charge       = 0
  Multiplicity = 1
  Basis Set: AUG-CC-PVTZ
    Blend: AUG-CC-PVTZ
  Basis Set: (AUG-CC-PVTZ AUX)
    Blend: AUG-CC-PVTZ-JKFIT

    Orbital Energies [Eh]
    ---------------------

    Doubly Occupied:

       1A    -20.628778     2A    -15.564964     3A    -11.296742
       4A    -11.293966     5A    -11.289705     6A    -11.279229
       7A    -11.263566     8A    -11.243899     9A    -11.241086
      10A    -11.240895    11A    -11.240027    12A     -1.458614
      13A     -1.259940    14A     -1.103326    15A     -1.088547
      16A     -1.032579    17A     -0.999181    18A     -0.880637
      19A     -0.864175    20A     -0.796367    21A     -0.774827
      22A     -0.745027    23A     -0.686996    24A     -0.663356
      25A     -0.649236    26A     -0.635659    27A     -0.607497
      28A     -0.588127    29A     -0.575585    30A     -0.569541
      31A     -0.550415    32A     -0.534157    33A     -0.518022
      34A     -0.424106    35A     -0.422787    36A     -0.383411
      37A     -0.348982    38A     -0.298942

  @DF-RHF Final Energy:  -474.32833240067384

   => Energetics <=

    Nuclear Repulsion Energy =            539.9060179530648611
    One-Electron Energy =               -1714.3829091830180005
    Two-Electron Energy =                 700.1485588292794091
    Total Energy =                       -474.3283324006738439
  Basis Set: (AUG-CC-PVTZ AUX)
    Blend: AUG-CC-PVTZ-RI
    Molecular point group: c1

    Geometry (in Angstrom), charge = 0, multiplicity = 1:

       Center              X                  Y                   Z               Mass
    ------------   -----------------  -----------------  -----------------  -----------------
         O            3.064406487289    -0.715377915333     0.000060230308    15.994914619570
         N           -1.096934512711    -1.154443915333    -0.000079769692    14.003074004430
         C            0.914722387289     0.037883884667    -0.000012869692    12.000000000000
         C           -0.510784512711     0.065756084667    -0.000003769692    12.000000000000
         C            1.858784487289     1.178206084667    -0.000101769692    12.000000000000
         C           -1.255947512711     1.253715084667     0.000083230308    12.000000000000
         C            1.744370487289    -1.057137915333     0.000078230308    12.000000000000
         C           -2.646706512711     1.182530084667     0.000081230308    12.000000000000
         C            3.117328487289     0.650262084667    -0.000045769692    12.000000000000
         C           -3.255883512711    -0.071307915333     0.000002230308    12.000000000000
         C           -2.437693512711    -1.202428915333    -0.000071769692    12.000000000000
         H            1.619296487289     2.233121084667    -0.000211769692     1.007825032230
         H           -0.754475512711     2.217439084667     0.000158230308     1.007825032230
         H            1.518944487289    -2.112359915333     0.000158230308     1.007825032230
         H            4.108241487289     1.079617084667    -0.000071769692     1.007825032230
         H           -3.243726512711     2.091396084667     0.000145230308     1.007825032230
         H           -4.337251512711    -0.174484915333    -0.000001769692     1.007825032230
         H           -2.872776512711    -2.200821915333    -0.000130769692     1.007825032230

  Basis Set: AUG-CC-PVTZ
    Blend: AUG-CC-PVTZ
  Basis Set: (AUG-CC-PVTZ AUX)
    Blend: AUG-CC-PVTZ-JKFIT
	 Reference Energy          =    -474.3283324006738439 [Eh]
	 Singles Energy            =      -0.0000000000000000 [Eh]
	 Same-Spin Energy          =      -0.5140141185713829 [Eh]
	 Opposite-Spin Energy      =      -1.5572163860369674 [Eh]
	 Correlation Energy        =      -2.0712305046083506 [Eh]
	 Total Energy              =    -476.3995629052822096 [Eh]

	 ================> DF-SCS-MP2 Energies <==================
	-----------------------------------------------------------
	 SCS Same-Spin Scale       =       0.3333333333333333 [-]
	 SCS Opposite-Spin Scale   =       1.2000000000000000 [-]
	 SCS Same-Spin Energy      =      -0.1713380395237943 [Eh]
	 SCS Opposite-Spin Energy  =      -1.8686596632443608 [Eh]
	 SCS Correlation Energy    =      -2.0399977027681553 [Eh]
	 SCS Total Energy          =    -476.3683301034420197 [Eh]
	-----------------------------------------------------------

  Dipole Moment: [D]
     X:    -1.3356      Y:     2.0167      Z:     0.0001     Total:     2.4189

*** Psi4 exiting successfully. Buy a developer a beer!
