                               Psi4 1.3.2 release

  ==> Input File <==

--------------------------------------------------------------------------
#psi4
#
memory 32 gb

molecule  {
0 1
  O        3.0870850    -0.7380670     0.0000600
  N       -1.0954622    -1.1667174    -0.0000792
  C        0.9761220     0.0434820    -0.0000150
  C       -0.4881060     0.0430670    -0.0000040
  C        1.8814630     1.1555170    -0.0001020
  C       -1.2332690     1.2310260     0.0000830
  C        1.7670490    -1.0798270     0.0000780
  C       -2.6240280     1.1598410     0.0000810
  C        3.1400070     0.6275730    -0.0000460
  C       -3.2332050    -0.0939970     0.0000020
  C       -2.4150150    -1.2251180    -0.0000720
  H        1.6419750     2.2104320    -0.0002120
  H       -0.7317970     2.1947500     0.0001580
  H        1.5416230    -2.1350490     0.0001580
  H        4.1309200     1.0569280    -0.0000720
  H       -3.2210480     2.0687070     0.0001450
  H       -4.3145730    -0.1971740    -0.0000020
  H       -2.8500980    -2.2235110    -0.0001310
units angstrom
no_reorient  #important for SAPT in psi4, default
symmetry c1  #important for SAPT in psi4, default
}

set PROPERTIES_ORIGIN ["COM"]
properties('MP2/aug-cc-pvtz', properties = ['dipole'])
--------------------------------------------------------------------------

    Molecular point group: c1
  Charge       = 0
  Multiplicity = 1
  Basis Set: AUG-CC-PVTZ
    Blend: AUG-CC-PVTZ
  Basis Set: (AUG-CC-PVTZ AUX)
    Blend: AUG-CC-PVTZ-JKFIT

    Orbital Energies [Eh]
    ---------------------

    Doubly Occupied:

       1A    -20.628977     2A    -15.562710     3A    -11.294249
       4A    -11.293789     5A    -11.292239     6A    -11.276862
       7A    -11.262291     8A    -11.243014     9A    -11.240235
      10A    -11.239920    11A    -11.237747    12A     -1.459249
      13A     -1.262932    14A     -1.106576    15A     -1.088188
      16A     -1.034877    17A     -0.998498    18A     -0.876472
      19A     -0.862595    20A     -0.796924    21A     -0.778535
      22A     -0.745641    23A     -0.687790    24A     -0.663601
      25A     -0.646176    26A     -0.636047    27A     -0.607447
      28A     -0.586058    29A     -0.575753    30A     -0.571929
      31A     -0.550851    32A     -0.538405    33A     -0.522551
      34A     -0.424905    35A     -0.417593    36A     -0.385142
      37A     -0.349009    38A     -0.298735

  @DF-RHF Final Energy:  -474.33200437029092

   => Energetics <=

    Nuclear Repulsion Energy =            540.1730148620608816
    One-Electron Energy =               -1714.9210119960675911
    Two-Electron Energy =                 700.4159927637157352
    Total Energy =                       -474.3320043702909743
  Basis Set: (AUG-CC-PVTZ AUX)
    Blend: AUG-CC-PVTZ-RI
    Molecular point group: c1

    Geometry (in Angstrom), charge = 0, multiplicity = 1:

       Center              X                  Y                   Z               Mass
    ------------   -----------------  -----------------  -----------------  -----------------
         O            3.063250347912    -0.718723572490     0.000060310261    15.994914619570
         N           -1.119296852088    -1.147373972490    -0.000078889739    14.003074004430
         C            0.952287347912     0.062825427510    -0.000014689739    12.000000000000
         C           -0.511940652088     0.062410427510    -0.000003689739    12.000000000000
         C            1.857628347912     1.174860427510    -0.000101689739    12.000000000000
         C           -1.257103652088     1.250369427510     0.000083310261    12.000000000000
         C            1.743214347912    -1.060483572490     0.000078310261    12.000000000000
         C           -2.647862652088     1.179184427510     0.000081310261    12.000000000000
         C            3.116172347912     0.646916427510    -0.000045689739    12.000000000000
         C           -3.257039652088    -0.074653572490     0.000002310261    12.000000000000
         C           -2.438849652088    -1.205774572490    -0.000071689739    12.000000000000
         H            1.618140347912     2.229775427510    -0.000211689739     1.007825032230
         H           -0.755631652088     2.214093427510     0.000158310261     1.007825032230
         H            1.517788347912    -2.115705572490     0.000158310261     1.007825032230
         H            4.107085347912     1.076271427510    -0.000071689739     1.007825032230
         H           -3.244882652088     2.088050427510     0.000145310261     1.007825032230
         H           -4.338407652088    -0.177830572490    -0.000001689739     1.007825032230
         H           -2.873932652088    -2.204167572490    -0.000130689739     1.007825032230

  Basis Set: AUG-CC-PVTZ
    Blend: AUG-CC-PVTZ
  Basis Set: (AUG-CC-PVTZ AUX)
    Blend: AUG-CC-PVTZ-JKFIT
	 Reference Energy          =    -474.3320043702909174 [Eh]
	 Singles Energy            =      -0.0000000000000000 [Eh]
	 Same-Spin Energy          =      -0.5139925943711515 [Eh]
	 Opposite-Spin Energy      =      -1.5562340905530723 [Eh]
	 Correlation Energy        =      -2.0702266849242239 [Eh]
	 Total Energy              =    -476.4022310552151680 [Eh]

	 ================> DF-SCS-MP2 Energies <==================
	-----------------------------------------------------------
	 SCS Same-Spin Scale       =       0.3333333333333333 [-]
	 SCS Opposite-Spin Scale   =       1.2000000000000000 [-]
	 SCS Same-Spin Energy      =      -0.1713308647903838 [Eh]
	 SCS Opposite-Spin Energy  =      -1.8674809086636865 [Eh]
	 SCS Correlation Energy    =      -2.0388117734540705 [Eh]
	 SCS Total Energy          =    -476.3708161437450030 [Eh]
	-----------------------------------------------------------

  Dipole Moment: [D]
     X:    -1.2862      Y:     1.9985      Z:     0.0001     Total:     2.3766

*** Psi4 exiting successfully. Buy a developer a beer!
