                               Psi4 1.3.2 release

  ==> Input File <==

--------------------------------------------------------------------------
#psi4
#
memory 32 gb

molecule  {
0 1
  O        3.0870850    -0.7380670     0.0000600
  N       -1.0742560    -1.1771330    -0.0000800
  C        0.9761220     0.0434820    -0.0000150
  C       -0.4044170    -0.0007931    -0.0000076
  C        1.8814630     1.1555170    -0.0001020
  C       -1.2332690     1.2310260     0.0000830
  C        1.7670490    -1.0798270     0.0000780
  C       -2.6240280     1.1598410     0.0000810
  C        3.1400070     0.6275730    -0.0000460
  C       -3.2332050    -0.0939970     0.0000020
  C       -2.4150150    -1.2251180    -0.0000720
  H        1.6419750     2.2104320    -0.0002120
  H       -0.7317970     2.1947500     0.0001580
  H        1.5416230    -2.1350490     0.0001580
  H        4.1309200     1.0569280    -0.0000720
  H       -3.2210480     2.0687070     0.0001450
  H       -4.3145730    -0.1971740    -0.0000020
  H       -2.8500980    -2.2235110    -0.0001310
units angstrom
no_reorient  #important for SAPT in psi4, default
symmetry c1  #important for SAPT in psi4, default
}

set PROPERTIES_ORIGIN ["COM"]
properties('MP2/aug-cc-pvtz', properties = ['dipole'])
--------------------------------------------------------------------------

    Molecular point group: c1
  Charge       = 0
  Multiplicity = 1
  Basis Set: AUG-CC-PVTZ
    Blend: AUG-CC-PVTZ
  Basis Set: (AUG-CC-PVTZ AUX)
    Blend: AUG-CC-PVTZ-JKFIT

    Orbital Energies [Eh]
    ---------------------

    Doubly Occupied:

       1A    -20.634440     2A    -15.561200     3A    -11.301917
       4A    -11.298349     5A    -11.295945     6A    -11.276074
       7A    -11.258516     8A    -11.247681     9A    -11.243084
      10A    -11.237946    11A    -11.237442    12A     -1.464847
      13A     -1.251660    14A     -1.117738    15A     -1.081258
      16A     -1.033213    17A     -0.998032    18A     -0.886190
      19A     -0.856396    20A     -0.800587    21A     -0.779918
      22A     -0.749615    23A     -0.686056    24A     -0.655753
      25A     -0.648908    26A     -0.641505    27A     -0.609167
      28A     -0.585993    29A     -0.578601    30A     -0.573832
      31A     -0.544080    32A     -0.540754    33A     -0.528055
      34A     -0.433369    35A     -0.406551    36A     -0.381503
      37A     -0.347999    38A     -0.292508

  @DF-RHF Final Energy:  -474.31713726455291

   => Energetics <=

    Nuclear Repulsion Energy =            539.9471058072193728
    One-Electron Energy =               -1714.3951187814393506
    Two-Electron Energy =                 700.1308757096671798
    Total Energy =                       -474.3171372645529118
  Basis Set: (AUG-CC-PVTZ AUX)
    Blend: AUG-CC-PVTZ-RI
    Molecular point group: c1

    Geometry (in Angstrom), charge = 0, multiplicity = 1:

       Center              X                  Y                   Z               Mass
    ------------   -----------------  -----------------  -----------------  -----------------
         O            3.054279681284    -0.714089592415     0.000060685314    15.994914619570
         N           -1.107061318716    -1.153155592415    -0.000079314686    14.003074004430
         C            0.943316681284     0.067459407585    -0.000014314686    12.000000000000
         C           -0.437222318716     0.023184307585    -0.000006914686    12.000000000000
         C            1.848657681284     1.179494407585    -0.000101314686    12.000000000000
         C           -1.266074318716     1.255003407585     0.000083685314    12.000000000000
         C            1.734243681284    -1.055849592415     0.000078685314    12.000000000000
         C           -2.656833318716     1.183818407585     0.000081685314    12.000000000000
         C            3.107201681284     0.651550407585    -0.000045314686    12.000000000000
         C           -3.266010318716    -0.070019592415     0.000002685314    12.000000000000
         C           -2.447820318716    -1.201140592415    -0.000071314686    12.000000000000
         H            1.609169681284     2.234409407585    -0.000211314686     1.007825032230
         H           -0.764602318716     2.218727407585     0.000158685314     1.007825032230
         H            1.508817681284    -2.111071592415     0.000158685314     1.007825032230
         H            4.098114681284     1.080905407585    -0.000071314686     1.007825032230
         H           -3.253853318716     2.092684407585     0.000145685314     1.007825032230
         H           -4.347378318716    -0.173196592415    -0.000001314686     1.007825032230
         H           -2.882903318716    -2.199533592415    -0.000130314686     1.007825032230

  Basis Set: AUG-CC-PVTZ
    Blend: AUG-CC-PVTZ
  Basis Set: (AUG-CC-PVTZ AUX)
    Blend: AUG-CC-PVTZ-JKFIT
	 Reference Energy          =    -474.3171372645529118 [Eh]
	 Singles Energy            =      -0.0000000000000000 [Eh]
	 Same-Spin Energy          =      -0.5154994431583286 [Eh]
	 Opposite-Spin Energy      =      -1.5590176003975420 [Eh]
	 Correlation Energy        =      -2.0745170435558706 [Eh]
	 Total Energy              =    -476.3916543081087980 [Eh]

	 ================> DF-SCS-MP2 Energies <==================
	-----------------------------------------------------------
	 SCS Same-Spin Scale       =       0.3333333333333333 [-]
	 SCS Opposite-Spin Scale   =       1.2000000000000000 [-]
	 SCS Same-Spin Energy      =      -0.1718331477194429 [Eh]
	 SCS Opposite-Spin Energy  =      -1.8708211204770504 [Eh]
	 SCS Correlation Energy    =      -2.0426542681964932 [Eh]
	 SCS Total Energy          =    -476.3597915327493979 [Eh]
	-----------------------------------------------------------

  Dipole Moment: [D]
     X:    -0.8461      Y:     2.0039      Z:     0.0001     Total:     2.1752

*** Psi4 exiting successfully. Buy a developer a beer!
