                               Psi4 1.3.2 release

  ==> Input File <==

--------------------------------------------------------------------------
#psi4
#
memory 32 gb

molecule  {
0 1
  O        3.0632594    -0.7369354     0.0000597
  N       -1.0742560    -1.1771330    -0.0000800
  C        0.9761220     0.0434820    -0.0000150
  C       -0.4881060     0.0430670    -0.0000040
  C        1.8814630     1.1555170    -0.0001020
  C       -1.2332690     1.2310260     0.0000830
  C        1.7670490    -1.0798270     0.0000780
  C       -2.6240280     1.1598410     0.0000810
  C        3.1400070     0.6275730    -0.0000460
  C       -3.2332050    -0.0939970     0.0000020
  C       -2.4150150    -1.2251180    -0.0000720
  H        1.6419750     2.2104320    -0.0002120
  H       -0.7317970     2.1947500     0.0001580
  H        1.5416230    -2.1350490     0.0001580
  H        4.1309200     1.0569280    -0.0000720
  H       -3.2210480     2.0687070     0.0001450
  H       -4.3145730    -0.1971740    -0.0000020
  H       -2.8500980    -2.2235110    -0.0001310
units angstrom
no_reorient  #important for SAPT in psi4, default
symmetry c1  #important for SAPT in psi4, default
}

set PROPERTIES_ORIGIN ["COM"]
properties('MP2/aug-cc-pvtz', properties = ['dipole'])
--------------------------------------------------------------------------

    Molecular point group: c1
  Charge       = 0
  Multiplicity = 1
  Basis Set: AUG-CC-PVTZ
    Blend: AUG-CC-PVTZ
  Basis Set: (AUG-CC-PVTZ AUX)
    Blend: AUG-CC-PVTZ-JKFIT

    Orbital Energies [Eh]
    ---------------------

    Doubly Occupied:

       1A    -20.629347     2A    -15.564656     3A    -11.293040
       4A    -11.292726     5A    -11.291319     6A    -11.278773
       7A    -11.262614     8A    -11.242292     9A    -11.240092
      10A    -11.237921    11A    -11.236413    12A     -1.467503
      13A     -1.257696    14A     -1.104266    15A     -1.087755
      16A     -1.034531    17A     -1.000624    18A     -0.875235
      19A     -0.862864    20A     -0.797709    21A     -0.777289
      22A     -0.746716    23A     -0.687126    24A     -0.661740
      25A     -0.646462    26A     -0.640571    27A     -0.610625
      28A     -0.584621    29A     -0.576132    30A     -0.571331
      31A     -0.548148    32A     -0.536042    33A     -0.519676
      34A     -0.423411    35A     -0.421094    36A     -0.383176
      37A     -0.349102    38A     -0.297986

  @DF-RHF Final Energy:  -474.33192683631557

   => Energetics <=

    Nuclear Repulsion Energy =            540.5613106944068704
    One-Electron Energy =               -1715.7092254258154753
    Two-Electron Energy =                 700.8159878950929169
    Total Energy =                       -474.3319268363155743
  Basis Set: (AUG-CC-PVTZ AUX)
    Blend: AUG-CC-PVTZ-RI
    Molecular point group: c1

    Geometry (in Angstrom), charge = 0, multiplicity = 1:

       Center              X                  Y                   Z               Mass
    ------------   -----------------  -----------------  -----------------  -----------------
         O            3.040004788220    -0.716711254544     0.000060120573    15.994914619570
         N           -1.097510611780    -1.156908854544    -0.000079579427    14.003074004430
         C            0.952867388220     0.063706145456    -0.000014579427    12.000000000000
         C           -0.511360611780     0.063291145456    -0.000003579427    12.000000000000
         C            1.858208388220     1.175741145456    -0.000101579427    12.000000000000
         C           -1.256523611780     1.251250145456     0.000083420573    12.000000000000
         C            1.743794388220    -1.059602854544     0.000078420573    12.000000000000
         C           -2.647282611780     1.180065145456     0.000081420573    12.000000000000
         C            3.116752388220     0.647797145456    -0.000045579427    12.000000000000
         C           -3.256459611780    -0.073772854544     0.000002420573    12.000000000000
         C           -2.438269611780    -1.204893854544    -0.000071579427    12.000000000000
         H            1.618720388220     2.230656145456    -0.000211579427     1.007825032230
         H           -0.755051611780     2.214974145456     0.000158420573     1.007825032230
         H            1.518368388220    -2.114824854544     0.000158420573     1.007825032230
         H            4.107665388220     1.077152145456    -0.000071579427     1.007825032230
         H           -3.244302611780     2.088931145456     0.000145420573     1.007825032230
         H           -4.337827611780    -0.176949854544    -0.000001579427     1.007825032230
         H           -2.873352611780    -2.203286854544    -0.000130579427     1.007825032230

  Basis Set: AUG-CC-PVTZ
    Blend: AUG-CC-PVTZ
  Basis Set: (AUG-CC-PVTZ AUX)
    Blend: AUG-CC-PVTZ-JKFIT
	 Reference Energy          =    -474.3319268363155743 [Eh]
	 Singles Energy            =      -0.0000000000000000 [Eh]
	 Same-Spin Energy          =      -0.5141311406143156 [Eh]
	 Opposite-Spin Energy      =      -1.5561511921668316 [Eh]
	 Correlation Energy        =      -2.0702823327811473 [Eh]
	 Total Energy              =    -476.4022091690967500 [Eh]

	 ================> DF-SCS-MP2 Energies <==================
	-----------------------------------------------------------
	 SCS Same-Spin Scale       =       0.3333333333333333 [-]
	 SCS Opposite-Spin Scale   =       1.2000000000000000 [-]
	 SCS Same-Spin Energy      =      -0.1713770468714385 [Eh]
	 SCS Opposite-Spin Energy  =      -1.8673814306001979 [Eh]
	 SCS Correlation Energy    =      -2.0387584774716365 [Eh]
	 SCS Total Energy          =    -476.3706853137871917 [Eh]
	-----------------------------------------------------------

  Dipole Moment: [D]
     X:    -1.2239      Y:     2.0025      Z:     0.0001     Total:     2.3469

*** Psi4 exiting successfully. Buy a developer a beer!
