                               Psi4 1.3.2 release

  ==> Input File <==

--------------------------------------------------------------------------
#psi4
#
memory 32 gb

molecule  {
0 1
  O        3.0870850    -0.7380670     0.0000600
  N       -1.0742560    -1.1771330    -0.0000800
  C        0.9761220     0.0434820    -0.0000150
  C       -0.4881060     0.0430670    -0.0000040
  C        1.9006547     1.1991179    -0.0001054
  C       -1.2332690     1.2310260     0.0000830
  C        1.7670490    -1.0798270     0.0000780
  C       -2.6240280     1.1598410     0.0000810
  C        3.1400070     0.6275730    -0.0000460
  C       -3.2332050    -0.0939970     0.0000020
  C       -2.4150150    -1.2251180    -0.0000720
  H        1.6419750     2.2104320    -0.0002120
  H       -0.7317970     2.1947500     0.0001580
  H        1.5416230    -2.1350490     0.0001580
  H        4.1309200     1.0569280    -0.0000720
  H       -3.2210480     2.0687070     0.0001450
  H       -4.3145730    -0.1971740    -0.0000020
  H       -2.8500980    -2.2235110    -0.0001310
units angstrom
no_reorient  #important for SAPT in psi4, default
symmetry c1  #important for SAPT in psi4, default
}

set PROPERTIES_ORIGIN ["COM"]
properties('MP2/aug-cc-pvtz', properties = ['dipole'])
--------------------------------------------------------------------------

    Molecular point group: c1
  Charge       = 0
  Multiplicity = 1
  Basis Set: AUG-CC-PVTZ
    Blend: AUG-CC-PVTZ
  Basis Set: (AUG-CC-PVTZ AUX)
    Blend: AUG-CC-PVTZ-JKFIT

    Orbital Energies [Eh]
    ---------------------

    Doubly Occupied:

       1A    -20.628710     2A    -15.565234     3A    -11.296099
       4A    -11.294312     5A    -11.291850     6A    -11.279261
       7A    -11.263151     8A    -11.243150     9A    -11.242434
      10A    -11.240751    11A    -11.238474    12A     -1.458465
      13A     -1.258172    14A     -1.099637    15A     -1.088176
      16A     -1.033660    17A     -0.998494    18A     -0.875376
      19A     -0.863070    20A     -0.801198    21A     -0.774462
      22A     -0.745406    23A     -0.686423    24A     -0.663236
      25A     -0.647611    26A     -0.635336    27A     -0.607478
      28A     -0.586303    29A     -0.582059    30A     -0.571093
      31A     -0.548511    32A     -0.533696    33A     -0.517173
      34A     -0.421641    35A     -0.421161    36A     -0.383389
      37A     -0.349957    38A     -0.299877

  @DF-RHF Final Energy:  -474.32920535048879

   => Energetics <=

    Nuclear Repulsion Energy =            538.9946905744432115
    One-Electron Energy =               -1712.5788198071934403
    Two-Electron Energy =                 699.2549238822614370
    Total Energy =                       -474.3292053504887917
  Basis Set: (AUG-CC-PVTZ AUX)
    Blend: AUG-CC-PVTZ-RI
    Molecular point group: c1

    Geometry (in Angstrom), charge = 0, multiplicity = 1:

       Center              X                  Y                   Z               Mass
    ------------   -----------------  -----------------  -----------------  -----------------
         O            3.059615447246    -0.721325111216     0.000060668769    15.994914619570
         N           -1.101725552754    -1.160391111216    -0.000079331231    14.003074004430
         C            0.948652447246     0.060223888784    -0.000014331231    12.000000000000
         C           -0.515575552754     0.059808888784    -0.000003331231    12.000000000000
         C            1.873185147246     1.215859788784    -0.000104731231    12.000000000000
         C           -1.260738552754     1.247767888784     0.000083668769    12.000000000000
         C            1.739579447246    -1.063085111216     0.000078668769    12.000000000000
         C           -2.651497552754     1.176582888784     0.000081668769    12.000000000000
         C            3.112537447246     0.644314888784    -0.000045331231    12.000000000000
         C           -3.260674552754    -0.077255111216     0.000002668769    12.000000000000
         C           -2.442484552754    -1.208376111216    -0.000071331231    12.000000000000
         H            1.614505447246     2.227173888784    -0.000211331231     1.007825032230
         H           -0.759266552754     2.211491888784     0.000158668769     1.007825032230
         H            1.514153447246    -2.118307111216     0.000158668769     1.007825032230
         H            4.103450447246     1.073669888784    -0.000071331231     1.007825032230
         H           -3.248517552754     2.085448888784     0.000145668769     1.007825032230
         H           -4.342042552754    -0.180432111216    -0.000001331231     1.007825032230
         H           -2.877567552754    -2.206769111216    -0.000130331231     1.007825032230

  Basis Set: AUG-CC-PVTZ
    Blend: AUG-CC-PVTZ
  Basis Set: (AUG-CC-PVTZ AUX)
    Blend: AUG-CC-PVTZ-JKFIT
	 Reference Energy          =    -474.3292053504887917 [Eh]
	 Singles Energy            =      -0.0000000000000000 [Eh]
	 Same-Spin Energy          =      -0.5135037873643877 [Eh]
	 Opposite-Spin Energy      =      -1.5565552209589013 [Eh]
	 Correlation Energy        =      -2.0700590083232893 [Eh]
	 Total Energy              =    -476.3992643588121041 [Eh]

	 ================> DF-SCS-MP2 Energies <==================
	-----------------------------------------------------------
	 SCS Same-Spin Scale       =       0.3333333333333333 [-]
	 SCS Opposite-Spin Scale   =       1.2000000000000000 [-]
	 SCS Same-Spin Energy      =      -0.1711679291214626 [Eh]
	 SCS Opposite-Spin Energy  =      -1.8678662651506814 [Eh]
	 SCS Correlation Energy    =      -2.0390341942721442 [Eh]
	 SCS Total Energy          =    -476.3682395447609110 [Eh]
	-----------------------------------------------------------

  Dipole Moment: [D]
     X:    -1.3268      Y:     2.0214      Z:     0.0001     Total:     2.4179

*** Psi4 exiting successfully. Buy a developer a beer!
