                               Psi4 1.3.2 release

  ==> Input File <==

--------------------------------------------------------------------------
#psi4
#
memory 32 gb

molecule  {
0 1
  O        3.0870850    -0.7380670     0.0000600
  N       -1.0742560    -1.1771330    -0.0000800
  C        0.9761220     0.0434820    -0.0000150
  C       -0.4881060     0.0430670    -0.0000040
  C        1.8814630     1.1555170    -0.0001020
  C       -1.2864067     1.3157395     0.0000892
  C        1.7670490    -1.0798270     0.0000780
  C       -2.6240280     1.1598410     0.0000810
  C        3.1400070     0.6275730    -0.0000460
  C       -3.2332050    -0.0939970     0.0000020
  C       -2.4150150    -1.2251180    -0.0000720
  H        1.6419750     2.2104320    -0.0002120
  H       -0.7317970     2.1947500     0.0001580
  H        1.5416230    -2.1350490     0.0001580
  H        4.1309200     1.0569280    -0.0000720
  H       -3.2210480     2.0687070     0.0001450
  H       -4.3145730    -0.1971740    -0.0000020
  H       -2.8500980    -2.2235110    -0.0001310
units angstrom
no_reorient  #important for SAPT in psi4, default
symmetry c1  #important for SAPT in psi4, default
}

set PROPERTIES_ORIGIN ["COM"]
properties('MP2/aug-cc-pvtz', properties = ['dipole'])
--------------------------------------------------------------------------

    Molecular point group: c1
  Charge       = 0
  Multiplicity = 1
  Basis Set: AUG-CC-PVTZ
    Blend: AUG-CC-PVTZ
  Basis Set: (AUG-CC-PVTZ AUX)
    Blend: AUG-CC-PVTZ-JKFIT

    Orbital Energies [Eh]
    ---------------------

    Doubly Occupied:

       1A    -20.631656     2A    -15.565379     3A    -11.304370
       4A    -11.297651     5A    -11.295498     6A    -11.277598
       7A    -11.255760     8A    -11.244638     9A    -11.241814
      10A    -11.239768    11A    -11.238203    12A     -1.461731
      13A     -1.254754    14A     -1.106421    15A     -1.093019
      16A     -1.030248    17A     -0.997709    18A     -0.879920
      19A     -0.857617    20A     -0.798859    21A     -0.776811
      22A     -0.743871    23A     -0.693195    24A     -0.663583
      25A     -0.646503    26A     -0.638074    27A     -0.607868
      28A     -0.588015    29A     -0.577068    30A     -0.563416
      31A     -0.544455    32A     -0.540916    33A     -0.529443
      34A     -0.426435    35A     -0.415697    36A     -0.390409
      37A     -0.345866    38A     -0.296306

  @DF-RHF Final Energy:  -474.31968903045220

   => Energetics <=

    Nuclear Repulsion Energy =            538.4724913492455016
    One-Electron Energy =               -1711.4632709447541856
    Two-Electron Energy =                 698.6710905650564882
    Total Energy =                       -474.3196890304521958
  Basis Set: (AUG-CC-PVTZ AUX)
    Blend: AUG-CC-PVTZ-RI
    Molecular point group: c1

    Geometry (in Angstrom), charge = 0, multiplicity = 1:

       Center              X                  Y                   Z               Mass
    ------------   -----------------  -----------------  -----------------  -----------------
         O            3.065599151223    -0.724726295632     0.000059874575    15.994914619570
         N           -1.095741848777    -1.163792295632    -0.000080125425    14.003074004430
         C            0.954636151223     0.056822704368    -0.000015125425    12.000000000000
         C           -0.509591848777     0.056407704368    -0.000004125425    12.000000000000
         C            1.859977151223     1.168857704368    -0.000102125425    12.000000000000
         C           -1.307892548777     1.329080204368     0.000089074575    12.000000000000
         C            1.745563151223    -1.066486295632     0.000077874575    12.000000000000
         C           -2.645513848777     1.173181704368     0.000080874575    12.000000000000
         C            3.118521151223     0.640913704368    -0.000046125425    12.000000000000
         C           -3.254690848777    -0.080656295632     0.000001874575    12.000000000000
         C           -2.436500848777    -1.211777295632    -0.000072125425    12.000000000000
         H            1.620489151223     2.223772704368    -0.000212125425     1.007825032230
         H           -0.753282848777     2.208090704368     0.000157874575     1.007825032230
         H            1.520137151223    -2.121708295632     0.000157874575     1.007825032230
         H            4.109434151223     1.070268704368    -0.000072125425     1.007825032230
         H           -3.242533848777     2.082047704368     0.000144874575     1.007825032230
         H           -4.336058848777    -0.183833295632    -0.000002125425     1.007825032230
         H           -2.871583848777    -2.210170295632    -0.000131125425     1.007825032230

  Basis Set: AUG-CC-PVTZ
    Blend: AUG-CC-PVTZ
  Basis Set: (AUG-CC-PVTZ AUX)
    Blend: AUG-CC-PVTZ-JKFIT
	 Reference Energy          =    -474.3196890304521958 [Eh]
	 Singles Energy            =      -0.0000000000000000 [Eh]
	 Same-Spin Energy          =      -0.5140101611818845 [Eh]
	 Opposite-Spin Energy      =      -1.5572297971528597 [Eh]
	 Correlation Energy        =      -2.0712399583347443 [Eh]
	 Total Energy              =    -476.3909289887869249 [Eh]

	 ================> DF-SCS-MP2 Energies <==================
	-----------------------------------------------------------
	 SCS Same-Spin Scale       =       0.3333333333333333 [-]
	 SCS Opposite-Spin Scale   =       1.2000000000000000 [-]
	 SCS Same-Spin Energy      =      -0.1713367203939615 [Eh]
	 SCS Opposite-Spin Energy  =      -1.8686757565834315 [Eh]
	 SCS Correlation Energy    =      -2.0400124769773931 [Eh]
	 SCS Total Energy          =    -476.3597015074295768 [Eh]
	-----------------------------------------------------------

  Dipole Moment: [D]
     X:    -1.1541      Y:     2.0167      Z:     0.0001     Total:     2.3236

*** Psi4 exiting successfully. Buy a developer a beer!
