                               Psi4 1.3.2 release

  ==> Input File <==

--------------------------------------------------------------------------
#psi4
#
memory 32 gb

molecule  {
0 1
  O        3.0870850    -0.7380670     0.0000600
  N       -1.0742560    -1.1771330    -0.0000800
  C        0.9761220     0.0434820    -0.0000150
  C       -0.4881060     0.0430670    -0.0000040
  C        1.9445984     1.2330665    -0.0001081
  C       -1.2332690     1.2310260     0.0000830
  C        1.7670490    -1.0798270     0.0000780
  C       -2.6240280     1.1598410     0.0000810
  C        3.1400070     0.6275730    -0.0000460
  C       -3.2332050    -0.0939970     0.0000020
  C       -2.4150150    -1.2251180    -0.0000720
  H        1.6419750     2.2104320    -0.0002120
  H       -0.7317970     2.1947500     0.0001580
  H        1.5416230    -2.1350490     0.0001580
  H        4.1309200     1.0569280    -0.0000720
  H       -3.2210480     2.0687070     0.0001450
  H       -4.3145730    -0.1971740    -0.0000020
  H       -2.8500980    -2.2235110    -0.0001310
units angstrom
no_reorient  #important for SAPT in psi4, default
symmetry c1  #important for SAPT in psi4, default
}

set PROPERTIES_ORIGIN ["COM"]
properties('MP2/aug-cc-pvtz', properties = ['dipole'])
--------------------------------------------------------------------------

    Molecular point group: c1
  Charge       = 0
  Multiplicity = 1
  Basis Set: AUG-CC-PVTZ
    Blend: AUG-CC-PVTZ
  Basis Set: (AUG-CC-PVTZ AUX)
    Blend: AUG-CC-PVTZ-JKFIT

    Orbital Energies [Eh]
    ---------------------

    Doubly Occupied:

       1A    -20.626849     2A    -15.564890     3A    -11.295163
       4A    -11.295092     5A    -11.291893     6A    -11.279146
       7A    -11.262977     8A    -11.244940     9A    -11.242923
      10A    -11.240409    11A    -11.238249    12A     -1.457687
      13A     -1.257825    14A     -1.094889    15A     -1.087626
      16A     -1.036684    17A     -0.999094    18A     -0.875542
      19A     -0.862544    20A     -0.803933    21A     -0.772457
      22A     -0.745274    23A     -0.686771    24A     -0.663942
      25A     -0.650126    26A     -0.635364    27A     -0.607550
      28A     -0.592842    29A     -0.581619    30A     -0.567950
      31A     -0.548161    32A     -0.529260    33A     -0.510081
      34A     -0.421369    35A     -0.417860    36A     -0.383281
      37A     -0.355181    38A     -0.300920

  @DF-RHF Final Energy:  -474.32369199961107

   => Energetics <=

    Nuclear Repulsion Energy =            538.2576428266386301
    One-Electron Energy =               -1711.1059399137084256
    Two-Electron Energy =                 698.5246050874586672
    Total Energy =                       -474.3236919996111283
  Basis Set: (AUG-CC-PVTZ AUX)
    Blend: AUG-CC-PVTZ-RI
    Molecular point group: c1

    Geometry (in Angstrom), charge = 0, multiplicity = 1:

       Center              X                  Y                   Z               Mass
    ------------   -----------------  -----------------  -----------------  -----------------
         O            3.055980050125    -0.724133628539     0.000060892136    15.994914619570
         N           -1.105360949875    -1.163199628539    -0.000079107864    14.003074004430
         C            0.945017050125     0.057415371461    -0.000014107864    12.000000000000
         C           -0.519210949875     0.057000371461    -0.000003107864    12.000000000000
         C            1.913493450125     1.246999871461    -0.000107207864    12.000000000000
         C           -1.264373949875     1.244959371461     0.000083892136    12.000000000000
         C            1.735944050125    -1.065893628539     0.000078892136    12.000000000000
         C           -2.655132949875     1.173774371461     0.000081892136    12.000000000000
         C            3.108902050125     0.641506371461    -0.000045107864    12.000000000000
         C           -3.264309949875    -0.080063628539     0.000002892136    12.000000000000
         C           -2.446119949875    -1.211184628539    -0.000071107864    12.000000000000
         H            1.610870050125     2.224365371461    -0.000211107864     1.007825032230
         H           -0.762901949875     2.208683371461     0.000158892136     1.007825032230
         H            1.510518050125    -2.121115628539     0.000158892136     1.007825032230
         H            4.099815050125     1.070861371461    -0.000071107864     1.007825032230
         H           -3.252152949875     2.082640371461     0.000145892136     1.007825032230
         H           -4.345677949875    -0.183240628539    -0.000001107864     1.007825032230
         H           -2.881202949875    -2.209577628539    -0.000130107864     1.007825032230

  Basis Set: AUG-CC-PVTZ
    Blend: AUG-CC-PVTZ
  Basis Set: (AUG-CC-PVTZ AUX)
    Blend: AUG-CC-PVTZ-JKFIT
	 Reference Energy          =    -474.3236919996110714 [Eh]
	 Singles Energy            =      -0.0000000000000000 [Eh]
	 Same-Spin Energy          =      -0.5125185121808769 [Eh]
	 Opposite-Spin Energy      =      -1.5556759871631314 [Eh]
	 Correlation Energy        =      -2.0681944993440080 [Eh]
	 Total Energy              =    -476.3918864989551025 [Eh]

	 ================> DF-SCS-MP2 Energies <==================
	-----------------------------------------------------------
	 SCS Same-Spin Scale       =       0.3333333333333333 [-]
	 SCS Opposite-Spin Scale   =       1.2000000000000000 [-]
	 SCS Same-Spin Energy      =      -0.1708395040602923 [Eh]
	 SCS Opposite-Spin Energy  =      -1.8668111845957576 [Eh]
	 SCS Correlation Energy    =      -2.0376506886560497 [Eh]
	 SCS Total Energy          =    -476.3613426882671433 [Eh]
	-----------------------------------------------------------

  Dipole Moment: [D]
     X:    -1.3300      Y:     2.0320      Z:     0.0001     Total:     2.4286

*** Psi4 exiting successfully. Buy a developer a beer!
