                               Psi4 1.4a3.dev225

  ==> Input File <==

--------------------------------------------------------------------------
#psi4
#
memory 32 gb

molecule  {
0 1
  O        3.0870850    -0.7380670     0.0000600
  N       -1.0742560    -1.1771330    -0.0000800
  C        0.9761220     0.0434820    -0.0000150
  C       -0.4881060     0.0430670    -0.0000040
  C        1.9130307     1.1942917    -0.0001050
  C       -1.2332690     1.2310260     0.0000830
  C        1.7670490    -1.0798270     0.0000780
  C       -2.6240280     1.1598410     0.0000810
  C        3.1400070     0.6275730    -0.0000460
  C       -3.2332050    -0.0939970     0.0000020
  C       -2.4150150    -1.2251180    -0.0000720
  H        1.6419750     2.2104320    -0.0002120
  H       -0.7317970     2.1947500     0.0001580
  H        1.5416230    -2.1350490     0.0001580
  H        4.1309200     1.0569280    -0.0000720
  H       -3.2210480     2.0687070     0.0001450
  H       -4.3145730    -0.1971740    -0.0000020
  H       -2.8500980    -2.2235110    -0.0001310
units angstrom
no_reorient  #important for SAPT in psi4, default
symmetry c1  #important for SAPT in psi4, default
}

set PROPERTIES_ORIGIN ["COM"]
properties('MP2/aug-cc-pvtz', properties = ['dipole'])
--------------------------------------------------------------------------

    Molecular point group: c1
  Charge       = 0
  Multiplicity = 1
  Basis Set: AUG-CC-PVTZ
    Blend: AUG-CC-PVTZ
  Basis Set: (AUG-CC-PVTZ AUX)
    Blend: AUG-CC-PVTZ-JKFIT

    Orbital Energies [Eh]
    ---------------------

    Doubly Occupied:

       1A    -20.627571     2A    -15.565259     3A    -11.294469
       4A    -11.294066     5A    -11.292078     6A    -11.279312
       7A    -11.263166     8A    -11.243149     9A    -11.242217
      10A    -11.240737    11A    -11.237647    12A     -1.458191
      13A     -1.258191    14A     -1.099596    15A     -1.088190
      16A     -1.035134    17A     -0.998880    18A     -0.875487
      19A     -0.862926    20A     -0.799851    21A     -0.774589
      22A     -0.745232    23A     -0.686672    24A     -0.663048
      25A     -0.647899    26A     -0.635438    27A     -0.606929
      28A     -0.586681    29A     -0.580779    30A     -0.570954
      31A     -0.548514    32A     -0.533232    33A     -0.516978
      34A     -0.421668    35A     -0.420950    36A     -0.383529
      37A     -0.351800    38A     -0.300198

  @DF-RHF Final Energy:  -474.33004533527838

   => Energetics <=

    Nuclear Repulsion Energy =            539.0580781130054220
    One-Electron Energy =               -1712.7138336428345156
    Two-Electron Energy =                 699.3257101945506520
    Total Energy =                       -474.3300453352784416
  Basis Set: (AUG-CC-PVTZ AUX)
    Blend: AUG-CC-PVTZ-RI
    Molecular point group: c1

    Geometry (in Angstrom), charge = 0, multiplicity = 1:

       Center              X                  Y                   Z               Mass
    ------------   -----------------  -----------------  -----------------  -----------------
         O            3.058591599123    -0.720925846848     0.000060635677    15.994914619570
         N           -1.102749400877    -1.159991846848    -0.000079364323    14.003074004430
         C            0.947628599123     0.060623153152    -0.000014364323    12.000000000000
         C           -0.516599400877     0.060208153152    -0.000003364323    12.000000000000
         C            1.884537299123     1.211432853152    -0.000104364323    12.000000000000
         C           -1.261762400877     1.248167153152     0.000083635677    12.000000000000
         C            1.738555599123    -1.062685846848     0.000078635677    12.000000000000
         C           -2.652521400877     1.176982153152     0.000081635677    12.000000000000
         C            3.111513599123     0.644714153152    -0.000045364323    12.000000000000
         C           -3.261698400877    -0.076855846848     0.000002635677    12.000000000000
         C           -2.443508400877    -1.207976846848    -0.000071364323    12.000000000000
         H            1.613481599123     2.227573153152    -0.000211364323     1.007825032230
         H           -0.760290400877     2.211891153152     0.000158635677     1.007825032230
         H            1.513129599123    -2.117907846848     0.000158635677     1.007825032230
         H            4.102426599123     1.074069153152    -0.000071364323     1.007825032230
         H           -3.249541400877     2.085848153152     0.000145635677     1.007825032230
         H           -4.343066400877    -0.180032846848    -0.000001364323     1.007825032230
         H           -2.878591400877    -2.206369846848    -0.000130364323     1.007825032230

  Basis Set: AUG-CC-PVTZ
    Blend: AUG-CC-PVTZ
  Basis Set: (AUG-CC-PVTZ AUX)
    Blend: AUG-CC-PVTZ-JKFIT
	 Reference Energy          =    -474.3300453352783848 [Eh]
	 Singles Energy            =      -0.0000000000000000 [Eh]
	 Same-Spin Energy          =      -0.5132477818248398 [Eh]
	 Opposite-Spin Energy      =      -1.5561007051455951 [Eh]
	 Correlation Energy        =      -2.0693484869704348 [Eh]
	 Total Energy              =    -476.3993938222488396 [Eh]

	 ================> DF-SCS-MP2 Energies <==================
	-----------------------------------------------------------
	 SCS Same-Spin Scale       =       0.3333333333333333 [-]
	 SCS Opposite-Spin Scale   =       1.2000000000000000 [-]
	 SCS Same-Spin Energy      =      -0.1710825939416132 [Eh]
	 SCS Opposite-Spin Energy  =      -1.8673208461747139 [Eh]
	 SCS Correlation Energy    =      -2.0384034401163271 [Eh]
	 SCS Total Energy          =    -476.3684487753947110 [Eh]
	-----------------------------------------------------------

  Dipole Moment: [D]
     X:    -1.3332      Y:     2.0289      Z:     0.0001     Total:     2.4277

*** Psi4 exiting successfully. Buy a developer a beer!
