                               Psi4 1.3.2 release

  ==> Input File <==

--------------------------------------------------------------------------
#psi4
#
memory 32 gb

molecule  {
0 1
  O        3.0870850    -0.7380670     0.0000600
  N       -1.0742560    -1.1771330    -0.0000800
  C        0.9761220     0.0434820    -0.0000150
  C       -0.4881060     0.0430670    -0.0000040
  C        1.8814630     1.1555170    -0.0001020
  C       -1.2332690     1.2310260     0.0000830
  C        1.7670490    -1.0798270     0.0000780
  C       -2.6240280     1.1598410     0.0000810
  C        3.1400070     0.6275730    -0.0000460
  C       -3.2332050    -0.0939970     0.0000020
  C       -2.4150150    -1.2251180    -0.0000720
  H        1.5976974     2.4054692    -0.0002323
  H       -0.7317970     2.1947500     0.0001580
  H        1.5416230    -2.1350490     0.0001580
  H        4.1309200     1.0569280    -0.0000720
  H       -3.2210480     2.0687070     0.0001450
  H       -4.3145730    -0.1971740    -0.0000020
  H       -2.8500980    -2.2235110    -0.0001310
units angstrom
no_reorient  #important for SAPT in psi4, default
symmetry c1  #important for SAPT in psi4, default
}

set PROPERTIES_ORIGIN ["COM"]
properties('MP2/aug-cc-pvtz', properties = ['dipole'])
--------------------------------------------------------------------------

    Molecular point group: c1
  Charge       = 0
  Multiplicity = 1
  Basis Set: AUG-CC-PVTZ
    Blend: AUG-CC-PVTZ
  Basis Set: (AUG-CC-PVTZ AUX)
    Blend: AUG-CC-PVTZ-JKFIT

    Orbital Energies [Eh]
    ---------------------

    Doubly Occupied:

       1A    -20.630180     2A    -15.565935     3A    -11.295278
       4A    -11.294938     5A    -11.292445     6A    -11.279488
       7A    -11.263197     8A    -11.258154     9A    -11.243135
      10A    -11.241395    11A    -11.241210    12A     -1.460387
      13A     -1.258761    14A     -1.105058    15A     -1.088479
      16A     -1.032678    17A     -0.998431    18A     -0.875627
      19A     -0.862911    20A     -0.785090    21A     -0.777797
      22A     -0.736876    23A     -0.686549    24A     -0.660461
      25A     -0.644743    26A     -0.637195    27A     -0.606420
      28A     -0.586134    29A     -0.574005    30A     -0.549065
      31A     -0.544953    32A     -0.536803    33A     -0.518388
      34A     -0.425678    35A     -0.422145    36A     -0.383874
      37A     -0.349448    38A     -0.299878

  @DF-RHF Final Energy:  -474.30808755041664

   => Energetics <=

    Nuclear Repulsion Energy =            538.9869493323583356
    One-Electron Energy =               -1712.5636999576486232
    Two-Electron Energy =                 699.2686630748736434
    Total Energy =                       -474.3080875504166443
  Basis Set: (AUG-CC-PVTZ AUX)
    Blend: AUG-CC-PVTZ-RI
    Molecular point group: c1

    Geometry (in Angstrom), charge = 0, multiplicity = 1:

       Center              X                  Y                   Z               Mass
    ------------   -----------------  -----------------  -----------------  -----------------
         O            3.061510788405    -0.719073189784     0.000060528536    15.994914619570
         N           -1.099830211595    -1.158139189784    -0.000079471464    14.003074004430
         C            0.950547788405     0.062475810216    -0.000014471464    12.000000000000
         C           -0.513680211595     0.062060810216    -0.000003471464    12.000000000000
         C            1.855888788405     1.174510810216    -0.000101471464    12.000000000000
         C           -1.258843211595     1.250019810216     0.000083528536    12.000000000000
         C            1.741474788405    -1.060833189784     0.000078528536    12.000000000000
         C           -2.649602211595     1.178834810216     0.000081528536    12.000000000000
         C            3.114432788405     0.646566810216    -0.000045471464    12.000000000000
         C           -3.258779211595    -0.075003189784     0.000002528536    12.000000000000
         C           -2.440589211595    -1.206124189784    -0.000071471464    12.000000000000
         H            1.572123188405     2.424463010216    -0.000231771464     1.007825032230
         H           -0.757371211595     2.213743810216     0.000158528536     1.007825032230
         H            1.516048788405    -2.116055189784     0.000158528536     1.007825032230
         H            4.105345788405     1.075921810216    -0.000071471464     1.007825032230
         H           -3.246622211595     2.087700810216     0.000145528536     1.007825032230
         H           -4.340147211595    -0.178180189784    -0.000001471464     1.007825032230
         H           -2.875672211595    -2.204517189784    -0.000130471464     1.007825032230

  Basis Set: AUG-CC-PVTZ
    Blend: AUG-CC-PVTZ
  Basis Set: (AUG-CC-PVTZ AUX)
    Blend: AUG-CC-PVTZ-JKFIT
	 Reference Energy          =    -474.3080875504166443 [Eh]
	 Singles Energy            =      -0.0000000000000000 [Eh]
	 Same-Spin Energy          =      -0.5147239566958407 [Eh]
	 Opposite-Spin Energy      =      -1.5591828358098687 [Eh]
	 Correlation Energy        =      -2.0739067925057095 [Eh]
	 Total Energy              =    -476.3819943429223258 [Eh]

	 ================> DF-SCS-MP2 Energies <==================
	-----------------------------------------------------------
	 SCS Same-Spin Scale       =       0.3333333333333333 [-]
	 SCS Opposite-Spin Scale   =       1.2000000000000000 [-]
	 SCS Same-Spin Energy      =      -0.1715746522319469 [Eh]
	 SCS Opposite-Spin Energy  =      -1.8710194029718423 [Eh]
	 SCS Correlation Energy    =      -2.0425940552037893 [Eh]
	 SCS Total Energy          =    -476.3506816056204229 [Eh]
	-----------------------------------------------------------

  Dipole Moment: [D]
     X:    -1.3542      Y:     1.9903      Z:     0.0001     Total:     2.4073

*** Psi4 exiting successfully. Buy a developer a beer!
