                               Psi4 1.3.2 release

  ==> Input File <==

--------------------------------------------------------------------------
#psi4
#
memory 32 gb

molecule  {
0 1
  O        3.0870850    -0.7380670     0.0000600
  N       -1.0742560    -1.1771330    -0.0000800
  C        0.9761220     0.0434820    -0.0000150
  C       -0.5747067    -0.1372114    -0.0000152
  C        1.8814630     1.1555170    -0.0001020
  C       -1.2332690     1.2310260     0.0000830
  C        1.7670490    -1.0798270     0.0000780
  C       -2.6240280     1.1598410     0.0000810
  C        3.1400070     0.6275730    -0.0000460
  C       -3.2332050    -0.0939970     0.0000020
  C       -2.4150150    -1.2251180    -0.0000720
  H        1.6419750     2.2104320    -0.0002120
  H       -0.7317970     2.1947500     0.0001580
  H        1.5416230    -2.1350490     0.0001580
  H        4.1309200     1.0569280    -0.0000720
  H       -3.2210480     2.0687070     0.0001450
  H       -4.3145730    -0.1971740    -0.0000020
  H       -2.8500980    -2.2235110    -0.0001310
units angstrom
no_reorient  #important for SAPT in psi4, default
symmetry c1  #important for SAPT in psi4, default
}

set PROPERTIES_ORIGIN ["COM"]
properties('MP2/aug-cc-pvtz', properties = ['dipole'])
--------------------------------------------------------------------------

    Molecular point group: c1
  Charge       = 0
  Multiplicity = 1
  Basis Set: AUG-CC-PVTZ
    Blend: AUG-CC-PVTZ
  Basis Set: (AUG-CC-PVTZ AUX)
    Blend: AUG-CC-PVTZ-JKFIT

    Orbital Energies [Eh]
    ---------------------

    Doubly Occupied:

       1A    -20.623707     2A    -15.552811     3A    -11.291019
       4A    -11.290951     5A    -11.285166     6A    -11.281793
       7A    -11.259110     8A    -11.251235     9A    -11.244024
      10A    -11.237367    11A    -11.235225    12A     -1.454114
      13A     -1.329078    14A     -1.102553    15A     -1.090592
      16A     -1.025817    17A     -0.994136    18A     -0.883561
      19A     -0.853642    20A     -0.797039    21A     -0.769916
      22A     -0.741437    23A     -0.702479    24A     -0.661441
      25A     -0.644628    26A     -0.631556    27A     -0.602635
      28A     -0.584796    29A     -0.580582    30A     -0.575885
      31A     -0.567306    32A     -0.537836    33A     -0.521802
      34A     -0.422978    35A     -0.403629    36A     -0.396874
      37A     -0.339308    38A     -0.301654

  @DF-RHF Final Energy:  -474.27903069052280

   => Energetics <=

    Nuclear Repulsion Energy =            540.9343815022556328
    One-Electron Energy =               -1716.2874588512117953
    Two-Electron Energy =                 701.0740466584331898
    Total Energy =                       -474.2790306905228590
  Basis Set: (AUG-CC-PVTZ AUX)
    Blend: AUG-CC-PVTZ-RI
    Molecular point group: c1

    Geometry (in Angstrom), charge = 0, multiplicity = 1:

       Center              X                  Y                   Z               Mass
    ------------   -----------------  -----------------  -----------------  -----------------
         O            3.068367495578    -0.702803908802     0.000061314051    15.994914619570
         N           -1.092973504422    -1.141869908802    -0.000078685949    14.003074004430
         C            0.957404495578     0.078745091198    -0.000013685949    12.000000000000
         C           -0.593424204422    -0.101948308802    -0.000013885949    12.000000000000
         C            1.862745495578     1.190780091198    -0.000100685949    12.000000000000
         C           -1.251986504422     1.266289091198     0.000084314051    12.000000000000
         C            1.748331495578    -1.044563908802     0.000079314051    12.000000000000
         C           -2.642745504422     1.195104091198     0.000082314051    12.000000000000
         C            3.121289495578     0.662836091198    -0.000044685949    12.000000000000
         C           -3.251922504422    -0.058733908802     0.000003314051    12.000000000000
         C           -2.433732504422    -1.189854908802    -0.000070685949    12.000000000000
         H            1.623257495578     2.245695091198    -0.000210685949     1.007825032230
         H           -0.750514504422     2.230013091198     0.000159314051     1.007825032230
         H            1.522905495578    -2.099785908802     0.000159314051     1.007825032230
         H            4.112202495578     1.092191091198    -0.000070685949     1.007825032230
         H           -3.239765504422     2.103970091198     0.000146314051     1.007825032230
         H           -4.333290504422    -0.161910908802    -0.000000685949     1.007825032230
         H           -2.868815504422    -2.188247908802    -0.000129685949     1.007825032230

  Basis Set: AUG-CC-PVTZ
    Blend: AUG-CC-PVTZ
  Basis Set: (AUG-CC-PVTZ AUX)
    Blend: AUG-CC-PVTZ-JKFIT
	 Reference Energy          =    -474.2790306905228022 [Eh]
	 Singles Energy            =      -0.0000000000000000 [Eh]
	 Same-Spin Energy          =      -0.5113103015932665 [Eh]
	 Opposite-Spin Energy      =      -1.5537501618014138 [Eh]
	 Correlation Energy        =      -2.0650604633946803 [Eh]
	 Total Energy              =    -476.3440911539174749 [Eh]

	 ================> DF-SCS-MP2 Energies <==================
	-----------------------------------------------------------
	 SCS Same-Spin Scale       =       0.3333333333333333 [-]
	 SCS Opposite-Spin Scale   =       1.2000000000000000 [-]
	 SCS Same-Spin Energy      =      -0.1704367671977555 [Eh]
	 SCS Opposite-Spin Energy  =      -1.8645001941616965 [Eh]
	 SCS Correlation Energy    =      -2.0349369613594521 [Eh]
	 SCS Total Energy          =    -476.3139676518822512 [Eh]
	-----------------------------------------------------------

  Dipole Moment: [D]
     X:    -1.5903      Y:     1.8275      Z:     0.0001     Total:     2.4225

*** Psi4 exiting successfully. Buy a developer a beer!
