                               Psi4 1.4a3.dev225

  ==> Input File <==

--------------------------------------------------------------------------
#psi4
#
memory 32 gb

molecule  {
0 1
  O        3.0870850    -0.7380670     0.0000600
  N       -1.0742560    -1.1771330    -0.0000800
  C        0.9761220     0.0434820    -0.0000150
  C       -0.4881060     0.0430670    -0.0000040
  C        1.8814630     1.1555170    -0.0001020
  C       -1.2332690     1.2310260     0.0000830
  C        1.7670490    -1.0798270     0.0000780
  C       -2.6240280     1.1598410     0.0000810
  C        3.1861145     0.6082314    -0.0000439
  C       -3.2332050    -0.0939970     0.0000020
  C       -2.4150150    -1.2251180    -0.0000720
  H        1.6419750     2.2104320    -0.0002120
  H       -0.7317970     2.1947500     0.0001580
  H        1.5416230    -2.1350490     0.0001580
  H        4.1309200     1.0569280    -0.0000720
  H       -3.2210480     2.0687070     0.0001450
  H       -4.3145730    -0.1971740    -0.0000020
  H       -2.8500980    -2.2235110    -0.0001310
units angstrom
no_reorient  #important for SAPT in psi4, default
symmetry c1  #important for SAPT in psi4, default
}

set PROPERTIES_ORIGIN ["COM"]
properties('MP2/aug-cc-pvtz', properties = ['dipole'])
--------------------------------------------------------------------------

    Molecular point group: c1
  Charge       = 0
  Multiplicity = 1
  Basis Set: AUG-CC-PVTZ
    Blend: AUG-CC-PVTZ
  Basis Set: (AUG-CC-PVTZ AUX)
    Blend: AUG-CC-PVTZ-JKFIT

    Orbital Energies [Eh]
    ---------------------

    Doubly Occupied:

       1A    -20.632195     2A    -15.566309     3A    -11.296319
       4A    -11.293303     5A    -11.292592     6A    -11.279707
       7A    -11.263541     8A    -11.243795     9A    -11.241676
      10A    -11.241641    11A    -11.239901    12A     -1.464374
      13A     -1.259037    14A     -1.102223    15A     -1.088752
      16A     -1.028246    17A     -1.000633    18A     -0.875708
      19A     -0.864222    20A     -0.797834    21A     -0.779575
      22A     -0.746863    23A     -0.687806    24A     -0.663363
      25A     -0.646732    26A     -0.637810    27A     -0.618545
      28A     -0.587556    29A     -0.575320    30A     -0.566024
      31A     -0.549388    32A     -0.533751    33A     -0.520873
      34A     -0.423578    35A     -0.422473    36A     -0.383398
      37A     -0.341485    38A     -0.298420

  @DF-RHF Final Energy:  -474.32605716515661

   => Energetics <=

    Nuclear Repulsion Energy =            539.2474707508322354
    One-Electron Energy =               -1713.0371197623180706
    Two-Electron Energy =                 699.4635918463292228
    Total Energy =                       -474.3260571651566124
  Basis Set: (AUG-CC-PVTZ AUX)
    Blend: AUG-CC-PVTZ-RI
    Molecular point group: c1

    Geometry (in Angstrom), charge = 0, multiplicity = 1:

       Center              X                  Y                   Z               Mass
    ------------   -----------------  -----------------  -----------------  -----------------
         O            3.057388743035    -0.716117971552     0.000060213762    15.994914619570
         N           -1.103952256965    -1.155183971552    -0.000079786238    14.003074004430
         C            0.946425743035     0.065431028448    -0.000014786238    12.000000000000
         C           -0.517802256965     0.065016028448    -0.000003786238    12.000000000000
         C            1.851766743035     1.177466028448    -0.000101786238    12.000000000000
         C           -1.262965256965     1.252975028448     0.000083213762    12.000000000000
         C            1.737352743035    -1.057877971552     0.000078213762    12.000000000000
         C           -2.653724256965     1.181790028448     0.000081213762    12.000000000000
         C            3.156418243035     0.630180428448    -0.000043686238    12.000000000000
         C           -3.262901256965    -0.072047971552     0.000002213762    12.000000000000
         C           -2.444711256965    -1.203168971552    -0.000071786238    12.000000000000
         H            1.612278743035     2.232381028448    -0.000211786238     1.007825032230
         H           -0.761493256965     2.216699028448     0.000158213762     1.007825032230
         H            1.511926743035    -2.113099971552     0.000158213762     1.007825032230
         H            4.101223743035     1.078877028448    -0.000071786238     1.007825032230
         H           -3.250744256965     2.090656028448     0.000145213762     1.007825032230
         H           -4.344269256965    -0.175224971552    -0.000001786238     1.007825032230
         H           -2.879794256965    -2.201561971552    -0.000130786238     1.007825032230

  Basis Set: AUG-CC-PVTZ
    Blend: AUG-CC-PVTZ
  Basis Set: (AUG-CC-PVTZ AUX)
    Blend: AUG-CC-PVTZ-JKFIT
	 Reference Energy          =    -474.3260571651566124 [Eh]
	 Singles Energy            =      -0.0000000000000000 [Eh]
	 Same-Spin Energy          =      -0.5149241226846095 [Eh]
	 Opposite-Spin Energy      =      -1.5579238685060448 [Eh]
	 Correlation Energy        =      -2.0728479911906543 [Eh]
	 Total Energy              =    -476.3989051563472685 [Eh]

	 ================> DF-SCS-MP2 Energies <==================
	-----------------------------------------------------------
	 SCS Same-Spin Scale       =       0.3333333333333333 [-]
	 SCS Opposite-Spin Scale   =       1.2000000000000000 [-]
	 SCS Same-Spin Energy      =      -0.1716413742282032 [Eh]
	 SCS Opposite-Spin Energy  =      -1.8695086422072538 [Eh]
	 SCS Correlation Energy    =      -2.0411500164354570 [Eh]
	 SCS Total Energy          =    -476.3672071815920503 [Eh]
	-----------------------------------------------------------

  Dipole Moment: [D]
     X:    -1.3404      Y:     1.9516      Z:     0.0001     Total:     2.3675

*** Psi4 exiting successfully. Buy a developer a beer!
