                               Psi4 1.3.2 release

  ==> Input File <==

--------------------------------------------------------------------------
#psi4
#
memory 32 gb

molecule  {
0 1
  O        3.0870850    -0.7380670     0.0000600
  N       -1.0742560    -1.1771330    -0.0000800
  C        0.9761220     0.0434820    -0.0000150
  C       -0.4070533     0.0979408     0.0000005
  C        1.8814630     1.1555170    -0.0001020
  C       -1.2332690     1.2310260     0.0000830
  C        1.7670490    -1.0798270     0.0000780
  C       -2.6240280     1.1598410     0.0000810
  C        3.1400070     0.6275730    -0.0000460
  C       -3.2332050    -0.0939970     0.0000020
  C       -2.4150150    -1.2251180    -0.0000720
  H        1.6419750     2.2104320    -0.0002120
  H       -0.7317970     2.1947500     0.0001580
  H        1.5416230    -2.1350490     0.0001580
  H        4.1309200     1.0569280    -0.0000720
  H       -3.2210480     2.0687070     0.0001450
  H       -4.3145730    -0.1971740    -0.0000020
  H       -2.8500980    -2.2235110    -0.0001310
units angstrom
no_reorient  #important for SAPT in psi4, default
symmetry c1  #important for SAPT in psi4, default
}

set PROPERTIES_ORIGIN ["COM"]
properties('MP2/aug-cc-pvtz', properties = ['dipole'])
--------------------------------------------------------------------------

    Molecular point group: c1
  Charge       = 0
  Multiplicity = 1
  Basis Set: AUG-CC-PVTZ
    Blend: AUG-CC-PVTZ
  Basis Set: (AUG-CC-PVTZ AUX)
    Blend: AUG-CC-PVTZ-JKFIT

    Orbital Energies [Eh]
    ---------------------

    Doubly Occupied:

       1A    -20.633305     2A    -15.566840     3A    -11.301352
       4A    -11.296352     5A    -11.292911     6A    -11.276981
       7A    -11.262206     8A    -11.243066     9A    -11.239801
      10A    -11.239465    11A    -11.238017    12A     -1.463523
      13A     -1.236692    14A     -1.117137    15A     -1.080993
      16A     -1.035196    17A     -1.000191    18A     -0.887009
      19A     -0.856049    20A     -0.795999    21A     -0.782516
      22A     -0.748912    23A     -0.684257    24A     -0.656010
      25A     -0.647112    26A     -0.640154    27A     -0.610275
      28A     -0.590049    29A     -0.577572    30A     -0.572695
      31A     -0.543236    32A     -0.539777    33A     -0.518852
      34A     -0.433145    35A     -0.411784    36A     -0.377893
      37A     -0.350788    38A     -0.294176

  @DF-RHF Final Energy:  -474.31451209602238

   => Energetics <=

    Nuclear Repulsion Energy =            539.6666093717295780
    One-Electron Energy =               -1713.8776666013479826
    Two-Electron Energy =                 699.8965451335959642
    Total Energy =                       -474.3145120960223267
  Basis Set: (AUG-CC-PVTZ AUX)
    Blend: AUG-CC-PVTZ-RI
    Molecular point group: c1

    Geometry (in Angstrom), charge = 0, multiplicity = 1:

       Center              X                  Y                   Z               Mass
    ------------   -----------------  -----------------  -----------------  -----------------
         O            3.054497778473    -0.722257701512     0.000060015213    15.994914619570
         N           -1.106843221527    -1.161323701512    -0.000079984787    14.003074004430
         C            0.943534778473     0.059291298488    -0.000014984787    12.000000000000
         C           -0.439640521527     0.113750098488     0.000000515213    12.000000000000
         C            1.848875778473     1.171326298488    -0.000101984787    12.000000000000
         C           -1.265856221527     1.246835298488     0.000083015213    12.000000000000
         C            1.734461778473    -1.064017701512     0.000078015213    12.000000000000
         C           -2.656615221527     1.175650298488     0.000081015213    12.000000000000
         C            3.107419778473     0.643382298488    -0.000045984787    12.000000000000
         C           -3.265792221527    -0.078187701512     0.000002015213    12.000000000000
         C           -2.447602221527    -1.209308701512    -0.000071984787    12.000000000000
         H            1.609387778473     2.226241298488    -0.000211984787     1.007825032230
         H           -0.764384221527     2.210559298488     0.000158015213     1.007825032230
         H            1.509035778473    -2.119239701512     0.000158015213     1.007825032230
         H            4.098332778473     1.072737298488    -0.000071984787     1.007825032230
         H           -3.253635221527     2.084516298488     0.000145015213     1.007825032230
         H           -4.347160221527    -0.181364701512    -0.000001984787     1.007825032230
         H           -2.882685221527    -2.207701701512    -0.000130984787     1.007825032230

  Basis Set: AUG-CC-PVTZ
    Blend: AUG-CC-PVTZ
  Basis Set: (AUG-CC-PVTZ AUX)
    Blend: AUG-CC-PVTZ-JKFIT
	 Reference Energy          =    -474.3145120960223835 [Eh]
	 Singles Energy            =      -0.0000000000000000 [Eh]
	 Same-Spin Energy          =      -0.5160834608846160 [Eh]
	 Opposite-Spin Energy      =      -1.5608342159119861 [Eh]
	 Correlation Energy        =      -2.0769176767966022 [Eh]
	 Total Energy              =    -476.3914297728189808 [Eh]

	 ================> DF-SCS-MP2 Energies <==================
	-----------------------------------------------------------
	 SCS Same-Spin Scale       =       0.3333333333333333 [-]
	 SCS Opposite-Spin Scale   =       1.2000000000000000 [-]
	 SCS Same-Spin Energy      =      -0.1720278202948720 [Eh]
	 SCS Opposite-Spin Energy  =      -1.8730010590943833 [Eh]
	 SCS Correlation Energy    =      -2.0450288793892555 [Eh]
	 SCS Total Energy          =    -476.3595409754116190 [Eh]
	-----------------------------------------------------------

  Dipole Moment: [D]
     X:    -1.0016      Y:     2.0299      Z:     0.0001     Total:     2.2636

*** Psi4 exiting successfully. Buy a developer a beer!
