                               Psi4 1.3.2 release

  ==> Input File <==

--------------------------------------------------------------------------
#psi4
#
memory 32 gb

molecule  {
0 1
  O        3.0394571    -0.7353881     0.0000594
  N       -1.0742560    -1.1771330    -0.0000800
  C        0.9761220     0.0434820    -0.0000150
  C       -0.4881060     0.0430670    -0.0000040
  C        1.8814630     1.1555170    -0.0001020
  C       -1.2332690     1.2310260     0.0000830
  C        1.7670490    -1.0798270     0.0000780
  C       -2.6240280     1.1598410     0.0000810
  C        3.1400070     0.6275730    -0.0000460
  C       -3.2332050    -0.0939970     0.0000020
  C       -2.4150150    -1.2251180    -0.0000720
  H        1.6419750     2.2104320    -0.0002120
  H       -0.7317970     2.1947500     0.0001580
  H        1.5416230    -2.1350490     0.0001580
  H        4.1309200     1.0569280    -0.0000720
  H       -3.2210480     2.0687070     0.0001450
  H       -4.3145730    -0.1971740    -0.0000020
  H       -2.8500980    -2.2235110    -0.0001310
units angstrom
no_reorient  #important for SAPT in psi4, default
symmetry c1  #important for SAPT in psi4, default
}

set PROPERTIES_ORIGIN ["COM"]
properties('MP2/aug-cc-pvtz', properties = ['dipole'])
--------------------------------------------------------------------------

    Molecular point group: c1
  Charge       = 0
  Multiplicity = 1
  Basis Set: AUG-CC-PVTZ
    Blend: AUG-CC-PVTZ
  Basis Set: (AUG-CC-PVTZ AUX)
    Blend: AUG-CC-PVTZ-JKFIT

    Orbital Energies [Eh]
    ---------------------

    Doubly Occupied:

       1A    -20.630032     2A    -15.563598     3A    -11.292299
       4A    -11.292112     5A    -11.290333     6A    -11.278034
       7A    -11.261838     8A    -11.241156     9A    -11.239038
      10A    -11.238143    11A    -11.234063    12A     -1.476600
      13A     -1.256755    14A     -1.103024    15A     -1.086874
      16A     -1.035541    17A     -1.002798    18A     -0.874966
      19A     -0.862266    20A     -0.799457    21A     -0.776917
      22A     -0.748522    23A     -0.687032    24A     -0.661002
      25A     -0.646765    26A     -0.645750    27A     -0.614178
      28A     -0.583582    29A     -0.576886    30A     -0.570588
      31A     -0.547345    32A     -0.533695    33A     -0.518768
      34A     -0.422199    35A     -0.420168    36A     -0.382511
      37A     -0.349515    38A     -0.296844

  @DF-RHF Final Energy:  -474.33167225269705

   => Energetics <=

    Nuclear Repulsion Energy =            541.2584917063494458
    One-Electron Energy =               -1717.0979457375747188
    Two-Electron Energy =                 701.5077817785281695
    Total Energy =                       -474.3316722526969897
  Basis Set: (AUG-CC-PVTZ AUX)
    Blend: AUG-CC-PVTZ-RI
    Molecular point group: c1

    Geometry (in Angstrom), charge = 0, multiplicity = 1:

       Center              X                  Y                   Z               Mass
    ------------   -----------------  -----------------  -----------------  -----------------
         O            3.018827159037    -0.715334574743     0.000059853653    15.994914619570
         N           -1.094885940963    -1.157079474743    -0.000079546347    14.003074004430
         C            0.955492059037     0.063535525257    -0.000014546347    12.000000000000
         C           -0.508735940963     0.063120525257    -0.000003546347    12.000000000000
         C            1.860833059037     1.175570525257    -0.000101546347    12.000000000000
         C           -1.253898940963     1.251079525257     0.000083453653    12.000000000000
         C            1.746419059037    -1.059773474743     0.000078453653    12.000000000000
         C           -2.644657940963     1.179894525257     0.000081453653    12.000000000000
         C            3.119377059037     0.647626525257    -0.000045546347    12.000000000000
         C           -3.253834940963    -0.073943474743     0.000002453653    12.000000000000
         C           -2.435644940963    -1.205064474743    -0.000071546347    12.000000000000
         H            1.621345059037     2.230485525257    -0.000211546347     1.007825032230
         H           -0.752426940963     2.214803525257     0.000158453653     1.007825032230
         H            1.520993059037    -2.114995474743     0.000158453653     1.007825032230
         H            4.110290059037     1.076981525257    -0.000071546347     1.007825032230
         H           -3.241677940963     2.088760525257     0.000145453653     1.007825032230
         H           -4.335202940963    -0.177120474743    -0.000001546347     1.007825032230
         H           -2.870727940963    -2.203457474743    -0.000130546347     1.007825032230

  Basis Set: AUG-CC-PVTZ
    Blend: AUG-CC-PVTZ
  Basis Set: (AUG-CC-PVTZ AUX)
    Blend: AUG-CC-PVTZ-JKFIT
	 Reference Energy          =    -474.3316722526970466 [Eh]
	 Singles Energy            =      -0.0000000000000000 [Eh]
	 Same-Spin Energy          =      -0.5140715467302128 [Eh]
	 Opposite-Spin Energy      =      -1.5553738670883861 [Eh]
	 Correlation Energy        =      -2.0694454138185989 [Eh]
	 Total Energy              =    -476.4011176665156313 [Eh]

	 ================> DF-SCS-MP2 Energies <==================
	-----------------------------------------------------------
	 SCS Same-Spin Scale       =       0.3333333333333333 [-]
	 SCS Opposite-Spin Scale   =       1.2000000000000000 [-]
	 SCS Same-Spin Energy      =      -0.1713571822434043 [Eh]
	 SCS Opposite-Spin Energy  =      -1.8664486405060632 [Eh]
	 SCS Correlation Energy    =      -2.0378058227494673 [Eh]
	 SCS Total Energy          =    -476.3694780754465228 [Eh]
	-----------------------------------------------------------

  Dipole Moment: [D]
     X:    -1.1013      Y:     1.9803      Z:     0.0001     Total:     2.2659

*** Psi4 exiting successfully. Buy a developer a beer!
