                               Psi4 1.4a3.dev225

  ==> Input File <==

--------------------------------------------------------------------------
#psi4
#
memory 32 gb

molecule  {
0 1
  O        3.0870850    -0.7380670     0.0000600
  N       -1.0742560    -1.1771330    -0.0000800
  C        0.9761220     0.0434820    -0.0000150
  C       -0.4881060     0.0430670    -0.0000040
  C        1.8814630     1.1555170    -0.0001020
  C       -1.2067002     1.1886692     0.0000799
  C        1.7670490    -1.0798270     0.0000780
  C       -2.6240280     1.1598410     0.0000810
  C        3.1400070     0.6275730    -0.0000460
  C       -3.2332050    -0.0939970     0.0000020
  C       -2.4150150    -1.2251180    -0.0000720
  H        1.6419750     2.2104320    -0.0002120
  H       -0.7317970     2.1947500     0.0001580
  H        1.5416230    -2.1350490     0.0001580
  H        4.1309200     1.0569280    -0.0000720
  H       -3.2210480     2.0687070     0.0001450
  H       -4.3145730    -0.1971740    -0.0000020
  H       -2.8500980    -2.2235110    -0.0001310
units angstrom
no_reorient  #important for SAPT in psi4, default
symmetry c1  #important for SAPT in psi4, default
}

set PROPERTIES_ORIGIN ["COM"]
properties('MP2/aug-cc-pvtz', properties = ['dipole'])
--------------------------------------------------------------------------

    Molecular point group: c1
  Charge       = 0
  Multiplicity = 1
  Basis Set: AUG-CC-PVTZ
    Blend: AUG-CC-PVTZ
  Basis Set: (AUG-CC-PVTZ AUX)
    Blend: AUG-CC-PVTZ-JKFIT

    Orbital Energies [Eh]
    ---------------------

    Doubly Occupied:

       1A    -20.627069     2A    -15.565726     3A    -11.292197
       4A    -11.291819     5A    -11.284803     6A    -11.280675
       7A    -11.267311     8A    -11.242676     9A    -11.242482
      10A    -11.237694    11A    -11.235925    12A     -1.457392
      13A     -1.260975    14A     -1.105532    15A     -1.086472
      16A     -1.036986    17A     -0.998318    18A     -0.875572
      19A     -0.864455    20A     -0.794501    21A     -0.778206
      22A     -0.745101    23A     -0.685078    24A     -0.665825
      25A     -0.643405    26A     -0.634432    27A     -0.606355
      28A     -0.584321    29A     -0.577512    30A     -0.572337
      31A     -0.551679    32A     -0.536461    33A     -0.513073
      34A     -0.424297    35A     -0.424046    36A     -0.380720
      37A     -0.350974    38A     -0.300418

  @DF-RHF Final Energy:  -474.32808144563455

   => Energetics <=

    Nuclear Repulsion Energy =            540.6337164709996159
    One-Electron Energy =               -1715.8779540485952566
    Two-Electron Energy =                 700.9161561319610882
    Total Energy =                       -474.3280814456345524
  Basis Set: (AUG-CC-PVTZ AUX)
    Blend: AUG-CC-PVTZ-RI
    Molecular point group: c1

    Geometry (in Angstrom), charge = 0, multiplicity = 1:

       Center              X                  Y                   Z               Mass
    ------------   -----------------  -----------------  -----------------  -----------------
         O            3.059005150705    -0.714213958194     0.000060643950    15.994914619570
         N           -1.102335849295    -1.153279958194    -0.000079356050    14.003074004430
         C            0.948042150705     0.067335041806    -0.000014356050    12.000000000000
         C           -0.516185849295     0.066920041806    -0.000003356050    12.000000000000
         C            1.853383150705     1.179370041806    -0.000101356050    12.000000000000
         C           -1.234780049295     1.212522241806     0.000080543950    12.000000000000
         C            1.738969150705    -1.055973958194     0.000078643950    12.000000000000
         C           -2.652107849295     1.183694041806     0.000081643950    12.000000000000
         C            3.111927150705     0.651426041806    -0.000045356050    12.000000000000
         C           -3.261284849295    -0.070143958194     0.000002643950    12.000000000000
         C           -2.443094849295    -1.201264958194    -0.000071356050    12.000000000000
         H            1.613895150705     2.234285041806    -0.000211356050     1.007825032230
         H           -0.759876849295     2.218603041806     0.000158643950     1.007825032230
         H            1.513543150705    -2.111195958194     0.000158643950     1.007825032230
         H            4.102840150705     1.080781041806    -0.000071356050     1.007825032230
         H           -3.249127849295     2.092560041806     0.000145643950     1.007825032230
         H           -4.342652849295    -0.173320958194    -0.000001356050     1.007825032230
         H           -2.878177849295    -2.199657958194    -0.000130356050     1.007825032230

  Basis Set: AUG-CC-PVTZ
    Blend: AUG-CC-PVTZ
  Basis Set: (AUG-CC-PVTZ AUX)
    Blend: AUG-CC-PVTZ-JKFIT
	 Reference Energy          =    -474.3280814456345524 [Eh]
	 Singles Energy            =      -0.0000000000000000 [Eh]
	 Same-Spin Energy          =      -0.5142040585716308 [Eh]
	 Opposite-Spin Energy      =      -1.5571336151337394 [Eh]
	 Correlation Energy        =      -2.0713376737053704 [Eh]
	 Total Energy              =    -476.3994191193399388 [Eh]

	 ================> DF-SCS-MP2 Energies <==================
	-----------------------------------------------------------
	 SCS Same-Spin Scale       =       0.3333333333333333 [-]
	 SCS Opposite-Spin Scale   =       1.2000000000000000 [-]
	 SCS Same-Spin Energy      =      -0.1714013528572103 [Eh]
	 SCS Opposite-Spin Energy  =      -1.8685603381604872 [Eh]
	 SCS Correlation Energy    =      -2.0399616910176972 [Eh]
	 SCS Total Energy          =    -476.3680431366522612 [Eh]
	-----------------------------------------------------------

  Dipole Moment: [D]
     X:    -1.4485      Y:     2.0154      Z:     0.0001     Total:     2.4819

*** Psi4 exiting successfully. Buy a developer a beer!
