                               Psi4 1.3.2 release

  ==> Input File <==

--------------------------------------------------------------------------
#psi4
#
memory 32 gb

molecule  {
0 1
  O        3.0870850    -0.7380670     0.0000600
  N       -1.0742560    -1.1771330    -0.0000800
  C        0.9761220     0.0434820    -0.0000150
  C       -0.4881060     0.0430670    -0.0000040
  C        1.8814630     1.1555170    -0.0001020
  C       -1.2332690     1.2310260     0.0000830
  C        1.7670490    -1.0798270     0.0000780
  C       -2.6240280     1.1598410     0.0000810
  C        3.1882977     0.7620188    -0.0000600
  C       -3.2332050    -0.0939970     0.0000020
  C       -2.4150150    -1.2251180    -0.0000720
  H        1.6419750     2.2104320    -0.0002120
  H       -0.7317970     2.1947500     0.0001580
  H        1.5416230    -2.1350490     0.0001580
  H        4.1309200     1.0569280    -0.0000720
  H       -3.2210480     2.0687070     0.0001450
  H       -4.3145730    -0.1971740    -0.0000020
  H       -2.8500980    -2.2235110    -0.0001310
units angstrom
no_reorient  #important for SAPT in psi4, default
symmetry c1  #important for SAPT in psi4, default
}

set PROPERTIES_ORIGIN ["COM"]
properties('MP2/aug-cc-pvtz', properties = ['dipole'])
--------------------------------------------------------------------------

    Molecular point group: c1
  Charge       = 0
  Multiplicity = 1
  Basis Set: AUG-CC-PVTZ
    Blend: AUG-CC-PVTZ
  Basis Set: (AUG-CC-PVTZ AUX)
    Blend: AUG-CC-PVTZ-JKFIT

    Orbital Energies [Eh]
    ---------------------

    Doubly Occupied:

       1A    -20.611140     2A    -15.564968     3A    -11.302638
       4A    -11.293682     5A    -11.293201     6A    -11.279508
       7A    -11.263157     8A    -11.252314     9A    -11.242365
      10A    -11.239916    11A    -11.237497    12A     -1.411355
      13A     -1.258301    14A     -1.102735    15A     -1.088143
      16A     -1.035991    17A     -0.995381    18A     -0.870671
      19A     -0.863508    20A     -0.805807    21A     -0.779476
      22A     -0.740615    23A     -0.686579    24A     -0.662869
      25A     -0.643662    26A     -0.619080    27A     -0.608424
      28A     -0.587107    29A     -0.575997    30A     -0.561161
      31A     -0.547363    32A     -0.531947    33A     -0.516607
      34A     -0.423407    35A     -0.421682    36A     -0.384663
      37A     -0.356755    38A     -0.297466

  @DF-RHF Final Energy:  -474.30651494110646

   => Energetics <=

    Nuclear Repulsion Energy =            537.3042726912059379
    One-Electron Energy =               -1709.3072969619888681
    Two-Electron Energy =                 697.6965093296765872
    Total Energy =                       -474.3065149411064567
  Basis Set: (AUG-CC-PVTZ AUX)
    Blend: AUG-CC-PVTZ-RI
    Molecular point group: c1

    Geometry (in Angstrom), charge = 0, multiplicity = 1:

       Center              X                  Y                   Z               Mass
    ------------   -----------------  -----------------  -----------------  -----------------
         O            3.057208130137    -0.728840575045     0.000061545691    15.994914619570
         N           -1.104132869863    -1.167906575045    -0.000078454309    14.003074004430
         C            0.946245130137     0.052708424955    -0.000013454309    12.000000000000
         C           -0.517982869863     0.052293424955    -0.000002454309    12.000000000000
         C            1.851586130137     1.164743424955    -0.000100454309    12.000000000000
         C           -1.263145869863     1.240252424955     0.000084545691    12.000000000000
         C            1.737172130137    -1.070600575045     0.000079545691    12.000000000000
         C           -2.653904869863     1.169067424955     0.000082545691    12.000000000000
         C            3.158420830137     0.771245224955    -0.000058454309    12.000000000000
         C           -3.263081869863    -0.084770575045     0.000003545691    12.000000000000
         C           -2.444891869863    -1.215891575045    -0.000070454309    12.000000000000
         H            1.612098130137     2.219658424955    -0.000210454309     1.007825032230
         H           -0.761673869863     2.203976424955     0.000159545691     1.007825032230
         H            1.511746130137    -2.125822575045     0.000159545691     1.007825032230
         H            4.101043130137     1.066154424955    -0.000070454309     1.007825032230
         H           -3.250924869863     2.077933424955     0.000146545691     1.007825032230
         H           -4.344449869863    -0.187947575045    -0.000000454309     1.007825032230
         H           -2.879974869863    -2.214284575045    -0.000129454309     1.007825032230

  Basis Set: AUG-CC-PVTZ
    Blend: AUG-CC-PVTZ
  Basis Set: (AUG-CC-PVTZ AUX)
    Blend: AUG-CC-PVTZ-JKFIT
	 Reference Energy          =    -474.3065149411064567 [Eh]
	 Singles Energy            =      -0.0000000000000000 [Eh]
	 Same-Spin Energy          =      -0.5145234071546465 [Eh]
	 Opposite-Spin Energy      =      -1.5601793942592090 [Eh]
	 Correlation Energy        =      -2.0747028014138555 [Eh]
	 Total Energy              =    -476.3812177425203345 [Eh]

	 ================> DF-SCS-MP2 Energies <==================
	-----------------------------------------------------------
	 SCS Same-Spin Scale       =       0.3333333333333333 [-]
	 SCS Opposite-Spin Scale   =       1.2000000000000000 [-]
	 SCS Same-Spin Energy      =      -0.1715078023848822 [Eh]
	 SCS Opposite-Spin Energy  =      -1.8722152731110508 [Eh]
	 SCS Correlation Energy    =      -2.0437230754959330 [Eh]
	 SCS Total Energy          =    -476.3502380166023613 [Eh]
	-----------------------------------------------------------

  Dipole Moment: [D]
     X:    -1.3545      Y:     2.2232      Z:     0.0001     Total:     2.6033

*** Psi4 exiting successfully. Buy a developer a beer!
