                               Psi4 1.4a3.dev225

  ==> Input File <==

--------------------------------------------------------------------------
#psi4
#
memory 32 gb

molecule  {
0 1
  O        3.0870850    -0.7380670     0.0000600
  N       -1.0742560    -1.1771330    -0.0000800
  C        0.9761220     0.0434820    -0.0000150
  C       -0.5381060     0.0430528    -0.0000036
  C        1.8814630     1.1555170    -0.0001020
  C       -1.2332690     1.2310260     0.0000830
  C        1.7670490    -1.0798270     0.0000780
  C       -2.6240280     1.1598410     0.0000810
  C        3.1400070     0.6275730    -0.0000460
  C       -3.2332050    -0.0939970     0.0000020
  C       -2.4150150    -1.2251180    -0.0000720
  H        1.6419750     2.2104320    -0.0002120
  H       -0.7317970     2.1947500     0.0001580
  H        1.5416230    -2.1350490     0.0001580
  H        4.1309200     1.0569280    -0.0000720
  H       -3.2210480     2.0687070     0.0001450
  H       -4.3145730    -0.1971740    -0.0000020
  H       -2.8500980    -2.2235110    -0.0001310
units angstrom
no_reorient  #important for SAPT in psi4, default
symmetry c1  #important for SAPT in psi4, default
}

set PROPERTIES_ORIGIN ["COM"]
properties('MP2/aug-cc-pvtz', properties = ['dipole'])
--------------------------------------------------------------------------

    Molecular point group: c1
  Charge       = 0
  Multiplicity = 1
  Basis Set: AUG-CC-PVTZ
    Blend: AUG-CC-PVTZ
  Basis Set: (AUG-CC-PVTZ AUX)
    Blend: AUG-CC-PVTZ-JKFIT

    Orbital Energies [Eh]
    ---------------------

    Doubly Occupied:

       1A    -20.625733     2A    -15.566702     3A    -11.291024
       4A    -11.290916     5A    -11.289611     6A    -11.281327
       7A    -11.265236     8A    -11.242584     9A    -11.241980
      10A    -11.238889    11A    -11.234939    12A     -1.455927
      13A     -1.267790    14A     -1.099425    15A     -1.093820
      16A     -1.035001    17A     -0.996661    18A     -0.871213
      19A     -0.867178    20A     -0.794223    21A     -0.775241
      22A     -0.742769    23A     -0.688537    24A     -0.666399
      25A     -0.646342    26A     -0.632808    27A     -0.605185
      28A     -0.585290    29A     -0.573987    30A     -0.570069
      31A     -0.554037    32A     -0.535669    33A     -0.514878
      34A     -0.428031    35A     -0.420007    36A     -0.386514
      37A     -0.349398    38A     -0.301148

  @DF-RHF Final Energy:  -474.32983483743328

   => Energetics <=

    Nuclear Repulsion Energy =            539.9793491763638258
    One-Electron Energy =               -1714.5653939999372142
    Two-Electron Energy =                 700.2562099861402203
    Total Energy =                       -474.3298348374332818
  Basis Set: (AUG-CC-PVTZ AUX)
    Blend: AUG-CC-PVTZ-RI
    Molecular point group: c1

    Geometry (in Angstrom), charge = 0, multiplicity = 1:

       Center              X                  Y                   Z               Mass
    ------------   -----------------  -----------------  -----------------  -----------------
         O            3.065339573956    -0.717716898686     0.000060354400    15.994914619570
         N           -1.096001426044    -1.156782898686    -0.000079645600    14.003074004430
         C            0.954376573956     0.063832101314    -0.000014645600    12.000000000000
         C           -0.559851426044     0.063402901314    -0.000003245600    12.000000000000
         C            1.859717573956     1.175867101314    -0.000101645600    12.000000000000
         C           -1.255014426044     1.251376101314     0.000083354400    12.000000000000
         C            1.745303573956    -1.059476898686     0.000078354400    12.000000000000
         C           -2.645773426044     1.180191101314     0.000081354400    12.000000000000
         C            3.118261573956     0.647923101314    -0.000045645600    12.000000000000
         C           -3.254950426044    -0.073646898686     0.000002354400    12.000000000000
         C           -2.436760426044    -1.204767898686    -0.000071645600    12.000000000000
         H            1.620229573956     2.230782101314    -0.000211645600     1.007825032230
         H           -0.753542426044     2.215100101314     0.000158354400     1.007825032230
         H            1.519877573956    -2.114698898686     0.000158354400     1.007825032230
         H            4.109174573956     1.077278101314    -0.000071645600     1.007825032230
         H           -3.242793426044     2.089057101314     0.000145354400     1.007825032230
         H           -4.336318426044    -0.176823898686    -0.000001645600     1.007825032230
         H           -2.871843426044    -2.203160898686    -0.000130645600     1.007825032230

  Basis Set: AUG-CC-PVTZ
    Blend: AUG-CC-PVTZ
  Basis Set: (AUG-CC-PVTZ AUX)
    Blend: AUG-CC-PVTZ-JKFIT
	 Reference Energy          =    -474.3298348374332818 [Eh]
	 Singles Energy            =      -0.0000000000000000 [Eh]
	 Same-Spin Energy          =      -0.5135907615473200 [Eh]
	 Opposite-Spin Energy      =      -1.5559693606999927 [Eh]
	 Correlation Energy        =      -2.0695601222473128 [Eh]
	 Total Energy              =    -476.3993949596805919 [Eh]

	 ================> DF-SCS-MP2 Energies <==================
	-----------------------------------------------------------
	 SCS Same-Spin Scale       =       0.3333333333333333 [-]
	 SCS Opposite-Spin Scale   =       1.2000000000000000 [-]
	 SCS Same-Spin Energy      =      -0.1711969205157733 [Eh]
	 SCS Opposite-Spin Energy  =      -1.8671632328399912 [Eh]
	 SCS Correlation Energy    =      -2.0383601533557645 [Eh]
	 SCS Total Energy          =    -476.3681949907890498 [Eh]
	-----------------------------------------------------------

  Dipole Moment: [D]
     X:    -1.5963      Y:     2.0229      Z:     0.0001     Total:     2.5769

*** Psi4 exiting successfully. Buy a developer a beer!
