                               Psi4 1.4a3.dev225

  ==> Input File <==

--------------------------------------------------------------------------
#psi4
#
memory 32 gb

molecule  {
0 1
  O        3.0870850    -0.7380670     0.0000600
  N       -1.0742560    -1.1771330    -0.0000800
  C        0.9761220     0.0434820    -0.0000150
  C       -0.4881060     0.0430670    -0.0000040
  C        1.8814630     1.1555170    -0.0001020
  C       -1.2332690     1.2310260     0.0000830
  C        1.7670490    -1.0798270     0.0000780
  C       -2.6240280     1.1598410     0.0000810
  C        3.1584500     0.6198364    -0.0000452
  C       -3.2332050    -0.0939970     0.0000020
  C       -2.4150150    -1.2251180    -0.0000720
  H        1.6419750     2.2104320    -0.0002120
  H       -0.7317970     2.1947500     0.0001580
  H        1.5416230    -2.1350490     0.0001580
  H        4.1309200     1.0569280    -0.0000720
  H       -3.2210480     2.0687070     0.0001450
  H       -4.3145730    -0.1971740    -0.0000020
  H       -2.8500980    -2.2235110    -0.0001310
units angstrom
no_reorient  #important for SAPT in psi4, default
symmetry c1  #important for SAPT in psi4, default
}

set PROPERTIES_ORIGIN ["COM"]
properties('MP2/aug-cc-pvtz', properties = ['dipole'])
--------------------------------------------------------------------------

    Molecular point group: c1
  Charge       = 0
  Multiplicity = 1
  Basis Set: AUG-CC-PVTZ
    Blend: AUG-CC-PVTZ
  Basis Set: (AUG-CC-PVTZ AUX)
    Blend: AUG-CC-PVTZ-JKFIT

    Orbital Energies [Eh]
    ---------------------

    Doubly Occupied:

       1A    -20.630062     2A    -15.565938     3A    -11.294536
       4A    -11.293606     5A    -11.292404     6A    -11.279580
       7A    -11.263439     8A    -11.243560     9A    -11.241330
      10A    -11.239781    11A    -11.238761    12A     -1.461113
      13A     -1.258784    14A     -1.104024    15A     -1.088677
      16A     -1.031617    17A     -0.999184    18A     -0.875635
      19A     -0.863749    20A     -0.796677    21A     -0.778370
      22A     -0.745735    23A     -0.687474    24A     -0.662830
      25A     -0.646399    26A     -0.636517    27A     -0.611659
      28A     -0.586535    29A     -0.575207    30A     -0.569662
      31A     -0.549113    32A     -0.536550    33A     -0.520747
      34A     -0.424136    35A     -0.422188    36A     -0.383627
      37A     -0.345760    38A     -0.298859

  @DF-RHF Final Energy:  -474.32994506101028

   => Energetics <=

    Nuclear Repulsion Energy =            539.6235002735544413
    One-Electron Energy =               -1713.8192468033996647
    Two-Electron Energy =                 699.8658014688348885
    Total Energy =                       -474.3299450610102213
  Basis Set: (AUG-CC-PVTZ AUX)
    Blend: AUG-CC-PVTZ-RI
    Molecular point group: c1

    Geometry (in Angstrom), charge = 0, multiplicity = 1:

       Center              X                  Y                   Z               Mass
    ------------   -----------------  -----------------  -----------------  -----------------
         O            3.059677386086    -0.717078035988     0.000060321309    15.994914619570
         N           -1.101663613914    -1.156144035988    -0.000079678691    14.003074004430
         C            0.948714386086     0.064470964012    -0.000014678691    12.000000000000
         C           -0.515513613914     0.064055964012    -0.000003678691    12.000000000000
         C            1.854055386086     1.176505964012    -0.000101678691    12.000000000000
         C           -1.260676613914     1.252014964012     0.000083321309    12.000000000000
         C            1.739641386086    -1.058838035988     0.000078321309    12.000000000000
         C           -2.651435613914     1.180829964012     0.000081321309    12.000000000000
         C            3.131042386086     0.640825364012    -0.000044878691    12.000000000000
         C           -3.260612613914    -0.073008035988     0.000002321309    12.000000000000
         C           -2.442422613914    -1.204129035988    -0.000071678691    12.000000000000
         H            1.614567386086     2.231420964012    -0.000211678691     1.007825032230
         H           -0.759204613914     2.215738964012     0.000158321309     1.007825032230
         H            1.514215386086    -2.114060035988     0.000158321309     1.007825032230
         H            4.103512386086     1.077916964012    -0.000071678691     1.007825032230
         H           -3.248455613914     2.089695964012     0.000145321309     1.007825032230
         H           -4.341980613914    -0.176185035988    -0.000001678691     1.007825032230
         H           -2.877505613914    -2.202522035988    -0.000130678691     1.007825032230

  Basis Set: AUG-CC-PVTZ
    Blend: AUG-CC-PVTZ
  Basis Set: (AUG-CC-PVTZ AUX)
    Blend: AUG-CC-PVTZ-JKFIT
	 Reference Energy          =    -474.3299450610102781 [Eh]
	 Singles Energy            =      -0.0000000000000000 [Eh]
	 Same-Spin Energy          =      -0.5144715680134666 [Eh]
	 Opposite-Spin Energy      =      -1.5572938773522798 [Eh]
	 Correlation Energy        =      -2.0717654453657461 [Eh]
	 Total Energy              =    -476.4017105063760482 [Eh]

	 ================> DF-SCS-MP2 Energies <==================
	-----------------------------------------------------------
	 SCS Same-Spin Scale       =       0.3333333333333333 [-]
	 SCS Opposite-Spin Scale   =       1.2000000000000000 [-]
	 SCS Same-Spin Energy      =      -0.1714905226711555 [Eh]
	 SCS Opposite-Spin Energy  =      -1.8687526528227356 [Eh]
	 SCS Correlation Energy    =      -2.0402431754938912 [Eh]
	 SCS Total Energy          =    -476.3701882365041911 [Eh]
	-----------------------------------------------------------

  Dipole Moment: [D]
     X:    -1.3415      Y:     1.9939      Z:     0.0001     Total:     2.4032

*** Psi4 exiting successfully. Buy a developer a beer!
