                               Psi4 1.3.2 release

  ==> Input File <==

--------------------------------------------------------------------------
#psi4
#
memory 32 gb

molecule  {
0 1
  O        3.0870850    -0.7380670     0.0000600
  N       -1.0742560    -1.1771330    -0.0000800
  C        1.0158067     0.0704007    -0.0000168
  C       -0.4881060     0.0430670    -0.0000040
  C        1.8814630     1.1555170    -0.0001020
  C       -1.2332690     1.2310260     0.0000830
  C        1.7670490    -1.0798270     0.0000780
  C       -2.6240280     1.1598410     0.0000810
  C        3.1400070     0.6275730    -0.0000460
  C       -3.2332050    -0.0939970     0.0000020
  C       -2.4150150    -1.2251180    -0.0000720
  H        1.6419750     2.2104320    -0.0002120
  H       -0.7317970     2.1947500     0.0001580
  H        1.5416230    -2.1350490     0.0001580
  H        4.1309200     1.0569280    -0.0000720
  H       -3.2210480     2.0687070     0.0001450
  H       -4.3145730    -0.1971740    -0.0000020
  H       -2.8500980    -2.2235110    -0.0001310
units angstrom
no_reorient  #important for SAPT in psi4, default
symmetry c1  #important for SAPT in psi4, default
}

set PROPERTIES_ORIGIN ["COM"]
properties('MP2/aug-cc-pvtz', properties = ['dipole'])
--------------------------------------------------------------------------

    Molecular point group: c1
  Charge       = 0
  Multiplicity = 1
  Basis Set: AUG-CC-PVTZ
    Blend: AUG-CC-PVTZ
  Basis Set: (AUG-CC-PVTZ AUX)
    Blend: AUG-CC-PVTZ-JKFIT

    Orbital Energies [Eh]
    ---------------------

    Doubly Occupied:

       1A    -20.628717     2A    -15.566374     3A    -11.294561
       4A    -11.292867     5A    -11.291050     6A    -11.279707
       7A    -11.263148     8A    -11.242909     9A    -11.241128
      10A    -11.237845    11A    -11.233700    12A     -1.459451
      13A     -1.257489    14A     -1.109824    15A     -1.088507
      16A     -1.034774    17A     -0.997214    18A     -0.870877
      19A     -0.862524    20A     -0.796317    21A     -0.780564
      22A     -0.744800    23A     -0.687434    24A     -0.661709
      25A     -0.643856    26A     -0.635989    27A     -0.606632
      28A     -0.585195    29A     -0.581062    30A     -0.567841
      31A     -0.547591    32A     -0.542441    33A     -0.518448
      34A     -0.426247    35A     -0.421048    36A     -0.384215
      37A     -0.348536    38A     -0.298639

  @DF-RHF Final Energy:  -474.32782342380295

   => Energetics <=

    Nuclear Repulsion Energy =            539.8959370212967315
    One-Electron Energy =               -1714.3850584806259576
    Two-Electron Energy =                 700.1612980355262152
    Total Energy =                       -474.3278234238030109
  Basis Set: (AUG-CC-PVTZ AUX)
    Blend: AUG-CC-PVTZ-RI
    Molecular point group: c1

    Geometry (in Angstrom), charge = 0, multiplicity = 1:

       Center              X                  Y                   Z               Mass
    ------------   -----------------  -----------------  -----------------  -----------------
         O            3.057920091752    -0.719945017554     0.000060536403    15.994914619570
         N           -1.103420908248    -1.159011017554    -0.000079463597    14.003074004430
         C            0.986641791752     0.088522682446    -0.000016263597    12.000000000000
         C           -0.517270908248     0.061188982446    -0.000003463597    12.000000000000
         C            1.852298091752     1.173638982446    -0.000101463597    12.000000000000
         C           -1.262433908248     1.249147982446     0.000083536403    12.000000000000
         C            1.737884091752    -1.061705017554     0.000078536403    12.000000000000
         C           -2.653192908248     1.177962982446     0.000081536403    12.000000000000
         C            3.110842091752     0.645694982446    -0.000045463597    12.000000000000
         C           -3.262369908248    -0.075875017554     0.000002536403    12.000000000000
         C           -2.444179908248    -1.206996017554    -0.000071463597    12.000000000000
         H            1.612810091752     2.228553982446    -0.000211463597     1.007825032230
         H           -0.760961908248     2.212871982446     0.000158536403     1.007825032230
         H            1.512458091752    -2.116927017554     0.000158536403     1.007825032230
         H            4.101755091752     1.075049982446    -0.000071463597     1.007825032230
         H           -3.250212908248     2.086828982446     0.000145536403     1.007825032230
         H           -4.343737908248    -0.179052017554    -0.000001463597     1.007825032230
         H           -2.879262908248    -2.205389017554    -0.000130463597     1.007825032230

  Basis Set: AUG-CC-PVTZ
    Blend: AUG-CC-PVTZ
  Basis Set: (AUG-CC-PVTZ AUX)
    Blend: AUG-CC-PVTZ-JKFIT
	 Reference Energy          =    -474.3278234238029540 [Eh]
	 Singles Energy            =      -0.0000000000000000 [Eh]
	 Same-Spin Energy          =      -0.5146255789066896 [Eh]
	 Opposite-Spin Energy      =      -1.5571077116440524 [Eh]
	 Correlation Energy        =      -2.0717332905507417 [Eh]
	 Total Energy              =    -476.3995567143537073 [Eh]

	 ================> DF-SCS-MP2 Energies <==================
	-----------------------------------------------------------
	 SCS Same-Spin Scale       =       0.3333333333333333 [-]
	 SCS Opposite-Spin Scale   =       1.2000000000000000 [-]
	 SCS Same-Spin Energy      =      -0.1715418596355632 [Eh]
	 SCS Opposite-Spin Energy  =      -1.8685292539728628 [Eh]
	 SCS Correlation Energy    =      -2.0400711136084260 [Eh]
	 SCS Total Energy          =    -476.3678945374113596 [Eh]
	-----------------------------------------------------------

  Dipole Moment: [D]
     X:    -1.3552      Y:     2.0304      Z:     0.0001     Total:     2.4411

*** Psi4 exiting successfully. Buy a developer a beer!
