                               Psi4 1.4a3.dev225

  ==> Input File <==

--------------------------------------------------------------------------
#psi4
#
memory 32 gb

molecule  {
0 1
  O        3.0870850    -0.7380670     0.0000600
  N       -1.0742560    -1.1771330    -0.0000800
  C        0.9761220     0.0434820    -0.0000150
  C       -0.4881060     0.0430670    -0.0000040
  C        1.8814630     1.1555170    -0.0001020
  C       -1.2598378     1.2733828     0.0000861
  C        1.7670490    -1.0798270     0.0000780
  C       -2.6240280     1.1598410     0.0000810
  C        3.1400070     0.6275730    -0.0000460
  C       -3.2332050    -0.0939970     0.0000020
  C       -2.4150150    -1.2251180    -0.0000720
  H        1.6419750     2.2104320    -0.0002120
  H       -0.7317970     2.1947500     0.0001580
  H        1.5416230    -2.1350490     0.0001580
  H        4.1309200     1.0569280    -0.0000720
  H       -3.2210480     2.0687070     0.0001450
  H       -4.3145730    -0.1971740    -0.0000020
  H       -2.8500980    -2.2235110    -0.0001310
units angstrom
no_reorient  #important for SAPT in psi4, default
symmetry c1  #important for SAPT in psi4, default
}

set PROPERTIES_ORIGIN ["COM"]
properties('MP2/aug-cc-pvtz', properties = ['dipole'])
--------------------------------------------------------------------------

    Molecular point group: c1
  Charge       = 0
  Multiplicity = 1
  Basis Set: AUG-CC-PVTZ
    Blend: AUG-CC-PVTZ
  Basis Set: (AUG-CC-PVTZ AUX)
    Blend: AUG-CC-PVTZ-JKFIT

    Orbital Energies [Eh]
    ---------------------

    Doubly Occupied:

       1A    -20.630199     2A    -15.565587     3A    -11.298833
       4A    -11.295791     5A    -11.294463     6A    -11.278461
       7A    -11.259471     8A    -11.244077     9A    -11.240550
      10A    -11.239627    11A    -11.238563    12A     -1.460353
      13A     -1.256570    14A     -1.105899    15A     -1.090809
      16A     -1.031773    17A     -0.997998    18A     -0.877485
      19A     -0.860606    20A     -0.797517    21A     -0.777175
      22A     -0.744558    23A     -0.689903    24A     -0.661436
      25A     -0.647701    26A     -0.636913    27A     -0.607502
      28A     -0.586944    29A     -0.575987    30A     -0.567937
      31A     -0.546548    32A     -0.539747    33A     -0.525971
      34A     -0.425393    35A     -0.419253    36A     -0.387098
      37A     -0.347076    38A     -0.297636

  @DF-RHF Final Energy:  -474.32802355009721

   => Energetics <=

    Nuclear Repulsion Energy =            539.1610399256218216
    One-Electron Energy =               -1712.8793093135398067
    Two-Electron Energy =                 699.3902458378208848
    Total Energy =                       -474.3280235500972140
  Basis Set: (AUG-CC-PVTZ AUX)
    Blend: AUG-CC-PVTZ-RI
    Molecular point group: c1

    Geometry (in Angstrom), charge = 0, multiplicity = 1:

       Center              X                  Y                   Z               Mass
    ------------   -----------------  -----------------  -----------------  -----------------
         O            3.063401145535    -0.721222188668     0.000060131033    15.994914619570
         N           -1.097939854465    -1.160288188668    -0.000079868967    14.003074004430
         C            0.952438145535     0.060326811332    -0.000014868967    12.000000000000
         C           -0.511789854465     0.059911811332    -0.000003868967    12.000000000000
         C            1.857779145535     1.172361811332    -0.000101868967    12.000000000000
         C           -1.283521654465     1.290227611332     0.000086231033    12.000000000000
         C            1.743365145535    -1.062982188668     0.000078131033    12.000000000000
         C           -2.647711854465     1.176685811332     0.000081131033    12.000000000000
         C            3.116323145535     0.644417811332    -0.000045868967    12.000000000000
         C           -3.256888854465    -0.077152188668     0.000002131033    12.000000000000
         C           -2.438698854465    -1.208273188668    -0.000071868967    12.000000000000
         H            1.618291145535     2.227276811332    -0.000211868967     1.007825032230
         H           -0.755480854465     2.211594811332     0.000158131033     1.007825032230
         H            1.517939145535    -2.118204188668     0.000158131033     1.007825032230
         H            4.107236145535     1.073772811332    -0.000071868967     1.007825032230
         H           -3.244731854465     2.085551811332     0.000145131033     1.007825032230
         H           -4.338256854465    -0.180329188668    -0.000001868967     1.007825032230
         H           -2.873781854465    -2.206666188668    -0.000130868967     1.007825032230

  Basis Set: AUG-CC-PVTZ
    Blend: AUG-CC-PVTZ
  Basis Set: (AUG-CC-PVTZ AUX)
    Blend: AUG-CC-PVTZ-JKFIT
	 Reference Energy          =    -474.3280235500972140 [Eh]
	 Singles Energy            =      -0.0000000000000000 [Eh]
	 Same-Spin Energy          =      -0.5141278559169407 [Eh]
	 Opposite-Spin Energy      =      -1.5569843556623169 [Eh]
	 Correlation Energy        =      -2.0711122115792575 [Eh]
	 Total Energy              =    -476.3991357616764617 [Eh]

	 ================> DF-SCS-MP2 Energies <==================
	-----------------------------------------------------------
	 SCS Same-Spin Scale       =       0.3333333333333333 [-]
	 SCS Opposite-Spin Scale   =       1.2000000000000000 [-]
	 SCS Same-Spin Energy      =      -0.1713759519723135 [Eh]
	 SCS Opposite-Spin Energy  =      -1.8683812267947801 [Eh]
	 SCS Correlation Energy    =      -2.0397571787670938 [Eh]
	 SCS Total Energy          =    -476.3677807288643180 [Eh]
	-----------------------------------------------------------

  Dipole Moment: [D]
     X:    -1.2463      Y:     2.0221      Z:     0.0001     Total:     2.3753

*** Psi4 exiting successfully. Buy a developer a beer!
