                               Psi4 1.3.2 release

  ==> Input File <==

--------------------------------------------------------------------------
#psi4
#
memory 32 gb

molecule  {
0 1
  O        3.0870850    -0.7380670     0.0000600
  N       -1.0742560    -1.1771330    -0.0000800
  C        0.9752445    -0.0076191    -0.0000185
  C       -0.4881060     0.0430670    -0.0000040
  C        1.8814630     1.1555170    -0.0001020
  C       -1.2332690     1.2310260     0.0000830
  C        1.7670490    -1.0798270     0.0000780
  C       -2.6240280     1.1598410     0.0000810
  C        3.1400070     0.6275730    -0.0000460
  C       -3.2332050    -0.0939970     0.0000020
  C       -2.4150150    -1.2251180    -0.0000720
  H        1.6419750     2.2104320    -0.0002120
  H       -0.7317970     2.1947500     0.0001580
  H        1.5416230    -2.1350490     0.0001580
  H        4.1309200     1.0569280    -0.0000720
  H       -3.2210480     2.0687070     0.0001450
  H       -4.3145730    -0.1971740    -0.0000020
  H       -2.8500980    -2.2235110    -0.0001310
units angstrom
no_reorient  #important for SAPT in psi4, default
symmetry c1  #important for SAPT in psi4, default
}

set PROPERTIES_ORIGIN ["COM"]
properties('MP2/aug-cc-pvtz', properties = ['dipole'])
--------------------------------------------------------------------------

    Molecular point group: c1
  Charge       = 0
  Multiplicity = 1
  Basis Set: AUG-CC-PVTZ
    Blend: AUG-CC-PVTZ
  Basis Set: (AUG-CC-PVTZ AUX)
    Blend: AUG-CC-PVTZ-JKFIT

    Orbital Energies [Eh]
    ---------------------

    Doubly Occupied:

       1A    -20.624527     2A    -15.565619     3A    -11.293814
       4A    -11.292514     5A    -11.288136     6A    -11.279392
       7A    -11.264172     8A    -11.245009     9A    -11.241904
      10A    -11.238554    11A    -11.236791    12A     -1.457246
      13A     -1.259296    14A     -1.103693    15A     -1.088969
      16A     -1.031896    17A     -1.003124    18A     -0.875453
      19A     -0.863878    20A     -0.799231    21A     -0.773340
      22A     -0.744711    23A     -0.686609    24A     -0.663059
      25A     -0.647138    26A     -0.635503    27A     -0.606098
      28A     -0.587207    29A     -0.574997    30A     -0.570028
      31A     -0.549276    32A     -0.537483    33A     -0.515566
      34A     -0.423407    35A     -0.422979    36A     -0.383650
      37A     -0.348466    38A     -0.305703

  @DF-RHF Final Energy:  -474.33090123617438

   => Energetics <=

    Nuclear Repulsion Energy =            539.9925063504896343
    One-Electron Energy =               -1714.5899364748311200
    Two-Electron Energy =                 700.2665288881669312
    Total Energy =                       -474.3309012361744408
  Basis Set: (AUG-CC-PVTZ AUX)
    Blend: AUG-CC-PVTZ-RI
    Molecular point group: c1

    Geometry (in Angstrom), charge = 0, multiplicity = 1:

       Center              X                  Y                   Z               Mass
    ------------   -----------------  -----------------  -----------------  -----------------
         O            3.061275742393    -0.713490555225     0.000060677042    15.994914619570
         N           -1.100065257607    -1.152556555225    -0.000079322958    14.003074004430
         C            0.949435242393     0.016957344775    -0.000017822958    12.000000000000
         C           -0.513915257607     0.067643444775    -0.000003322958    12.000000000000
         C            1.855653742393     1.180093444775    -0.000101322958    12.000000000000
         C           -1.259078257607     1.255602444775     0.000083677042    12.000000000000
         C            1.741239742393    -1.055250555225     0.000078677042    12.000000000000
         C           -2.649837257607     1.184417444775     0.000081677042    12.000000000000
         C            3.114197742393     0.652149444775    -0.000045322958    12.000000000000
         C           -3.259014257607    -0.069420555225     0.000002677042    12.000000000000
         C           -2.440824257607    -1.200541555225    -0.000071322958    12.000000000000
         H            1.616165742393     2.235008444775    -0.000211322958     1.007825032230
         H           -0.757606257607     2.219326444775     0.000158677042     1.007825032230
         H            1.515813742393    -2.110472555225     0.000158677042     1.007825032230
         H            4.105110742393     1.081504444775    -0.000071322958     1.007825032230
         H           -3.246857257607     2.093283444775     0.000145677042     1.007825032230
         H           -4.340382257607    -0.172597555225    -0.000001322958     1.007825032230
         H           -2.875907257607    -2.198934555225    -0.000130322958     1.007825032230

  Basis Set: AUG-CC-PVTZ
    Blend: AUG-CC-PVTZ
  Basis Set: (AUG-CC-PVTZ AUX)
    Blend: AUG-CC-PVTZ-JKFIT
	 Reference Energy          =    -474.3309012361743839 [Eh]
	 Singles Energy            =      -0.0000000000000000 [Eh]
	 Same-Spin Energy          =      -0.5129910268594291 [Eh]
	 Opposite-Spin Energy      =      -1.5555095968855732 [Eh]
	 Correlation Energy        =      -2.0685006237450025 [Eh]
	 Total Energy              =    -476.3994018599194078 [Eh]

	 ================> DF-SCS-MP2 Energies <==================
	-----------------------------------------------------------
	 SCS Same-Spin Scale       =       0.3333333333333333 [-]
	 SCS Opposite-Spin Scale   =       1.2000000000000000 [-]
	 SCS Same-Spin Energy      =      -0.1709970089531430 [Eh]
	 SCS Opposite-Spin Energy  =      -1.8666115162626877 [Eh]
	 SCS Correlation Energy    =      -2.0376085252158309 [Eh]
	 SCS Total Energy          =    -476.3685097613902144 [Eh]
	-----------------------------------------------------------

  Dipole Moment: [D]
     X:    -1.4102      Y:     2.0253      Z:     0.0001     Total:     2.4679

*** Psi4 exiting successfully. Buy a developer a beer!
