                               Psi4 1.3.2 release

  ==> Input File <==

--------------------------------------------------------------------------
#psi4
#
memory 32 gb

molecule  {
0 1
  O        3.0870850    -0.7380670     0.0000600
  N       -1.0742560    -1.1771330    -0.0000800
  C        0.9761220     0.0434820    -0.0000150
  C       -0.4881060     0.0430670    -0.0000040
  C        1.9213563     1.2420225    -0.0001088
  C       -1.2332690     1.2310260     0.0000830
  C        1.7670490    -1.0798270     0.0000780
  C       -2.6240280     1.1598410     0.0000810
  C        3.1400070     0.6275730    -0.0000460
  C       -3.2332050    -0.0939970     0.0000020
  C       -2.4150150    -1.2251180    -0.0000720
  H        1.6419750     2.2104320    -0.0002120
  H       -0.7317970     2.1947500     0.0001580
  H        1.5416230    -2.1350490     0.0001580
  H        4.1309200     1.0569280    -0.0000720
  H       -3.2210480     2.0687070     0.0001450
  H       -4.3145730    -0.1971740    -0.0000020
  H       -2.8500980    -2.2235110    -0.0001310
units angstrom
no_reorient  #important for SAPT in psi4, default
symmetry c1  #important for SAPT in psi4, default
}

set PROPERTIES_ORIGIN ["COM"]
properties('MP2/aug-cc-pvtz', properties = ['dipole'])
--------------------------------------------------------------------------

    Molecular point group: c1
  Charge       = 0
  Multiplicity = 1
  Basis Set: AUG-CC-PVTZ
    Blend: AUG-CC-PVTZ
  Basis Set: (AUG-CC-PVTZ AUX)
    Blend: AUG-CC-PVTZ-JKFIT

    Orbital Energies [Eh]
    ---------------------

    Doubly Occupied:

       1A    -20.628937     2A    -15.564861     3A    -11.299020
       4A    -11.294939     5A    -11.291494     6A    -11.279061
       7A    -11.262950     8A    -11.245466     9A    -11.242930
      10A    -11.240445    11A    -11.239788    12A     -1.458298
      13A     -1.257799    14A     -1.094817    15A     -1.087575
      16A     -1.033594    17A     -0.998682    18A     -0.875410
      19A     -0.862838    20A     -0.806883    21A     -0.772157
      22A     -0.745562    23A     -0.686249    24A     -0.664386
      25A     -0.649650    26A     -0.635248    27A     -0.608818
      28A     -0.592778    29A     -0.582410    30A     -0.568567
      31A     -0.548158    32A     -0.529964    33A     -0.511120
      34A     -0.421334    35A     -0.418170    36A     -0.382960
      37A     -0.351461    38A     -0.300563

  @DF-RHF Final Energy:  -474.32172732606057

   => Energetics <=

    Nuclear Repulsion Energy =            538.1396957997802701
    One-Electron Energy =               -1710.8521618244344609
    Two-Electron Energy =                 698.3907386985935091
    Total Energy =                       -474.3217273260605680
  Basis Set: (AUG-CC-PVTZ AUX)
    Blend: AUG-CC-PVTZ-RI
    Molecular point group: c1

    Geometry (in Angstrom), charge = 0, multiplicity = 1:

       Center              X                  Y                   Z               Mass
    ------------   -----------------  -----------------  -----------------  -----------------
         O            3.057902834584    -0.724874545134     0.000060950046    15.994914619570
         N           -1.103438165416    -1.163940545134    -0.000079049954    14.003074004430
         C            0.946939834584     0.056674454866    -0.000014049954    12.000000000000
         C           -0.517288165416     0.056259454866    -0.000003049954    12.000000000000
         C            1.892174134584     1.255214954866    -0.000107849954    12.000000000000
         C           -1.262451165416     1.244218454866     0.000083950046    12.000000000000
         C            1.737866834584    -1.066634545134     0.000078950046    12.000000000000
         C           -2.653210165416     1.173033454866     0.000081950046    12.000000000000
         C            3.110824834584     0.640765454866    -0.000045049954    12.000000000000
         C           -3.262387165416    -0.080804545134     0.000002950046    12.000000000000
         C           -2.444197165416    -1.211925545134    -0.000071049954    12.000000000000
         H            1.612792834584     2.223624454866    -0.000211049954     1.007825032230
         H           -0.760979165416     2.207942454866     0.000158950046     1.007825032230
         H            1.512440834584    -2.121856545134     0.000158950046     1.007825032230
         H            4.101737834584     1.070120454866    -0.000071049954     1.007825032230
         H           -3.250230165416     2.081899454866     0.000145950046     1.007825032230
         H           -4.343755165416    -0.183981545134    -0.000001049954     1.007825032230
         H           -2.879280165416    -2.210318545134    -0.000130049954     1.007825032230

  Basis Set: AUG-CC-PVTZ
    Blend: AUG-CC-PVTZ
  Basis Set: (AUG-CC-PVTZ AUX)
    Blend: AUG-CC-PVTZ-JKFIT
	 Reference Energy          =    -474.3217273260605680 [Eh]
	 Singles Energy            =      -0.0000000000000000 [Eh]
	 Same-Spin Energy          =      -0.5129637812651027 [Eh]
	 Opposite-Spin Energy      =      -1.5565135958478835 [Eh]
	 Correlation Energy        =      -2.0694773771129862 [Eh]
	 Total Energy              =    -476.3912047031735710 [Eh]

	 ================> DF-SCS-MP2 Energies <==================
	-----------------------------------------------------------
	 SCS Same-Spin Scale       =       0.3333333333333333 [-]
	 SCS Opposite-Spin Scale   =       1.2000000000000000 [-]
	 SCS Same-Spin Energy      =      -0.1709879270883675 [Eh]
	 SCS Opposite-Spin Energy  =      -1.8678163150174600 [Eh]
	 SCS Correlation Energy    =      -2.0388042421058277 [Eh]
	 SCS Total Energy          =    -476.3605315681663797 [Eh]
	-----------------------------------------------------------

  Dipole Moment: [D]
     X:    -1.3161      Y:     2.0142      Z:     0.0001     Total:     2.4061

*** Psi4 exiting successfully. Buy a developer a beer!
