                               Psi4 1.3.2 release

  ==> Input File <==

--------------------------------------------------------------------------
#psi4
#
memory 32 gb

molecule  {
0 1
  O        3.0870850    -0.7380670     0.0000600
  N       -1.0742560    -1.1771330    -0.0000800
  C        0.9761220     0.0434820    -0.0000150
  C       -0.5300191     0.0177849    -0.0000057
  C        1.8814630     1.1555170    -0.0001020
  C       -1.2332690     1.2310260     0.0000830
  C        1.7670490    -1.0798270     0.0000780
  C       -2.6240280     1.1598410     0.0000810
  C        3.1400070     0.6275730    -0.0000460
  C       -3.2332050    -0.0939970     0.0000020
  C       -2.4150150    -1.2251180    -0.0000720
  H        1.6419750     2.2104320    -0.0002120
  H       -0.7317970     2.1947500     0.0001580
  H        1.5416230    -2.1350490     0.0001580
  H        4.1309200     1.0569280    -0.0000720
  H       -3.2210480     2.0687070     0.0001450
  H       -4.3145730    -0.1971740    -0.0000020
  H       -2.8500980    -2.2235110    -0.0001310
units angstrom
no_reorient  #important for SAPT in psi4, default
symmetry c1  #important for SAPT in psi4, default
}

set PROPERTIES_ORIGIN ["COM"]
properties('MP2/aug-cc-pvtz', properties = ['dipole'])
--------------------------------------------------------------------------

    Molecular point group: c1
  Charge       = 0
  Multiplicity = 1
  Basis Set: AUG-CC-PVTZ
    Blend: AUG-CC-PVTZ
  Basis Set: (AUG-CC-PVTZ AUX)
    Blend: AUG-CC-PVTZ-JKFIT

    Orbital Energies [Eh]
    ---------------------

    Doubly Occupied:

       1A    -20.626331     2A    -15.564797     3A    -11.291932
       4A    -11.291751     5A    -11.290193     6A    -11.280834
       7A    -11.264028     8A    -11.243978     9A    -11.242061
      10A    -11.238749    11A    -11.236007    12A     -1.456565
      13A     -1.271885    14A     -1.100381    15A     -1.092765
      16A     -1.033486    17A     -0.996799    18A     -0.870504
      19A     -0.867934    20A     -0.795406    21A     -0.775090
      22A     -0.743112    23A     -0.689737    24A     -0.665131
      25A     -0.646253    26A     -0.633453    27A     -0.605157
      28A     -0.584345    29A     -0.575042    30A     -0.570336
      31A     -0.554907    32A     -0.535966    33A     -0.518571
      34A     -0.424967    35A     -0.420929    36A     -0.387220
      37A     -0.347916    38A     -0.300711

  @DF-RHF Final Energy:  -474.33046443254028

   => Energetics <=

    Nuclear Repulsion Energy =            540.0424581251986638
    One-Electron Energy =               -1714.6753883295909873
    Two-Electron Energy =                 700.3024657718520984
    Total Energy =                       -474.3304644325402251
  Basis Set: (AUG-CC-PVTZ AUX)
    Blend: AUG-CC-PVTZ-RI
    Molecular point group: c1

    Geometry (in Angstrom), charge = 0, multiplicity = 1:

       Center              X                  Y                   Z               Mass
    ------------   -----------------  -----------------  -----------------  -----------------
         O            3.064670556714    -0.715626522798     0.000060528130    15.994914619570
         N           -1.096670443286    -1.154692522798    -0.000079471870    14.003074004430
         C            0.953707556714     0.065922477202    -0.000014471870    12.000000000000
         C           -0.552433543286     0.040225377202    -0.000005171870    12.000000000000
         C            1.859048556714     1.177957477202    -0.000101471870    12.000000000000
         C           -1.255683443286     1.253466477202     0.000083528130    12.000000000000
         C            1.744634556714    -1.057386522798     0.000078528130    12.000000000000
         C           -2.646442443286     1.182281477202     0.000081528130    12.000000000000
         C            3.117592556714     0.650013477202    -0.000045471870    12.000000000000
         C           -3.255619443286    -0.071556522798     0.000002528130    12.000000000000
         C           -2.437429443286    -1.202677522798    -0.000071471870    12.000000000000
         H            1.619560556714     2.232872477202    -0.000211471870     1.007825032230
         H           -0.754211443286     2.217190477202     0.000158528130     1.007825032230
         H            1.519208556714    -2.112608522798     0.000158528130     1.007825032230
         H            4.108505556714     1.079368477202    -0.000071471870     1.007825032230
         H           -3.243462443286     2.091147477202     0.000145528130     1.007825032230
         H           -4.336987443286    -0.174733522798    -0.000001471870     1.007825032230
         H           -2.872512443286    -2.201070522798    -0.000130471870     1.007825032230

  Basis Set: AUG-CC-PVTZ
    Blend: AUG-CC-PVTZ
  Basis Set: (AUG-CC-PVTZ AUX)
    Blend: AUG-CC-PVTZ-JKFIT
	 Reference Energy          =    -474.3304644325402819 [Eh]
	 Singles Energy            =      -0.0000000000000000 [Eh]
	 Same-Spin Energy          =      -0.5134991016297972 [Eh]
	 Opposite-Spin Energy      =      -1.5556527038407175 [Eh]
	 Correlation Energy        =      -2.0691518054705149 [Eh]
	 Total Energy              =    -476.3996162380108217 [Eh]

	 ================> DF-SCS-MP2 Energies <==================
	-----------------------------------------------------------
	 SCS Same-Spin Scale       =       0.3333333333333333 [-]
	 SCS Opposite-Spin Scale   =       1.2000000000000000 [-]
	 SCS Same-Spin Energy      =      -0.1711663672099324 [Eh]
	 SCS Opposite-Spin Energy  =      -1.8667832446088610 [Eh]
	 SCS Correlation Energy    =      -2.0379496118187932 [Eh]
	 SCS Total Energy          =    -476.3684140443590991 [Eh]
	-----------------------------------------------------------

  Dipole Moment: [D]
     X:    -1.5255      Y:     2.0130      Z:     0.0001     Total:     2.5257

*** Psi4 exiting successfully. Buy a developer a beer!
