                               Psi4 1.3.2 release

  ==> Input File <==

--------------------------------------------------------------------------
#psi4
#
memory 32 gb

molecule  {
0 1
  O        3.0600295    -0.6468185     0.0000527
  N       -1.0742560    -1.1771330    -0.0000800
  C        0.9761220     0.0434820    -0.0000150
  C       -0.4881060     0.0430670    -0.0000040
  C        1.8814630     1.1555170    -0.0001020
  C       -1.2332690     1.2310260     0.0000830
  C        1.7670490    -1.0798270     0.0000780
  C       -2.6240280     1.1598410     0.0000810
  C        3.1400070     0.6275730    -0.0000460
  C       -3.2332050    -0.0939970     0.0000020
  C       -2.4150150    -1.2251180    -0.0000720
  H        1.6419750     2.2104320    -0.0002120
  H       -0.7317970     2.1947500     0.0001580
  H        1.5416230    -2.1350490     0.0001580
  H        4.1309200     1.0569280    -0.0000720
  H       -3.2210480     2.0687070     0.0001450
  H       -4.3145730    -0.1971740    -0.0000020
  H       -2.8500980    -2.2235110    -0.0001310
units angstrom
no_reorient  #important for SAPT in psi4, default
symmetry c1  #important for SAPT in psi4, default
}

set PROPERTIES_ORIGIN ["COM"]
properties('MP2/aug-cc-pvtz', properties = ['dipole'])
--------------------------------------------------------------------------

    Molecular point group: c1
  Charge       = 0
  Multiplicity = 1
  Basis Set: AUG-CC-PVTZ
    Blend: AUG-CC-PVTZ
  Basis Set: (AUG-CC-PVTZ AUX)
    Blend: AUG-CC-PVTZ-JKFIT

    Orbital Energies [Eh]
    ---------------------

    Doubly Occupied:

       1A    -20.628706     2A    -15.565958     3A    -11.290908
       4A    -11.289201     5A    -11.288184     6A    -11.279072
       7A    -11.262738     8A    -11.242955     9A    -11.241313
      10A    -11.238709    11A    -11.225737    12A     -1.493408
      13A     -1.258353    14A     -1.102112    15A     -1.088100
      16A     -1.031304    17A     -1.011879    18A     -0.879439
      19A     -0.863329    20A     -0.799141    21A     -0.774256
      22A     -0.751385    23A     -0.689727    24A     -0.661346
      25A     -0.654760    26A     -0.647878    27A     -0.623295
      28A     -0.587017    29A     -0.574234    30A     -0.564197
      31A     -0.548870    32A     -0.527142    33A     -0.519985
      34A     -0.421974    35A     -0.421791    36A     -0.382532
      37A     -0.340843    38A     -0.301907

  @DF-RHF Final Energy:  -474.32700206826848

   => Energetics <=

    Nuclear Repulsion Energy =            542.2974337416712842
    One-Electron Energy =               -1719.1015021403609353
    Two-Electron Energy =                 702.4770663304211666
    Total Energy =                       -474.3270020682684844
  Basis Set: (AUG-CC-PVTZ AUX)
    Blend: AUG-CC-PVTZ-RI
    Molecular point group: c1

    Geometry (in Angstrom), charge = 0, multiplicity = 1:

       Center              X                  Y                   Z               Mass
    ------------   -----------------  -----------------  -----------------  -----------------
         O            3.037131048098    -0.636531511776     0.000053892460    15.994914619570
         N           -1.097154451902    -1.166846011776    -0.000078807540    14.003074004430
         C            0.953223548098     0.053768988224    -0.000013807540    12.000000000000
         C           -0.511004451902     0.053353988224    -0.000002807540    12.000000000000
         C            1.858564548098     1.165803988224    -0.000100807540    12.000000000000
         C           -1.256167451902     1.241312988224     0.000084192460    12.000000000000
         C            1.744150548098    -1.069540011776     0.000079192460    12.000000000000
         C           -2.646926451902     1.170127988224     0.000082192460    12.000000000000
         C            3.117108548098     0.637859988224    -0.000044807540    12.000000000000
         C           -3.256103451902    -0.083710011776     0.000003192460    12.000000000000
         C           -2.437913451902    -1.214831011776    -0.000070807540    12.000000000000
         H            1.619076548098     2.220718988224    -0.000210807540     1.007825032230
         H           -0.754695451902     2.205036988224     0.000159192460     1.007825032230
         H            1.518724548098    -2.124762011776     0.000159192460     1.007825032230
         H            4.108021548098     1.067214988224    -0.000070807540     1.007825032230
         H           -3.243946451902     2.078993988224     0.000146192460     1.007825032230
         H           -4.337471451902    -0.186887011776    -0.000000807540     1.007825032230
         H           -2.872996451902    -2.213224011776    -0.000129807540     1.007825032230

  Basis Set: AUG-CC-PVTZ
    Blend: AUG-CC-PVTZ
  Basis Set: (AUG-CC-PVTZ AUX)
    Blend: AUG-CC-PVTZ-JKFIT
	 Reference Energy          =    -474.3270020682684844 [Eh]
	 Singles Energy            =      -0.0000000000000000 [Eh]
	 Same-Spin Energy          =      -0.5142019879165588 [Eh]
	 Opposite-Spin Energy      =      -1.5543292866760869 [Eh]
	 Correlation Energy        =      -2.0685312745926456 [Eh]
	 Total Energy              =    -476.3955333428611425 [Eh]

	 ================> DF-SCS-MP2 Energies <==================
	-----------------------------------------------------------
	 SCS Same-Spin Scale       =       0.3333333333333333 [-]
	 SCS Opposite-Spin Scale   =       1.2000000000000000 [-]
	 SCS Same-Spin Energy      =      -0.1714006626388529 [Eh]
	 SCS Opposite-Spin Energy  =      -1.8651951440113042 [Eh]
	 SCS Correlation Energy    =      -2.0365958066501570 [Eh]
	 SCS Total Energy          =    -476.3635978749186393 [Eh]
	-----------------------------------------------------------

  Dipole Moment: [D]
     X:    -1.1885      Y:     1.7796      Z:     0.0001     Total:     2.1400

*** Psi4 exiting successfully. Buy a developer a beer!
