                               Psi4 1.3.2 release

  ==> Input File <==

--------------------------------------------------------------------------
#psi4
#
memory 32 gb

molecule  {
0 1
  O        3.0928485    -0.7611569     0.0000618
  N       -1.0742560    -1.1771330    -0.0000800
  C        0.9761220     0.0434820    -0.0000150
  C       -0.4881060     0.0430670    -0.0000040
  C        1.8814630     1.1555170    -0.0001020
  C       -1.2332690     1.2310260     0.0000830
  C        1.7670490    -1.0798270     0.0000780
  C       -2.6240280     1.1598410     0.0000810
  C        3.1400070     0.6275730    -0.0000460
  C       -3.2332050    -0.0939970     0.0000020
  C       -2.4150150    -1.2251180    -0.0000720
  H        1.6419750     2.2104320    -0.0002120
  H       -0.7317970     2.1947500     0.0001580
  H        1.5416230    -2.1350490     0.0001580
  H        4.1309200     1.0569280    -0.0000720
  H       -3.2210480     2.0687070     0.0001450
  H       -4.3145730    -0.1971740    -0.0000020
  H       -2.8500980    -2.2235110    -0.0001310
units angstrom
no_reorient  #important for SAPT in psi4, default
symmetry c1  #important for SAPT in psi4, default
}

set PROPERTIES_ORIGIN ["COM"]
properties('MP2/aug-cc-pvtz', properties = ['dipole'])
--------------------------------------------------------------------------

    Molecular point group: c1
  Charge       = 0
  Multiplicity = 1
  Basis Set: AUG-CC-PVTZ
    Blend: AUG-CC-PVTZ
  Basis Set: (AUG-CC-PVTZ AUX)
    Blend: AUG-CC-PVTZ-JKFIT

    Orbital Energies [Eh]
    ---------------------

    Doubly Occupied:

       1A    -20.628593     2A    -15.565608     3A    -11.294966
       4A    -11.294772     5A    -11.292599     6A    -11.279578
       7A    -11.263506     8A    -11.243492     9A    -11.241058
      10A    -11.240385    11A    -11.238914    12A     -1.451423
      13A     -1.258666    14A     -1.106697    15A     -1.088718
      16A     -1.034643    17A     -0.995231    18A     -0.874728
      19A     -0.863305    20A     -0.795312    21A     -0.778499
      22A     -0.743714    23A     -0.686575    24A     -0.662796
      25A     -0.646082    26A     -0.631608    27A     -0.603446
      28A     -0.584633    29A     -0.576452    30A     -0.572714
      31A     -0.548906    32A     -0.540063    33A     -0.520635
      34A     -0.425547    35A     -0.421976    36A     -0.384171
      37A     -0.350468    38A     -0.298344

  @DF-RHF Final Energy:  -474.32949854586025

   => Energetics <=

    Nuclear Repulsion Energy =            539.3137615805811720
    One-Electron Energy =               -1713.2288743644996885
    Two-Electron Energy =                 699.5856142380583833
    Total Energy =                       -474.3294985458602468
  Basis Set: (AUG-CC-PVTZ AUX)
    Blend: AUG-CC-PVTZ-RI
    Molecular point group: c1

    Geometry (in Angstrom), charge = 0, multiplicity = 1:

       Center              X                  Y                   Z               Mass
    ------------   -----------------  -----------------  -----------------  -----------------
         O            3.066331109107    -0.738261858698     0.000061989006    15.994914619570
         N           -1.100773390893    -1.154237958698    -0.000079810994    14.003074004430
         C            0.949604609107     0.066377041302    -0.000014810994    12.000000000000
         C           -0.514623390893     0.065962041302    -0.000003810994    12.000000000000
         C            1.854945609107     1.178412041302    -0.000101810994    12.000000000000
         C           -1.259786390893     1.253921041302     0.000083189006    12.000000000000
         C            1.740531609107    -1.056931958698     0.000078189006    12.000000000000
         C           -2.650545390893     1.182736041302     0.000081189006    12.000000000000
         C            3.113489609107     0.650468041302    -0.000045810994    12.000000000000
         C           -3.259722390893    -0.071101958698     0.000002189006    12.000000000000
         C           -2.441532390893    -1.202222958698    -0.000071810994    12.000000000000
         H            1.615457609107     2.233327041302    -0.000211810994     1.007825032230
         H           -0.758314390893     2.217645041302     0.000158189006     1.007825032230
         H            1.515105609107    -2.112153958698     0.000158189006     1.007825032230
         H            4.104402609107     1.079823041302    -0.000071810994     1.007825032230
         H           -3.247565390893     2.091602041302     0.000145189006     1.007825032230
         H           -4.341090390893    -0.174278958698    -0.000001810994     1.007825032230
         H           -2.876615390893    -2.200615958698    -0.000130810994     1.007825032230

  Basis Set: AUG-CC-PVTZ
    Blend: AUG-CC-PVTZ
  Basis Set: (AUG-CC-PVTZ AUX)
    Blend: AUG-CC-PVTZ-JKFIT
	 Reference Energy          =    -474.3294985458602468 [Eh]
	 Singles Energy            =      -0.0000000000000000 [Eh]
	 Same-Spin Energy          =      -0.5142381831925664 [Eh]
	 Opposite-Spin Energy      =      -1.5576756683914432 [Eh]
	 Correlation Energy        =      -2.0719138515840099 [Eh]
	 Total Energy              =    -476.4014123974442327 [Eh]

	 ================> DF-SCS-MP2 Energies <==================
	-----------------------------------------------------------
	 SCS Same-Spin Scale       =       0.3333333333333333 [-]
	 SCS Opposite-Spin Scale   =       1.2000000000000000 [-]
	 SCS Same-Spin Energy      =      -0.1714127277308555 [Eh]
	 SCS Opposite-Spin Energy  =      -1.8692108020697318 [Eh]
	 SCS Correlation Energy    =      -2.0406235298005875 [Eh]
	 SCS Total Energy          =    -476.3701220756608450 [Eh]
	-----------------------------------------------------------

  Dipole Moment: [D]
     X:    -1.3740      Y:     2.0803      Z:     0.0001     Total:     2.4931

*** Psi4 exiting successfully. Buy a developer a beer!
