                               Psi4 1.3.2 release

  ==> Input File <==

--------------------------------------------------------------------------
#psi4
#
memory 32 gb

molecule  {
0 1
  O        3.0870850    -0.7380670     0.0000600
  N       -1.0742560    -1.1771330    -0.0000800
  C        0.9761220     0.0434820    -0.0000150
  C       -0.4871995    -0.0080336    -0.0000003
  C        1.8814630     1.1555170    -0.0001020
  C       -1.2332690     1.2310260     0.0000830
  C        1.7670490    -1.0798270     0.0000780
  C       -2.6240280     1.1598410     0.0000810
  C        3.1400070     0.6275730    -0.0000460
  C       -3.2332050    -0.0939970     0.0000020
  C       -2.4150150    -1.2251180    -0.0000720
  H        1.6419750     2.2104320    -0.0002120
  H       -0.7317970     2.1947500     0.0001580
  H        1.5416230    -2.1350490     0.0001580
  H        4.1309200     1.0569280    -0.0000720
  H       -3.2210480     2.0687070     0.0001450
  H       -4.3145730    -0.1971740    -0.0000020
  H       -2.8500980    -2.2235110    -0.0001310
units angstrom
no_reorient  #important for SAPT in psi4, default
symmetry c1  #important for SAPT in psi4, default
}

set PROPERTIES_ORIGIN ["COM"]
properties('MP2/aug-cc-pvtz', properties = ['dipole'])
--------------------------------------------------------------------------

    Molecular point group: c1
  Charge       = 0
  Multiplicity = 1
  Basis Set: AUG-CC-PVTZ
    Blend: AUG-CC-PVTZ
  Basis Set: (AUG-CC-PVTZ AUX)
    Blend: AUG-CC-PVTZ-JKFIT

    Orbital Energies [Eh]
    ---------------------

    Doubly Occupied:

       1A    -20.629031     2A    -15.562205     3A    -11.294180
       4A    -11.293813     5A    -11.293615     6A    -11.279020
       7A    -11.261417     8A    -11.246361     9A    -11.240485
      10A    -11.239357    11A    -11.238361    12A     -1.459347
      13A     -1.269223    14A     -1.105662    15A     -1.088715
      16A     -1.031819    17A     -0.997664    18A     -0.875078
      19A     -0.863856    20A     -0.798043    21A     -0.776488
      22A     -0.745100    23A     -0.689686    24A     -0.661463
      25A     -0.646421    26A     -0.636181    27A     -0.606368
      28A     -0.583390    29A     -0.577151    30A     -0.571769
      31A     -0.552323    32A     -0.537700    33A     -0.525046
      34A     -0.425055    35A     -0.417617    36A     -0.386351
      37A     -0.346387    38A     -0.298577

  @DF-RHF Final Energy:  -474.32954265751289

   => Energetics <=

    Nuclear Repulsion Energy =            540.0474899891719360
    One-Electron Energy =               -1714.6534159103030106
    Two-Electron Energy =                 700.2763832636181860
    Total Energy =                       -474.3295426575128886
  Basis Set: (AUG-CC-PVTZ AUX)
    Blend: AUG-CC-PVTZ-RI
    Molecular point group: c1

    Geometry (in Angstrom), charge = 0, multiplicity = 1:

       Center              X                  Y                   Z               Mass
    ------------   -----------------  -----------------  -----------------  -----------------
         O            3.061128154720    -0.713490596589     0.000060081396    15.994914619570
         N           -1.100212845280    -1.152556596589    -0.000079918604    14.003074004430
         C            0.950165154720     0.068058403411    -0.000014918604    12.000000000000
         C           -0.513156345280     0.016542803411    -0.000000218604    12.000000000000
         C            1.855506154720     1.180093403411    -0.000101918604    12.000000000000
         C           -1.259225845280     1.255602403411     0.000083081396    12.000000000000
         C            1.741092154720    -1.055250596589     0.000078081396    12.000000000000
         C           -2.649984845280     1.184417403411     0.000081081396    12.000000000000
         C            3.114050154720     0.652149403411    -0.000045918604    12.000000000000
         C           -3.259161845280    -0.069420596589     0.000002081396    12.000000000000
         C           -2.440971845280    -1.200541596589    -0.000071918604    12.000000000000
         H            1.616018154720     2.235008403411    -0.000211918604     1.007825032230
         H           -0.757753845280     2.219326403411     0.000158081396     1.007825032230
         H            1.515666154720    -2.110472596589     0.000158081396     1.007825032230
         H            4.104963154720     1.081504403411    -0.000071918604     1.007825032230
         H           -3.247004845280     2.093283403411     0.000145081396     1.007825032230
         H           -4.340529845280    -0.172597596589    -0.000001918604     1.007825032230
         H           -2.876054845280    -2.198934596589    -0.000130918604     1.007825032230

  Basis Set: AUG-CC-PVTZ
    Blend: AUG-CC-PVTZ
  Basis Set: (AUG-CC-PVTZ AUX)
    Blend: AUG-CC-PVTZ-JKFIT
	 Reference Energy          =    -474.3295426575128886 [Eh]
	 Singles Energy            =      -0.0000000000000000 [Eh]
	 Same-Spin Energy          =      -0.5138078389232896 [Eh]
	 Opposite-Spin Energy      =      -1.5561279323373864 [Eh]
	 Correlation Energy        =      -2.0699357712606758 [Eh]
	 Total Energy              =    -476.3994784287735911 [Eh]

	 ================> DF-SCS-MP2 Energies <==================
	-----------------------------------------------------------
	 SCS Same-Spin Scale       =       0.3333333333333333 [-]
	 SCS Opposite-Spin Scale   =       1.2000000000000000 [-]
	 SCS Same-Spin Energy      =      -0.1712692796410965 [Eh]
	 SCS Opposite-Spin Energy  =      -1.8673535188048636 [Eh]
	 SCS Correlation Energy    =      -2.0386227984459602 [Eh]
	 SCS Total Energy          =    -476.3681654559588310 [Eh]
	-----------------------------------------------------------

  Dipole Moment: [D]
     X:    -1.2698      Y:     1.9979      Z:     0.0001     Total:     2.3673

*** Psi4 exiting successfully. Buy a developer a beer!
