                               Psi4 1.3.2 release

  ==> Input File <==

--------------------------------------------------------------------------
#psi4
#
memory 32 gb

molecule  {
0 1
  O        3.0870850    -0.7380670     0.0000600
  N       -1.0742560    -1.1771330    -0.0000800
  C        0.9759062     0.0179276    -0.0000167
  C       -0.4881060     0.0430670    -0.0000040
  C        1.8814630     1.1555170    -0.0001020
  C       -1.2332690     1.2310260     0.0000830
  C        1.7670490    -1.0798270     0.0000780
  C       -2.6240280     1.1598410     0.0000810
  C        3.1400070     0.6275730    -0.0000460
  C       -3.2332050    -0.0939970     0.0000020
  C       -2.4150150    -1.2251180    -0.0000720
  H        1.6419750     2.2104320    -0.0002120
  H       -0.7317970     2.1947500     0.0001580
  H        1.5416230    -2.1350490     0.0001580
  H        4.1309200     1.0569280    -0.0000720
  H       -3.2210480     2.0687070     0.0001450
  H       -4.3145730    -0.1971740    -0.0000020
  H       -2.8500980    -2.2235110    -0.0001310
units angstrom
no_reorient  #important for SAPT in psi4, default
symmetry c1  #important for SAPT in psi4, default
}

set PROPERTIES_ORIGIN ["COM"]
properties('MP2/aug-cc-pvtz', properties = ['dipole'])
--------------------------------------------------------------------------

    Molecular point group: c1
  Charge       = 0
  Multiplicity = 1
  Basis Set: AUG-CC-PVTZ
    Blend: AUG-CC-PVTZ
  Basis Set: (AUG-CC-PVTZ AUX)
    Blend: AUG-CC-PVTZ-JKFIT

    Orbital Energies [Eh]
    ---------------------

    Doubly Occupied:

       1A    -20.626558     2A    -15.565635     3A    -11.293621
       4A    -11.292352     5A    -11.291004     6A    -11.279431
       7A    -11.263761     8A    -11.244186     9A    -11.241497
      10A    -11.238402    11A    -11.237511    12A     -1.458076
      13A     -1.258932    14A     -1.104437    15A     -1.088815
      16A     -1.032956    17A     -1.000653    18A     -0.875454
      19A     -0.863643    20A     -0.797665    21A     -0.775466
      22A     -0.744844    23A     -0.686915    24A     -0.662763
      25A     -0.646640    26A     -0.635592    27A     -0.606528
      28A     -0.586125    29A     -0.573488    30A     -0.572776
      31A     -0.549077    32A     -0.537914    33A     -0.518484
      34A     -0.423886    35A     -0.422483    36A     -0.383740
      37A     -0.348621    38A     -0.302379

  @DF-RHF Final Energy:  -474.33181080451607

   => Energetics <=

    Nuclear Repulsion Energy =            539.9352308090619772
    One-Electron Energy =               -1714.4694651422760217
    Two-Electron Energy =                 700.2024235286979774
    Total Energy =                       -474.3318108045160670
  Basis Set: (AUG-CC-PVTZ AUX)
    Blend: AUG-CC-PVTZ-RI
    Molecular point group: c1

    Geometry (in Angstrom), charge = 0, multiplicity = 1:

       Center              X                  Y                   Z               Mass
    ------------   -----------------  -----------------  -----------------  -----------------
         O            3.061221000934    -0.715603995823     0.000060528130    15.994914619570
         N           -1.100119999066    -1.154669995823    -0.000079471870    14.003074004430
         C            0.950042200934     0.040390604177    -0.000016171870    12.000000000000
         C           -0.513969999066     0.065530004177    -0.000003471870    12.000000000000
         C            1.855599000934     1.177980004177    -0.000101471870    12.000000000000
         C           -1.259132999066     1.253489004177     0.000083528130    12.000000000000
         C            1.741185000934    -1.057363995823     0.000078528130    12.000000000000
         C           -2.649891999066     1.182304004177     0.000081528130    12.000000000000
         C            3.114143000934     0.650036004177    -0.000045471870    12.000000000000
         C           -3.259068999066    -0.071533995823     0.000002528130    12.000000000000
         C           -2.440878999066    -1.202654995823    -0.000071471870    12.000000000000
         H            1.616111000934     2.232895004177    -0.000211471870     1.007825032230
         H           -0.757660999066     2.217213004177     0.000158528130     1.007825032230
         H            1.515759000934    -2.112585995823     0.000158528130     1.007825032230
         H            4.105056000934     1.079391004177    -0.000071471870     1.007825032230
         H           -3.246911999066     2.091170004177     0.000145528130     1.007825032230
         H           -4.340436999066    -0.174710995823    -0.000001471870     1.007825032230
         H           -2.875961999066    -2.201047995823    -0.000130471870     1.007825032230

  Basis Set: AUG-CC-PVTZ
    Blend: AUG-CC-PVTZ
  Basis Set: (AUG-CC-PVTZ AUX)
    Blend: AUG-CC-PVTZ-JKFIT
	 Reference Energy          =    -474.3318108045160670 [Eh]
	 Singles Energy            =      -0.0000000000000000 [Eh]
	 Same-Spin Energy          =      -0.5135682932187016 [Eh]
	 Opposite-Spin Energy      =      -1.5561800742230720 [Eh]
	 Correlation Energy        =      -2.0697483674417736 [Eh]
	 Total Energy              =    -476.4015591719578424 [Eh]

	 ================> DF-SCS-MP2 Energies <==================
	-----------------------------------------------------------
	 SCS Same-Spin Scale       =       0.3333333333333333 [-]
	 SCS Opposite-Spin Scale   =       1.2000000000000000 [-]
	 SCS Same-Spin Energy      =      -0.1711894310729005 [Eh]
	 SCS Opposite-Spin Energy  =      -1.8674160890676863 [Eh]
	 SCS Correlation Energy    =      -2.0386055201405870 [Eh]
	 SCS Total Energy          =    -476.3704163246566736 [Eh]
	-----------------------------------------------------------

  Dipole Moment: [D]
     X:    -1.3745      Y:     2.0231      Z:     0.0001     Total:     2.4458

*** Psi4 exiting successfully. Buy a developer a beer!
