                               Psi4 1.3.2 release

  ==> Input File <==

--------------------------------------------------------------------------
#psi4
#
memory 32 gb

molecule  {
0 1
  O        3.0870850    -0.7380670     0.0000600
  N       -1.0742560    -1.1771330    -0.0000800
  C        0.9761220     0.0434820    -0.0000150
  C       -0.4881060     0.0430670    -0.0000040
  C        1.7551923     1.0004180    -0.0000899
  C       -1.2332690     1.2310260     0.0000830
  C        1.7670490    -1.0798270     0.0000780
  C       -2.6240280     1.1598410     0.0000810
  C        3.1400070     0.6275730    -0.0000460
  C       -3.2332050    -0.0939970     0.0000020
  C       -2.4150150    -1.2251180    -0.0000720
  H        1.6419750     2.2104320    -0.0002120
  H       -0.7317970     2.1947500     0.0001580
  H        1.5416230    -2.1350490     0.0001580
  H        4.1309200     1.0569280    -0.0000720
  H       -3.2210480     2.0687070     0.0001450
  H       -4.3145730    -0.1971740    -0.0000020
  H       -2.8500980    -2.2235110    -0.0001310
units angstrom
no_reorient  #important for SAPT in psi4, default
symmetry c1  #important for SAPT in psi4, default
}

set PROPERTIES_ORIGIN ["COM"]
properties('MP2/aug-cc-pvtz', properties = ['dipole'])
--------------------------------------------------------------------------

    Molecular point group: c1
  Charge       = 0
  Multiplicity = 1
  Basis Set: AUG-CC-PVTZ
    Blend: AUG-CC-PVTZ
  Basis Set: (AUG-CC-PVTZ AUX)
    Blend: AUG-CC-PVTZ-JKFIT

    Orbital Energies [Eh]
    ---------------------

    Doubly Occupied:

       1A    -20.637020     2A    -15.568430     3A    -11.293772
       4A    -11.292545     5A    -11.291785     6A    -11.280671
       7A    -11.264615     8A    -11.245009     9A    -11.243497
      10A    -11.237145    11A    -11.222467    12A     -1.463784
      13A     -1.261436    14A     -1.143687    15A     -1.090511
      16A     -1.034412    17A     -0.990252    18A     -0.877356
      19A     -0.866768    20A     -0.800547    21A     -0.778668
      22A     -0.742558    23A     -0.693500    24A     -0.662208
      25A     -0.647822    26A     -0.639138    27A     -0.611778
      28A     -0.599863    29A     -0.579913    30A     -0.552450
      31A     -0.551723    32A     -0.526882    33A     -0.510932
      34A     -0.448165    35A     -0.423769    36A     -0.385744
      37A     -0.342716    38A     -0.288232

  @DF-RHF Final Energy:  -474.26489406824021

   => Energetics <=

    Nuclear Repulsion Energy =            543.4851079002498864
    One-Electron Energy =               -1721.3164670710980317
    Two-Electron Energy =                 703.5664651026079355
    Total Energy =                       -474.2648940682402099
  Basis Set: (AUG-CC-PVTZ AUX)
    Blend: AUG-CC-PVTZ-RI
    Molecular point group: c1

    Geometry (in Angstrom), charge = 0, multiplicity = 1:

       Center              X                  Y                   Z               Mass
    ------------   -----------------  -----------------  -----------------  -----------------
         O            3.071649335837    -0.704886963216     0.000059386477    15.994914619570
         N           -1.089691664163    -1.143952963216    -0.000080613523    14.003074004430
         C            0.960686335837     0.076662036784    -0.000015613523    12.000000000000
         C           -0.503541664163     0.076247036784    -0.000004613523    12.000000000000
         C            1.739756635837     1.033598036784    -0.000090513523    12.000000000000
         C           -1.248704664163     1.264206036784     0.000082386477    12.000000000000
         C            1.751613335837    -1.046646963216     0.000077386477    12.000000000000
         C           -2.639463664163     1.193021036784     0.000080386477    12.000000000000
         C            3.124571335837     0.660753036784    -0.000046613523    12.000000000000
         C           -3.248640664163    -0.060816963216     0.000001386477    12.000000000000
         C           -2.430450664163    -1.191937963216    -0.000072613523    12.000000000000
         H            1.626539335837     2.243612036784    -0.000212613523     1.007825032230
         H           -0.747232664163     2.227930036784     0.000157386477     1.007825032230
         H            1.526187335837    -2.101868963216     0.000157386477     1.007825032230
         H            4.115484335837     1.090108036784    -0.000072613523     1.007825032230
         H           -3.236483664163     2.101887036784     0.000144386477     1.007825032230
         H           -4.330008664163    -0.163993963216    -0.000002613523     1.007825032230
         H           -2.865533664163    -2.190330963216    -0.000131613523     1.007825032230

  Basis Set: AUG-CC-PVTZ
    Blend: AUG-CC-PVTZ
  Basis Set: (AUG-CC-PVTZ AUX)
    Blend: AUG-CC-PVTZ-JKFIT
	 Reference Energy          =    -474.2648940682402099 [Eh]
	 Singles Energy            =      -0.0000000000000000 [Eh]
	 Same-Spin Energy          =      -0.5199025770039053 [Eh]
	 Opposite-Spin Energy      =      -1.5644594869516237 [Eh]
	 Correlation Energy        =      -2.0843620639555289 [Eh]
	 Total Energy              =    -476.3492561321957623 [Eh]

	 ================> DF-SCS-MP2 Energies <==================
	-----------------------------------------------------------
	 SCS Same-Spin Scale       =       0.3333333333333333 [-]
	 SCS Opposite-Spin Scale   =       1.2000000000000000 [-]
	 SCS Same-Spin Energy      =      -0.1733008590013018 [Eh]
	 SCS Opposite-Spin Energy  =      -1.8773513843419485 [Eh]
	 SCS Correlation Energy    =      -2.0506522433432504 [Eh]
	 SCS Total Energy          =    -476.3155463115834323 [Eh]
	-----------------------------------------------------------

  Dipole Moment: [D]
     X:    -1.4775      Y:     1.9498      Z:     0.0001     Total:     2.4464

*** Psi4 exiting successfully. Buy a developer a beer!
