                               Psi4 1.4a3.dev225

  ==> Input File <==

--------------------------------------------------------------------------
#psi4
#
memory 32 gb

molecule  {
0 1
  O        3.0870850    -0.7380670     0.0000600
  N       -1.0742560    -1.1771330    -0.0000800
  C        0.9761220     0.0434820    -0.0000150
  C       -0.4881060     0.0430670    -0.0000040
  C        1.8814630     1.1555170    -0.0001020
  C       -1.2332690     1.2310260     0.0000830
  C        1.7670490    -1.0798270     0.0000780
  C       -2.6240280     1.1598410     0.0000810
  C        3.1400070     0.6275730    -0.0000460
  C       -3.2332050    -0.0939970     0.0000020
  C       -2.4150150    -1.2251180    -0.0000720
  H        1.6464028     2.1909283    -0.0002100
  H       -0.7317970     2.1947500     0.0001580
  H        1.5416230    -2.1350490     0.0001580
  H        4.1309200     1.0569280    -0.0000720
  H       -3.2210480     2.0687070     0.0001450
  H       -4.3145730    -0.1971740    -0.0000020
  H       -2.8500980    -2.2235110    -0.0001310
units angstrom
no_reorient  #important for SAPT in psi4, default
symmetry c1  #important for SAPT in psi4, default
}

set PROPERTIES_ORIGIN ["COM"]
properties('MP2/aug-cc-pvtz', properties = ['dipole'])
--------------------------------------------------------------------------

    Molecular point group: c1
  Charge       = 0
  Multiplicity = 1
  Basis Set: AUG-CC-PVTZ
    Blend: AUG-CC-PVTZ
  Basis Set: (AUG-CC-PVTZ AUX)
    Blend: AUG-CC-PVTZ-JKFIT

    Orbital Energies [Eh]
    ---------------------

    Doubly Occupied:

       1A    -20.628544     2A    -15.565677     3A    -11.293712
       4A    -11.293254     5A    -11.292276     6A    -11.279500
       7A    -11.263389     8A    -11.243427     9A    -11.241119
      10A    -11.238895    11A    -11.235075    12A     -1.458781
      13A     -1.258612    14A     -1.105729    15A     -1.088642
      16A     -1.034233    17A     -0.998253    18A     -0.875577
      19A     -0.863505    20A     -0.798018    21A     -0.777652
      22A     -0.745815    23A     -0.687338    24A     -0.662811
      25A     -0.646531    26A     -0.635571    27A     -0.607194
      28A     -0.585618    29A     -0.577183    30A     -0.572667
      31A     -0.548922    32A     -0.538037    33A     -0.520604
      34A     -0.424585    35A     -0.421989    36A     -0.383846
      37A     -0.348715    38A     -0.298965

  @DF-RHF Final Energy:  -474.33124805676863

   => Energetics <=

    Nuclear Repulsion Energy =            539.9800377036951886
    One-Electron Energy =               -1714.5420545639365173
    Two-Electron Energy =                 700.2307688034727562
    Total Energy =                       -474.3312480567685725
  Basis Set: (AUG-CC-PVTZ AUX)
    Blend: AUG-CC-PVTZ-RI
    Molecular point group: c1

    Geometry (in Angstrom), charge = 0, multiplicity = 1:

       Center              X                  Y                   Z               Mass
    ------------   -----------------  -----------------  -----------------  -----------------
         O            3.061172383814    -0.717582561935     0.000060373596    15.994914619570
         N           -1.100168616186    -1.156648561935    -0.000079626404    14.003074004430
         C            0.950209383814     0.063966438065    -0.000014626404    12.000000000000
         C           -0.514018616186     0.063551438065    -0.000003626404    12.000000000000
         C            1.855550383814     1.176001438065    -0.000101626404    12.000000000000
         C           -1.259181616186     1.251510438065     0.000083373596    12.000000000000
         C            1.741136383814    -1.059342561935     0.000078373596    12.000000000000
         C           -2.649940616186     1.180325438065     0.000081373596    12.000000000000
         C            3.114094383814     0.648057438065    -0.000045626404    12.000000000000
         C           -3.259117616186    -0.073512561935     0.000002373596    12.000000000000
         C           -2.440927616186    -1.204633561935    -0.000071626404    12.000000000000
         H            1.620490183814     2.211412738065    -0.000209626404     1.007825032230
         H           -0.757709616186     2.215234438065     0.000158373596     1.007825032230
         H            1.515710383814    -2.114564561935     0.000158373596     1.007825032230
         H            4.105007383814     1.077412438065    -0.000071626404     1.007825032230
         H           -3.246960616186     2.089191438065     0.000145373596     1.007825032230
         H           -4.340485616186    -0.176689561935    -0.000001626404     1.007825032230
         H           -2.876010616186    -2.203026561935    -0.000130626404     1.007825032230

  Basis Set: AUG-CC-PVTZ
    Blend: AUG-CC-PVTZ
  Basis Set: (AUG-CC-PVTZ AUX)
    Blend: AUG-CC-PVTZ-JKFIT
	 Reference Energy          =    -474.3312480567686293 [Eh]
	 Singles Energy            =      -0.0000000000000000 [Eh]
	 Same-Spin Energy          =      -0.5141607098733607 [Eh]
	 Opposite-Spin Energy      =      -1.5568074073067104 [Eh]
	 Correlation Energy        =      -2.0709681171800711 [Eh]
	 Total Energy              =    -476.4022161739487160 [Eh]

	 ================> DF-SCS-MP2 Energies <==================
	-----------------------------------------------------------
	 SCS Same-Spin Scale       =       0.3333333333333333 [-]
	 SCS Opposite-Spin Scale   =       1.2000000000000000 [-]
	 SCS Same-Spin Energy      =      -0.1713869032911202 [Eh]
	 SCS Opposite-Spin Energy  =      -1.8681688887680523 [Eh]
	 SCS Correlation Energy    =      -2.0395557920591725 [Eh]
	 SCS Total Energy          =    -476.3708038488277907 [Eh]
	-----------------------------------------------------------

  Dipole Moment: [D]
     X:    -1.3428      Y:     2.0231      Z:     0.0001     Total:     2.4282

*** Psi4 exiting successfully. Buy a developer a beer!
