                               Psi4 1.3.2 release

  ==> Input File <==

--------------------------------------------------------------------------
#psi4
#
memory 32 gb

molecule  {
0 1
  O        3.0870850    -0.7380670     0.0000600
  N       -1.0742560    -1.1771330    -0.0000800
  C        0.9761220     0.0434820    -0.0000150
  C       -0.4872285     0.0941681    -0.0000085
  C        1.8814630     1.1555170    -0.0001020
  C       -1.2332690     1.2310260     0.0000830
  C        1.7670490    -1.0798270     0.0000780
  C       -2.6240280     1.1598410     0.0000810
  C        3.1400070     0.6275730    -0.0000460
  C       -3.2332050    -0.0939970     0.0000020
  C       -2.4150150    -1.2251180    -0.0000720
  H        1.6419750     2.2104320    -0.0002120
  H       -0.7317970     2.1947500     0.0001580
  H        1.5416230    -2.1350490     0.0001580
  H        4.1309200     1.0569280    -0.0000720
  H       -3.2210480     2.0687070     0.0001450
  H       -4.3145730    -0.1971740    -0.0000020
  H       -2.8500980    -2.2235110    -0.0001310
units angstrom
no_reorient  #important for SAPT in psi4, default
symmetry c1  #important for SAPT in psi4, default
}

set PROPERTIES_ORIGIN ["COM"]
properties('MP2/aug-cc-pvtz', properties = ['dipole'])
--------------------------------------------------------------------------

    Molecular point group: c1
  Charge       = 0
  Multiplicity = 1
  Basis Set: AUG-CC-PVTZ
    Blend: AUG-CC-PVTZ
  Basis Set: (AUG-CC-PVTZ AUX)
    Blend: AUG-CC-PVTZ-JKFIT

    Orbital Energies [Eh]
    ---------------------

    Doubly Occupied:

       1A    -20.628314     2A    -15.568692     3A    -11.293918
       4A    -11.292555     5A    -11.290191     6A    -11.279835
       7A    -11.265031     8A    -11.242027     9A    -11.239877
      10A    -11.239498    11A    -11.235829    12A     -1.458477
      13A     -1.249421    14A     -1.105844    15A     -1.088824
      16A     -1.036197    17A     -0.998678    18A     -0.877490
      19A     -0.861536    20A     -0.794079    21A     -0.778935
      22A     -0.744843    23A     -0.685775    24A     -0.662529
      25A     -0.646130    26A     -0.635252    27A     -0.607871
      28A     -0.587740    29A     -0.574031    30A     -0.571638
      31A     -0.546467    32A     -0.538888    33A     -0.514706
      34A     -0.424752    35A     -0.424335    36A     -0.382224
      37A     -0.350719    38A     -0.299596

  @DF-RHF Final Energy:  -474.32659717379596

   => Energetics <=

    Nuclear Repulsion Energy =            539.7401871700119500
    One-Electron Energy =               -1714.0880789564869247
    Two-Electron Energy =                 700.0212946126789575
    Total Energy =                       -474.3265971737960172
  Basis Set: (AUG-CC-PVTZ AUX)
    Blend: AUG-CC-PVTZ-RI
    Molecular point group: c1

    Geometry (in Angstrom), charge = 0, multiplicity = 1:

       Center              X                  Y                   Z               Mass
    ------------   -----------------  -----------------  -----------------  -----------------
         O            3.061130553847    -0.721945591637     0.000060759770    15.994914619570
         N           -1.100210446153    -1.161011591637    -0.000079240230    14.003074004430
         C            0.950167553847     0.059603408363    -0.000014240230    12.000000000000
         C           -0.513182946153     0.110289508363    -0.000007740230    12.000000000000
         C            1.855508553847     1.171638408363    -0.000101240230    12.000000000000
         C           -1.259223446153     1.247147408363     0.000083759770    12.000000000000
         C            1.741094553847    -1.063705591637     0.000078759770    12.000000000000
         C           -2.649982446153     1.175962408363     0.000081759770    12.000000000000
         C            3.114052553847     0.643694408363    -0.000045240230    12.000000000000
         C           -3.259159446153    -0.077875591637     0.000002759770    12.000000000000
         C           -2.440969446153    -1.208996591637    -0.000071240230    12.000000000000
         H            1.616020553847     2.226553408363    -0.000211240230     1.007825032230
         H           -0.757751446153     2.210871408363     0.000158759770     1.007825032230
         H            1.515668553847    -2.118927591637     0.000158759770     1.007825032230
         H            4.104965553847     1.073049408363    -0.000071240230     1.007825032230
         H           -3.247002446153     2.084828408363     0.000145759770     1.007825032230
         H           -4.340527446153    -0.181052591637    -0.000001240230     1.007825032230
         H           -2.876052446153    -2.207389591637    -0.000130240230     1.007825032230

  Basis Set: AUG-CC-PVTZ
    Blend: AUG-CC-PVTZ
  Basis Set: (AUG-CC-PVTZ AUX)
    Blend: AUG-CC-PVTZ-JKFIT
	 Reference Energy          =    -474.3265971737959603 [Eh]
	 Singles Energy            =      -0.0000000000000000 [Eh]
	 Same-Spin Energy          =      -0.5144330223087857 [Eh]
	 Opposite-Spin Energy      =      -1.5580209731598111 [Eh]
	 Correlation Energy        =      -2.0724539954685968 [Eh]
	 Total Energy              =    -476.3990511692645669 [Eh]

	 ================> DF-SCS-MP2 Energies <==================
	-----------------------------------------------------------
	 SCS Same-Spin Scale       =       0.3333333333333333 [-]
	 SCS Opposite-Spin Scale   =       1.2000000000000000 [-]
	 SCS Same-Spin Energy      =      -0.1714776741029286 [Eh]
	 SCS Opposite-Spin Energy  =      -1.8696251677917732 [Eh]
	 SCS Correlation Energy    =      -2.0411028418947019 [Eh]
	 SCS Total Energy          =    -476.3677000156906729 [Eh]
	-----------------------------------------------------------

  Dipole Moment: [D]
     X:    -1.4024      Y:     2.0301      Z:     0.0001     Total:     2.4674

*** Psi4 exiting successfully. Buy a developer a beer!
