                               Psi4 1.3.2 release

  ==> Input File <==

--------------------------------------------------------------------------
#psi4
#
memory 32 gb

molecule  {
0 1
  O        3.0870850    -0.7380670     0.0000600
  N       -1.0742560    -1.1771330    -0.0000800
  C        0.9761220     0.0434820    -0.0000150
  C       -0.4881060     0.0430670    -0.0000040
  C        1.8016860     1.2159615    -0.0001071
  C       -1.2332690     1.2310260     0.0000830
  C        1.7670490    -1.0798270     0.0000780
  C       -2.6240280     1.1598410     0.0000810
  C        3.1400070     0.6275730    -0.0000460
  C       -3.2332050    -0.0939970     0.0000020
  C       -2.4150150    -1.2251180    -0.0000720
  H        1.6419750     2.2104320    -0.0002120
  H       -0.7317970     2.1947500     0.0001580
  H        1.5416230    -2.1350490     0.0001580
  H        4.1309200     1.0569280    -0.0000720
  H       -3.2210480     2.0687070     0.0001450
  H       -4.3145730    -0.1971740    -0.0000020
  H       -2.8500980    -2.2235110    -0.0001310
units angstrom
no_reorient  #important for SAPT in psi4, default
symmetry c1  #important for SAPT in psi4, default
}

set PROPERTIES_ORIGIN ["COM"]
properties('MP2/aug-cc-pvtz', properties = ['dipole'])
--------------------------------------------------------------------------

    Molecular point group: c1
  Charge       = 0
  Multiplicity = 1
  Basis Set: AUG-CC-PVTZ
    Blend: AUG-CC-PVTZ
  Basis Set: (AUG-CC-PVTZ AUX)
    Blend: AUG-CC-PVTZ-JKFIT

    Orbital Energies [Eh]
    ---------------------

    Doubly Occupied:

       1A    -20.637200     2A    -15.565156     3A    -11.308486
       4A    -11.292692     5A    -11.290321     6A    -11.278921
       7A    -11.263098     8A    -11.244187     9A    -11.243217
      10A    -11.242745    11A    -11.240932    12A     -1.460875
      13A     -1.258182    14A     -1.103396    15A     -1.088314
      16A     -1.025852    17A     -0.994685    18A     -0.874548
      19A     -0.864352    20A     -0.809571    21A     -0.773988
      22A     -0.746313    23A     -0.685240    24A     -0.664467
      25A     -0.645169    26A     -0.635090    27A     -0.614588
      28A     -0.593050    29A     -0.583392    30A     -0.567842
      31A     -0.548672    32A     -0.533942    33A     -0.516612
      34A     -0.424755    35A     -0.421492    36A     -0.382992
      37A     -0.338641    38A     -0.295673

  @DF-RHF Final Energy:  -474.31205816379332

   => Energetics <=

    Nuclear Repulsion Energy =            538.9713830108876209
    One-Electron Energy =               -1712.4495904156183315
    Two-Electron Energy =                 699.1661492409373295
    Total Energy =                       -474.3120581637933810
  Basis Set: (AUG-CC-PVTZ AUX)
    Blend: AUG-CC-PVTZ-RI
    Molecular point group: c1

    Geometry (in Angstrom), charge = 0, multiplicity = 1:

       Center              X                  Y                   Z               Mass
    ------------   -----------------  -----------------  -----------------  -----------------
         O            3.067802980999    -0.722718557260     0.000060809407    15.994914619570
         N           -1.093538019001    -1.161784557260    -0.000079190593    14.003074004430
         C            0.956839980999     0.058830442740    -0.000014190593    12.000000000000
         C           -0.507388019001     0.058415442740    -0.000003190593    12.000000000000
         C            1.782403980999     1.231309942740    -0.000106290593    12.000000000000
         C           -1.252551019001     1.246374442740     0.000083809407    12.000000000000
         C            1.747766980999    -1.064478557260     0.000078809407    12.000000000000
         C           -2.643310019001     1.175189442740     0.000081809407    12.000000000000
         C            3.120724980999     0.642921442740    -0.000045190593    12.000000000000
         C           -3.252487019001    -0.078648557260     0.000002809407    12.000000000000
         C           -2.434297019001    -1.209769557260    -0.000071190593    12.000000000000
         H            1.622692980999     2.225780442740    -0.000211190593     1.007825032230
         H           -0.751079019001     2.210098442740     0.000158809407     1.007825032230
         H            1.522340980999    -2.119700557260     0.000158809407     1.007825032230
         H            4.111637980999     1.072276442740    -0.000071190593     1.007825032230
         H           -3.240330019001     2.084055442740     0.000145809407     1.007825032230
         H           -4.333855019001    -0.181825557260    -0.000001190593     1.007825032230
         H           -2.869380019001    -2.208162557260    -0.000130190593     1.007825032230

  Basis Set: AUG-CC-PVTZ
    Blend: AUG-CC-PVTZ
  Basis Set: (AUG-CC-PVTZ AUX)
    Blend: AUG-CC-PVTZ-JKFIT
	 Reference Energy          =    -474.3120581637933242 [Eh]
	 Singles Energy            =      -0.0000000000000000 [Eh]
	 Same-Spin Energy          =      -0.5160122572206425 [Eh]
	 Opposite-Spin Energy      =      -1.5606618084703465 [Eh]
	 Correlation Energy        =      -2.0766740656909892 [Eh]
	 Total Energy              =    -476.3887322294843329 [Eh]

	 ================> DF-SCS-MP2 Energies <==================
	-----------------------------------------------------------
	 SCS Same-Spin Scale       =       0.3333333333333333 [-]
	 SCS Opposite-Spin Scale   =       1.2000000000000000 [-]
	 SCS Same-Spin Energy      =      -0.1720040857402141 [Eh]
	 SCS Opposite-Spin Energy  =      -1.8727941701644157 [Eh]
	 SCS Correlation Energy    =      -2.0447982559046300 [Eh]
	 SCS Total Energy          =    -476.3568564196979764 [Eh]
	-----------------------------------------------------------

  Dipole Moment: [D]
     X:    -1.2961      Y:     1.9703      Z:     0.0001     Total:     2.3583

*** Psi4 exiting successfully. Buy a developer a beer!
