                               Psi4 1.3.2 release

  ==> Input File <==

--------------------------------------------------------------------------
#psi4
#
memory 32 gb

molecule  {
0 1
  O        3.0870850    -0.7380670     0.0000600
  N       -1.0742560    -1.1771330    -0.0000800
  C        0.9761220     0.0434820    -0.0000150
  C       -0.4881060     0.0430670    -0.0000040
  C        1.9197210     1.1232436    -0.0000993
  C       -1.2332690     1.2310260     0.0000830
  C        1.7670490    -1.0798270     0.0000780
  C       -2.6240280     1.1598410     0.0000810
  C        3.1400070     0.6275730    -0.0000460
  C       -3.2332050    -0.0939970     0.0000020
  C       -2.4150150    -1.2251180    -0.0000720
  H        1.6419750     2.2104320    -0.0002120
  H       -0.7317970     2.1947500     0.0001580
  H        1.5416230    -2.1350490     0.0001580
  H        4.1309200     1.0569280    -0.0000720
  H       -3.2210480     2.0687070     0.0001450
  H       -4.3145730    -0.1971740    -0.0000020
  H       -2.8500980    -2.2235110    -0.0001310
units angstrom
no_reorient  #important for SAPT in psi4, default
symmetry c1  #important for SAPT in psi4, default
}

set PROPERTIES_ORIGIN ["COM"]
properties('MP2/aug-cc-pvtz', properties = ['dipole'])
--------------------------------------------------------------------------

    Molecular point group: c1
  Charge       = 0
  Multiplicity = 1
  Basis Set: AUG-CC-PVTZ
    Blend: AUG-CC-PVTZ
  Basis Set: (AUG-CC-PVTZ AUX)
    Blend: AUG-CC-PVTZ-JKFIT

    Orbital Energies [Eh]
    ---------------------

    Doubly Occupied:

       1A    -20.624527     2A    -15.565983     3A    -11.294446
       4A    -11.293341     5A    -11.285305     6A    -11.279785
       7A    -11.263504     8A    -11.243491     9A    -11.241226
      10A    -11.237680    11A    -11.234037    12A     -1.458538
      13A     -1.258867    14A     -1.107351    15A     -1.088813
      16A     -1.039068    17A     -1.000244    18A     -0.876146
      19A     -0.863113    20A     -0.791538    21A     -0.778703
      22A     -0.743963    23A     -0.688467    24A     -0.661896
      25A     -0.647336    26A     -0.636618    27A     -0.605897
      28A     -0.587549    29A     -0.575338    30A     -0.563061
      31A     -0.549102    32A     -0.536629    33A     -0.520775
      34A     -0.425059    35A     -0.422255    36A     -0.384530
      37A     -0.354673    38A     -0.300356

  @DF-RHF Final Energy:  -474.32953391014087

   => Energetics <=

    Nuclear Repulsion Energy =            540.4249906647073658
    One-Electron Energy =               -1715.4506302022759883
    Two-Electron Energy =                 700.6961056274277553
    Total Energy =                       -474.3295339101408672
  Basis Set: (AUG-CC-PVTZ AUX)
    Blend: AUG-CC-PVTZ-RI
    Molecular point group: c1

    Geometry (in Angstrom), charge = 0, multiplicity = 1:

       Center              X                  Y                   Z               Mass
    ------------   -----------------  -----------------  -----------------  -----------------
         O            3.058038120527    -0.715048142919     0.000060164125    15.994914619570
         N           -1.103302879473    -1.154114142919    -0.000079835875    14.003074004430
         C            0.947075120527     0.066500857081    -0.000014835875    12.000000000000
         C           -0.517152879473     0.066085857081    -0.000003835875    12.000000000000
         C            1.890674120527     1.146262457081    -0.000099135875    12.000000000000
         C           -1.262315879473     1.254044857081     0.000083164125    12.000000000000
         C            1.738002120527    -1.056808142919     0.000078164125    12.000000000000
         C           -2.653074879473     1.182859857081     0.000081164125    12.000000000000
         C            3.110960120527     0.650591857081    -0.000045835875    12.000000000000
         C           -3.262251879473    -0.070978142919     0.000002164125    12.000000000000
         C           -2.444061879473    -1.202099142919    -0.000071835875    12.000000000000
         H            1.612928120527     2.233450857081    -0.000211835875     1.007825032230
         H           -0.760843879473     2.217768857081     0.000158164125     1.007825032230
         H            1.512576120527    -2.112030142919     0.000158164125     1.007825032230
         H            4.101873120527     1.079946857081    -0.000071835875     1.007825032230
         H           -3.250094879473     2.091725857081     0.000145164125     1.007825032230
         H           -4.343619879473    -0.174155142919    -0.000001835875     1.007825032230
         H           -2.879144879473    -2.200492142919    -0.000130835875     1.007825032230

  Basis Set: AUG-CC-PVTZ
    Blend: AUG-CC-PVTZ
  Basis Set: (AUG-CC-PVTZ AUX)
    Blend: AUG-CC-PVTZ-JKFIT
	 Reference Energy          =    -474.3295339101408672 [Eh]
	 Singles Energy            =      -0.0000000000000000 [Eh]
	 Same-Spin Energy          =      -0.5135566969213533 [Eh]
	 Opposite-Spin Energy      =      -1.5556477547562113 [Eh]
	 Correlation Energy        =      -2.0692044516775647 [Eh]
	 Total Energy              =    -476.3987383618184595 [Eh]

	 ================> DF-SCS-MP2 Energies <==================
	-----------------------------------------------------------
	 SCS Same-Spin Scale       =       0.3333333333333333 [-]
	 SCS Opposite-Spin Scale   =       1.2000000000000000 [-]
	 SCS Same-Spin Energy      =      -0.1711855656404511 [Eh]
	 SCS Opposite-Spin Energy  =      -1.8667773057074535 [Eh]
	 SCS Correlation Energy    =      -2.0379628713479048 [Eh]
	 SCS Total Energy          =    -476.3674967814887964 [Eh]
	-----------------------------------------------------------

  Dipole Moment: [D]
     X:    -1.3706      Y:     2.0351      Z:     0.0001     Total:     2.4536

*** Psi4 exiting successfully. Buy a developer a beer!
