                               Psi4 1.3.2 release

  ==> Input File <==

--------------------------------------------------------------------------
#psi4
#
memory 32 gb

molecule  {
0 1
  O        3.0870850    -0.7380670     0.0000600
  N       -1.0742560    -1.1771330    -0.0000800
  C        0.9761220     0.0434820    -0.0000150
  C       -0.4881060     0.0430670    -0.0000040
  C        1.8814630     1.1555170    -0.0001020
  C       -1.2332690     1.2310260     0.0000830
  C        1.7464246    -0.9869134     0.0000706
  C       -2.6240280     1.1598410     0.0000810
  C        3.1400070     0.6275730    -0.0000460
  C       -3.2332050    -0.0939970     0.0000020
  C       -2.4150150    -1.2251180    -0.0000720
  H        1.6419750     2.2104320    -0.0002120
  H       -0.7317970     2.1947500     0.0001580
  H        1.5416230    -2.1350490     0.0001580
  H        4.1309200     1.0569280    -0.0000720
  H       -3.2210480     2.0687070     0.0001450
  H       -4.3145730    -0.1971740    -0.0000020
  H       -2.8500980    -2.2235110    -0.0001310
units angstrom
no_reorient  #important for SAPT in psi4, default
symmetry c1  #important for SAPT in psi4, default
}

set PROPERTIES_ORIGIN ["COM"]
properties('MP2/aug-cc-pvtz', properties = ['dipole'])
--------------------------------------------------------------------------

    Molecular point group: c1
  Charge       = 0
  Multiplicity = 1
  Basis Set: AUG-CC-PVTZ
    Blend: AUG-CC-PVTZ
  Basis Set: (AUG-CC-PVTZ AUX)
    Blend: AUG-CC-PVTZ-JKFIT

    Orbital Energies [Eh]
    ---------------------

    Doubly Occupied:

       1A    -20.625800     2A    -15.567257     3A    -11.294453
       4A    -11.292221     5A    -11.287288     6A    -11.280560
       7A    -11.264648     8A    -11.245308     9A    -11.242919
      10A    -11.236510    11A    -11.228149    12A     -1.461462
      13A     -1.260417    14A     -1.120962    15A     -1.090120
      16A     -1.034939    17A     -1.000136    18A     -0.876066
      19A     -0.865019    20A     -0.804022    21A     -0.769665
      22A     -0.740658    23A     -0.688780    24A     -0.663857
      25A     -0.649023    26A     -0.639680    27A     -0.595539
      28A     -0.585774    29A     -0.574257    30A     -0.564079
      31A     -0.550543    32A     -0.540574    33A     -0.520561
      34A     -0.432360    35A     -0.422963    36A     -0.384984
      37A     -0.349273    38A     -0.308961

  @DF-RHF Final Energy:  -474.31951603186803

   => Energetics <=

    Nuclear Repulsion Energy =            541.6845733665702483
    One-Electron Energy =               -1717.8886061979701481
    Two-Electron Energy =                 701.8845167995318661
    Total Energy =                       -474.3195160318680337
  Basis Set: (AUG-CC-PVTZ AUX)
    Blend: AUG-CC-PVTZ-RI
    Molecular point group: c1

    Geometry (in Angstrom), charge = 0, multiplicity = 1:

       Center              X                  Y                   Z               Mass
    ------------   -----------------  -----------------  -----------------  -----------------
         O            3.062909374140    -0.725404677742     0.000060999683    15.994914619570
         N           -1.098431625860    -1.164470677742    -0.000079000317    14.003074004430
         C            0.951946374140     0.056144322258    -0.000014000317    12.000000000000
         C           -0.512281625860     0.055729322258    -0.000003000317    12.000000000000
         C            1.857287374140     1.168179322258    -0.000101000317    12.000000000000
         C           -1.257444625860     1.243688322258     0.000083999683    12.000000000000
         C            1.722248974140    -0.974251077742     0.000071599683    12.000000000000
         C           -2.648203625860     1.172503322258     0.000081999683    12.000000000000
         C            3.115831374140     0.640235322258    -0.000045000317    12.000000000000
         C           -3.257380625860    -0.081334677742     0.000002999683    12.000000000000
         C           -2.439190625860    -1.212455677742    -0.000071000317    12.000000000000
         H            1.617799374140     2.223094322258    -0.000211000317     1.007825032230
         H           -0.755972625860     2.207412322258     0.000158999683     1.007825032230
         H            1.517447374140    -2.122386677742     0.000158999683     1.007825032230
         H            4.106744374140     1.069590322258    -0.000071000317     1.007825032230
         H           -3.245223625860     2.081369322258     0.000145999683     1.007825032230
         H           -4.338748625860    -0.184511677742    -0.000001000317     1.007825032230
         H           -2.874273625860    -2.210848677742    -0.000130000317     1.007825032230

  Basis Set: AUG-CC-PVTZ
    Blend: AUG-CC-PVTZ
  Basis Set: (AUG-CC-PVTZ AUX)
    Blend: AUG-CC-PVTZ-JKFIT
	 Reference Energy          =    -474.3195160318680337 [Eh]
	 Singles Energy            =      -0.0000000000000000 [Eh]
	 Same-Spin Energy          =      -0.5132672871379054 [Eh]
	 Opposite-Spin Energy      =      -1.5557606034372515 [Eh]
	 Correlation Energy        =      -2.0690278905751569 [Eh]
	 Total Energy              =    -476.3885439224432048 [Eh]

	 ================> DF-SCS-MP2 Energies <==================
	-----------------------------------------------------------
	 SCS Same-Spin Scale       =       0.3333333333333333 [-]
	 SCS Opposite-Spin Scale   =       1.2000000000000000 [-]
	 SCS Same-Spin Energy      =      -0.1710890957126351 [Eh]
	 SCS Opposite-Spin Energy  =      -1.8669127241247017 [Eh]
	 SCS Correlation Energy    =      -2.0380018198373366 [Eh]
	 SCS Total Energy          =    -476.3575178517053814 [Eh]
	-----------------------------------------------------------

  Dipole Moment: [D]
     X:    -1.5151      Y:     2.0702      Z:     0.0001     Total:     2.5654

*** Psi4 exiting successfully. Buy a developer a beer!
