                               Psi4 1.3.2 release

  ==> Input File <==

--------------------------------------------------------------------------
#psi4
#
memory 32 gb

molecule  {
0 1
  O        3.0870850    -0.7380670     0.0000600
  N       -1.0742560    -1.1771330    -0.0000800
  C        1.0978725     0.1200028    -0.0000200
  C       -0.4881060     0.0430670    -0.0000040
  C        1.8814630     1.1555170    -0.0001020
  C       -1.2332690     1.2310260     0.0000830
  C        1.7670490    -1.0798270     0.0000780
  C       -2.6240280     1.1598410     0.0000810
  C        3.1400070     0.6275730    -0.0000460
  C       -3.2332050    -0.0939970     0.0000020
  C       -2.4150150    -1.2251180    -0.0000720
  H        1.6419750     2.2104320    -0.0002120
  H       -0.7317970     2.1947500     0.0001580
  H        1.5416230    -2.1350490     0.0001580
  H        4.1309200     1.0569280    -0.0000720
  H       -3.2210480     2.0687070     0.0001450
  H       -4.3145730    -0.1971740    -0.0000020
  H       -2.8500980    -2.2235110    -0.0001310
units angstrom
no_reorient  #important for SAPT in psi4, default
symmetry c1  #important for SAPT in psi4, default
}

set PROPERTIES_ORIGIN ["COM"]
properties('MP2/aug-cc-pvtz', properties = ['dipole'])
--------------------------------------------------------------------------

    Molecular point group: c1
  Charge       = 0
  Multiplicity = 1
  Basis Set: AUG-CC-PVTZ
    Blend: AUG-CC-PVTZ
  Basis Set: (AUG-CC-PVTZ AUX)
    Blend: AUG-CC-PVTZ-JKFIT

    Orbital Energies [Eh]
    ---------------------

    Doubly Occupied:

       1A    -20.629531     2A    -15.567324     3A    -11.297675
       4A    -11.292657     5A    -11.285977     6A    -11.279785
       7A    -11.262472     8A    -11.241775     9A    -11.240881
      10A    -11.235360    11A    -11.225834    12A     -1.461687
      13A     -1.255442    14A     -1.124325    15A     -1.087807
      16A     -1.034501    17A     -0.995224    18A     -0.864085
      19A     -0.859079    20A     -0.800691    21A     -0.784171
      22A     -0.744281    23A     -0.687642    24A     -0.660025
      25A     -0.639982    26A     -0.637760    27A     -0.606757
      28A     -0.600976    29A     -0.580967    30A     -0.559440
      31A     -0.547269    32A     -0.545095    33A     -0.505900
      34A     -0.433043    35A     -0.418100    36A     -0.384505
      37A     -0.348018    38A     -0.296577

  @DF-RHF Final Energy:  -474.30112882586019

   => Energetics <=

    Nuclear Repulsion Energy =            540.0736229531989920
    One-Electron Energy =               -1714.7042651981314521
    Two-Electron Energy =                 700.3295134190723275
    Total Energy =                       -474.3011288258601326
  Basis Set: (AUG-CC-PVTZ AUX)
    Blend: AUG-CC-PVTZ-RI
    Molecular point group: c1

    Geometry (in Angstrom), charge = 0, multiplicity = 1:

       Center              X                  Y                   Z               Mass
    ------------   -----------------  -----------------  -----------------  -----------------
         O            3.051130909845    -0.724048525713     0.000060801134    15.994914619570
         N           -1.110210090155    -1.163114525713    -0.000079198866    14.003074004430
         C            1.061918409845     0.134021274287    -0.000019198866    12.000000000000
         C           -0.524060090155     0.057085474287    -0.000003198866    12.000000000000
         C            1.845508909845     1.169535474287    -0.000101198866    12.000000000000
         C           -1.269223090155     1.245044474287     0.000083801134    12.000000000000
         C            1.731094909845    -1.065808525713     0.000078801134    12.000000000000
         C           -2.659982090155     1.173859474287     0.000081801134    12.000000000000
         C            3.104052909845     0.641591474287    -0.000045198866    12.000000000000
         C           -3.269159090155    -0.079978525713     0.000002801134    12.000000000000
         C           -2.450969090155    -1.211099525713    -0.000071198866    12.000000000000
         H            1.606020909845     2.224450474287    -0.000211198866     1.007825032230
         H           -0.767751090155     2.208768474287     0.000158801134     1.007825032230
         H            1.505668909845    -2.121030525713     0.000158801134     1.007825032230
         H            4.094965909845     1.070946474287    -0.000071198866     1.007825032230
         H           -3.257002090155     2.082725474287     0.000145801134     1.007825032230
         H           -4.350527090155    -0.183155525713    -0.000001198866     1.007825032230
         H           -2.886052090155    -2.209492525713    -0.000130198866     1.007825032230

  Basis Set: AUG-CC-PVTZ
    Blend: AUG-CC-PVTZ
  Basis Set: (AUG-CC-PVTZ AUX)
    Blend: AUG-CC-PVTZ-JKFIT
	 Reference Energy          =    -474.3011288258601894 [Eh]
	 Singles Energy            =      -0.0000000000000000 [Eh]
	 Same-Spin Energy          =      -0.5161550235468432 [Eh]
	 Opposite-Spin Energy      =      -1.5587183509425557 [Eh]
	 Correlation Energy        =      -2.0748733744893988 [Eh]
	 Total Energy              =    -476.3760022003496033 [Eh]

	 ================> DF-SCS-MP2 Energies <==================
	-----------------------------------------------------------
	 SCS Same-Spin Scale       =       0.3333333333333333 [-]
	 SCS Opposite-Spin Scale   =       1.2000000000000000 [-]
	 SCS Same-Spin Energy      =      -0.1720516745156144 [Eh]
	 SCS Opposite-Spin Energy  =      -1.8704620211310667 [Eh]
	 SCS Correlation Energy    =      -2.0425136956466812 [Eh]
	 SCS Total Energy          =    -476.3436425215068653 [Eh]
	-----------------------------------------------------------

  Dipole Moment: [D]
     X:    -1.3680      Y:     2.0590      Z:     0.0001     Total:     2.4720

*** Psi4 exiting successfully. Buy a developer a beer!
