                               Psi4 1.3.2 release

  ==> Input File <==

--------------------------------------------------------------------------
#psi4
#
memory 32 gb

molecule  {
0 1
  O        3.0870850    -0.7380670     0.0000600
  N       -1.0742560    -1.1771330    -0.0000800
  C        0.9761220     0.0434820    -0.0000150
  C       -0.3680126     0.1274655     0.0000029
  C        1.8814630     1.1555170    -0.0001020
  C       -1.2332690     1.2310260     0.0000830
  C        1.7670490    -1.0798270     0.0000780
  C       -2.6240280     1.1598410     0.0000810
  C        3.1400070     0.6275730    -0.0000460
  C       -3.2332050    -0.0939970     0.0000020
  C       -2.4150150    -1.2251180    -0.0000720
  H        1.6419750     2.2104320    -0.0002120
  H       -0.7317970     2.1947500     0.0001580
  H        1.5416230    -2.1350490     0.0001580
  H        4.1309200     1.0569280    -0.0000720
  H       -3.2210480     2.0687070     0.0001450
  H       -4.3145730    -0.1971740    -0.0000020
  H       -2.8500980    -2.2235110    -0.0001310
units angstrom
no_reorient  #important for SAPT in psi4, default
symmetry c1  #important for SAPT in psi4, default
}

set PROPERTIES_ORIGIN ["COM"]
properties('MP2/aug-cc-pvtz', properties = ['dipole'])
--------------------------------------------------------------------------

    Molecular point group: c1
  Charge       = 0
  Multiplicity = 1
  Basis Set: AUG-CC-PVTZ
    Blend: AUG-CC-PVTZ
  Basis Set: (AUG-CC-PVTZ AUX)
    Blend: AUG-CC-PVTZ-JKFIT

    Orbital Energies [Eh]
    ---------------------

    Doubly Occupied:

       1A    -20.635686     2A    -15.566875     3A    -11.305266
       4A    -11.297813     5A    -11.293089     6A    -11.275650
       7A    -11.261634     8A    -11.243241     9A    -11.240786
      10A    -11.238702    11A    -11.237170    12A     -1.465875
      13A     -1.227980    14A     -1.123331    15A     -1.077641
      16A     -1.035921    17A     -1.000787    18A     -0.893087
      19A     -0.853629    20A     -0.795843    21A     -0.784309
      22A     -0.750733    23A     -0.683573    24A     -0.654064
      25A     -0.646497    26A     -0.642441    27A     -0.611556
      28A     -0.592500    29A     -0.579230    30A     -0.572131
      31A     -0.545629    32A     -0.536524    33A     -0.515798
      34A     -0.437678    35A     -0.405090    36A     -0.375427
      37A     -0.351905    38A     -0.291225

  @DF-RHF Final Energy:  -474.29786636779147

   => Energetics <=

    Nuclear Repulsion Energy =            539.6122750049480601
    One-Electron Energy =               -1713.7276577760105738
    Two-Electron Energy =                 699.8175164032710427
    Total Energy =                       -474.2978663677914710
  Basis Set: (AUG-CC-PVTZ AUX)
    Blend: AUG-CC-PVTZ-RI
    Molecular point group: c1

    Geometry (in Angstrom), charge = 0, multiplicity = 1:

       Center              X                  Y                   Z               Mass
    ------------   -----------------  -----------------  -----------------  -----------------
         O            3.051267999270    -0.724700236150     0.000059816665    15.994914619570
         N           -1.110073000730    -1.163766236150    -0.000080183335    14.003074004430
         C            0.940304999270     0.056848763850    -0.000015183335    12.000000000000
         C           -0.403829600730     0.140832263850     0.000002716665    12.000000000000
         C            1.845645999270     1.168883763850    -0.000102183335    12.000000000000
         C           -1.269086000730     1.244392763850     0.000082816665    12.000000000000
         C            1.731231999270    -1.066460236150     0.000077816665    12.000000000000
         C           -2.659845000730     1.173207763850     0.000080816665    12.000000000000
         C            3.104189999270     0.640939763850    -0.000046183335    12.000000000000
         C           -3.269022000730    -0.080630236150     0.000001816665    12.000000000000
         C           -2.450832000730    -1.211751236150    -0.000072183335    12.000000000000
         H            1.606157999270     2.223798763850    -0.000212183335     1.007825032230
         H           -0.767614000730     2.208116763850     0.000157816665     1.007825032230
         H            1.505805999270    -2.121682236150     0.000157816665     1.007825032230
         H            4.095102999270     1.070294763850    -0.000072183335     1.007825032230
         H           -3.256865000730     2.082073763850     0.000144816665     1.007825032230
         H           -4.350390000730    -0.183807236150    -0.000002183335     1.007825032230
         H           -2.885915000730    -2.210144236150    -0.000131183335     1.007825032230

  Basis Set: AUG-CC-PVTZ
    Blend: AUG-CC-PVTZ
  Basis Set: (AUG-CC-PVTZ AUX)
    Blend: AUG-CC-PVTZ-JKFIT
	 Reference Energy          =    -474.2978663677914710 [Eh]
	 Singles Energy            =      -0.0000000000000000 [Eh]
	 Same-Spin Energy          =      -0.5172597111861088 [Eh]
	 Opposite-Spin Energy      =      -1.5633860208233687 [Eh]
	 Correlation Energy        =      -2.0806457320094776 [Eh]
	 Total Energy              =    -476.3785120998009575 [Eh]

	 ================> DF-SCS-MP2 Energies <==================
	-----------------------------------------------------------
	 SCS Same-Spin Scale       =       0.3333333333333333 [-]
	 SCS Opposite-Spin Scale   =       1.2000000000000000 [-]
	 SCS Same-Spin Energy      =      -0.1724199037287029 [Eh]
	 SCS Opposite-Spin Energy  =      -1.8760632249880425 [Eh]
	 SCS Correlation Energy    =      -2.0484831287167453 [Eh]
	 SCS Total Energy          =    -476.3463494965081964 [Eh]
	-----------------------------------------------------------

  Dipole Moment: [D]
     X:    -0.8360      Y:     2.0310      Z:     0.0001     Total:     2.1963

*** Psi4 exiting successfully. Buy a developer a beer!
