                               Psi4 1.3.2 release

  ==> Input File <==

--------------------------------------------------------------------------
#psi4
#
memory 32 gb

molecule  {
0 1
  O        3.0870850    -0.7380670     0.0000600
  N       -1.0742560    -1.1771330    -0.0000800
  C        0.9761220     0.0434820    -0.0000150
  C       -0.4881060     0.0430670    -0.0000040
  C        1.8421020     1.1864355    -0.0001046
  C       -1.2332690     1.2310260     0.0000830
  C        1.7670490    -1.0798270     0.0000780
  C       -2.6240280     1.1598410     0.0000810
  C        3.1400070     0.6275730    -0.0000460
  C       -3.2332050    -0.0939970     0.0000020
  C       -2.4150150    -1.2251180    -0.0000720
  H        1.6419750     2.2104320    -0.0002120
  H       -0.7317970     2.1947500     0.0001580
  H        1.5416230    -2.1350490     0.0001580
  H        4.1309200     1.0569280    -0.0000720
  H       -3.2210480     2.0687070     0.0001450
  H       -4.3145730    -0.1971740    -0.0000020
  H       -2.8500980    -2.2235110    -0.0001310
units angstrom
no_reorient  #important for SAPT in psi4, default
symmetry c1  #important for SAPT in psi4, default
}

set PROPERTIES_ORIGIN ["COM"]
properties('MP2/aug-cc-pvtz', properties = ['dipole'])
--------------------------------------------------------------------------

    Molecular point group: c1
  Charge       = 0
  Multiplicity = 1
  Basis Set: AUG-CC-PVTZ
    Blend: AUG-CC-PVTZ
  Basis Set: (AUG-CC-PVTZ AUX)
    Blend: AUG-CC-PVTZ-JKFIT

    Orbital Energies [Eh]
    ---------------------

    Doubly Occupied:

       1A    -20.632901     2A    -15.565420     3A    -11.301113
       4A    -11.293255     5A    -11.291280     6A    -11.279210
       7A    -11.263239     8A    -11.243313     9A    -11.241248
      10A    -11.241027    11A    -11.240266    12A     -1.459707
      13A     -1.258393    14A     -1.104269    15A     -1.088458
      16A     -1.029571    17A     -0.996337    18A     -0.874985
      19A     -0.863830    20A     -0.802468    21A     -0.775765
      22A     -0.745740    23A     -0.686144    24A     -0.663338
      25A     -0.645596    26A     -0.635210    27A     -0.609565
      28A     -0.586944    29A     -0.582810    30A     -0.569830
      31A     -0.548788    32A     -0.536898    33A     -0.519278
      34A     -0.424574    35A     -0.421748    36A     -0.383356
      37A     -0.343350    38A     -0.297483

  @DF-RHF Final Energy:  -474.32500820811936

   => Energetics <=

    Nuclear Repulsion Energy =            539.3958002559746774
    One-Electron Energy =               -1713.3481980949893568
    Two-Electron Energy =                 699.6273896308954363
    Total Energy =                       -474.3250082081193568
  Basis Set: (AUG-CC-PVTZ AUX)
    Blend: AUG-CC-PVTZ-RI
    Molecular point group: c1

    Geometry (in Angstrom), charge = 0, multiplicity = 1:

       Center              X                  Y                   Z               Mass
    ------------   -----------------  -----------------  -----------------  -----------------
         O            3.064459425267    -0.720275915075     0.000060602586    15.994914619570
         N           -1.096881574733    -1.159341915075    -0.000079397414    14.003074004430
         C            0.953496425267     0.061273084925    -0.000014397414    12.000000000000
         C           -0.510731574733     0.060858084925    -0.000003397414    12.000000000000
         C            1.819476425267     1.204226584925    -0.000103997414    12.000000000000
         C           -1.255894574733     1.248817084925     0.000083602586    12.000000000000
         C            1.744423425267    -1.062035915075     0.000078602586    12.000000000000
         C           -2.646653574733     1.177632084925     0.000081602586    12.000000000000
         C            3.117381425267     0.645364084925    -0.000045397414    12.000000000000
         C           -3.255830574733    -0.076205915075     0.000002602586    12.000000000000
         C           -2.437640574733    -1.207326915075    -0.000071397414    12.000000000000
         H            1.619349425267     2.228223084925    -0.000211397414     1.007825032230
         H           -0.754422574733     2.212541084925     0.000158602586     1.007825032230
         H            1.518997425267    -2.117257915075     0.000158602586     1.007825032230
         H            4.108294425267     1.074719084925    -0.000071397414     1.007825032230
         H           -3.243673574733     2.086498084925     0.000145602586     1.007825032230
         H           -4.337198574733    -0.179382915075    -0.000001397414     1.007825032230
         H           -2.872723574733    -2.205719915075    -0.000130397414     1.007825032230

  Basis Set: AUG-CC-PVTZ
    Blend: AUG-CC-PVTZ
  Basis Set: (AUG-CC-PVTZ AUX)
    Blend: AUG-CC-PVTZ-JKFIT
	 Reference Energy          =    -474.3250082081193568 [Eh]
	 Singles Energy            =      -0.0000000000000000 [Eh]
	 Same-Spin Energy          =      -0.5150240762644719 [Eh]
	 Opposite-Spin Energy      =      -1.5586277578763190 [Eh]
	 Correlation Energy        =      -2.0736518341407910 [Eh]
	 Total Energy              =    -476.3986600422601327 [Eh]

	 ================> DF-SCS-MP2 Energies <==================
	-----------------------------------------------------------
	 SCS Same-Spin Scale       =       0.3333333333333333 [-]
	 SCS Opposite-Spin Scale   =       1.2000000000000000 [-]
	 SCS Same-Spin Energy      =      -0.1716746920881573 [Eh]
	 SCS Opposite-Spin Energy  =      -1.8703533094515827 [Eh]
	 SCS Correlation Energy    =      -2.0420280015397401 [Eh]
	 SCS Total Energy          =    -476.3670362096590907 [Eh]
	-----------------------------------------------------------

  Dipole Moment: [D]
     X:    -1.3184      Y:     1.9999      Z:     0.0001     Total:     2.3954

*** Psi4 exiting successfully. Buy a developer a beer!
