                               Psi4 1.3.2 release

  ==> Input File <==

--------------------------------------------------------------------------
#psi4
#
memory 32 gb

molecule  {
0 1
  O        3.0870850    -0.7380670     0.0000600
  N       -1.0742560    -1.1771330    -0.0000800
  C        0.9761220     0.0434820    -0.0000150
  C       -0.6163636    -0.0283160    -0.0000088
  C        1.8814630     1.1555170    -0.0001020
  C       -1.2332690     1.2310260     0.0000830
  C        1.7670490    -1.0798270     0.0000780
  C       -2.6240280     1.1598410     0.0000810
  C        3.1400070     0.6275730    -0.0000460
  C       -3.2332050    -0.0939970     0.0000020
  C       -2.4150150    -1.2251180    -0.0000720
  H        1.6419750     2.2104320    -0.0002120
  H       -0.7317970     2.1947500     0.0001580
  H        1.5416230    -2.1350490     0.0001580
  H        4.1309200     1.0569280    -0.0000720
  H       -3.2210480     2.0687070     0.0001450
  H       -4.3145730    -0.1971740    -0.0000020
  H       -2.8500980    -2.2235110    -0.0001310
units angstrom
no_reorient  #important for SAPT in psi4, default
symmetry c1  #important for SAPT in psi4, default
}

set PROPERTIES_ORIGIN ["COM"]
properties('MP2/aug-cc-pvtz', properties = ['dipole'])
--------------------------------------------------------------------------

    Molecular point group: c1
  Charge       = 0
  Multiplicity = 1
  Basis Set: AUG-CC-PVTZ
    Blend: AUG-CC-PVTZ
  Basis Set: (AUG-CC-PVTZ AUX)
    Blend: AUG-CC-PVTZ-JKFIT

    Orbital Energies [Eh]
    ---------------------

    Doubly Occupied:

       1A    -20.621426     2A    -15.563092     3A    -11.291781
       4A    -11.288118     5A    -11.284132     6A    -11.282909
       7A    -11.265709     8A    -11.246274     9A    -11.244378
      10A    -11.235633    11A    -11.232663    12A     -1.451637
      13A     -1.302871    14A     -1.102985    15A     -1.089843
      16A     -1.032776    17A     -0.993017    18A     -0.878474
      19A     -0.861382    20A     -0.792603    21A     -0.769839
      22A     -0.740459    23A     -0.696039    24A     -0.668371
      25A     -0.647064    26A     -0.628783    27A     -0.601532
      28A     -0.584186    29A     -0.574892    30A     -0.569948
      31A     -0.566717    32A     -0.532221    33A     -0.512081
      34A     -0.423778    35A     -0.415700    36A     -0.393380
      37A     -0.346956    38A     -0.302139

  @DF-RHF Final Energy:  -474.30998181538155

   => Energetics <=

    Nuclear Repulsion Energy =            540.4830122441587719
    One-Electron Energy =               -1715.5144087393387053
    Two-Electron Energy =                 700.7214146797983858
    Total Energy =                       -474.3099818153815477
  Basis Set: (AUG-CC-PVTZ AUX)
    Blend: AUG-CC-PVTZ-RI
    Molecular point group: c1

    Geometry (in Angstrom), charge = 0, multiplicity = 1:

       Center              X                  Y                   Z               Mass
    ------------   -----------------  -----------------  -----------------  -----------------
         O            3.071813709127    -0.711812663722     0.000060784589    15.994914619570
         N           -1.089527290873    -1.150878663722    -0.000079215411    14.003074004430
         C            0.960850709127     0.069736336278    -0.000014215411    12.000000000000
         C           -0.631634890873    -0.002061663722    -0.000008015411    12.000000000000
         C            1.866191709127     1.181771336278    -0.000101215411    12.000000000000
         C           -1.248540290873     1.257280336278     0.000083784589    12.000000000000
         C            1.751777709127    -1.053572663722     0.000078784589    12.000000000000
         C           -2.639299290873     1.186095336278     0.000081784589    12.000000000000
         C            3.124735709127     0.653827336278    -0.000045215411    12.000000000000
         C           -3.248476290873    -0.067742663722     0.000002784589    12.000000000000
         C           -2.430286290873    -1.198863663722    -0.000071215411    12.000000000000
         H            1.626703709127     2.236686336278    -0.000211215411     1.007825032230
         H           -0.747068290873     2.221004336278     0.000158784589     1.007825032230
         H            1.526351709127    -2.108794663722     0.000158784589     1.007825032230
         H            4.115648709127     1.083182336278    -0.000071215411     1.007825032230
         H           -3.236319290873     2.094961336278     0.000145784589     1.007825032230
         H           -4.329844290873    -0.170919663722    -0.000001215411     1.007825032230
         H           -2.865369290873    -2.197256663722    -0.000130215411     1.007825032230

  Basis Set: AUG-CC-PVTZ
    Blend: AUG-CC-PVTZ
  Basis Set: (AUG-CC-PVTZ AUX)
    Blend: AUG-CC-PVTZ-JKFIT
	 Reference Energy          =    -474.3099818153815477 [Eh]
	 Singles Energy            =      -0.0000000000000000 [Eh]
	 Same-Spin Energy          =      -0.5126230469558619 [Eh]
	 Opposite-Spin Energy      =      -1.5543873615753703 [Eh]
	 Correlation Energy        =      -2.0670104085312322 [Eh]
	 Total Energy              =    -476.3769922239127936 [Eh]

	 ================> DF-SCS-MP2 Energies <==================
	-----------------------------------------------------------
	 SCS Same-Spin Scale       =       0.3333333333333333 [-]
	 SCS Opposite-Spin Scale   =       1.2000000000000000 [-]
	 SCS Same-Spin Energy      =      -0.1708743489852873 [Eh]
	 SCS Opposite-Spin Energy  =      -1.8652648338904443 [Eh]
	 SCS Correlation Energy    =      -2.0361391828757318 [Eh]
	 SCS Total Energy          =    -476.3461209982572768 [Eh]
	-----------------------------------------------------------

  Dipole Moment: [D]
     X:    -1.9317      Y:     1.9815      Z:     0.0001     Total:     2.7673

*** Psi4 exiting successfully. Buy a developer a beer!
