                               Psi4 1.3.2 release

  ==> Input File <==

--------------------------------------------------------------------------
#psi4
#
memory 32 gb

molecule  {
0 1
  O        3.0870850    -0.7380670     0.0000600
  N       -1.0742560    -1.1771330    -0.0000800
  C        0.9761220     0.0434820    -0.0000150
  C       -0.4881060     0.0430670    -0.0000040
  C        1.8619174     1.1711480    -0.0001033
  C       -1.2332690     1.2310260     0.0000830
  C        1.7670490    -1.0798270     0.0000780
  C       -2.6240280     1.1598410     0.0000810
  C        3.1400070     0.6275730    -0.0000460
  C       -3.2332050    -0.0939970     0.0000020
  C       -2.4150150    -1.2251180    -0.0000720
  H        1.6419750     2.2104320    -0.0002120
  H       -0.7317970     2.1947500     0.0001580
  H        1.5416230    -2.1350490     0.0001580
  H        4.1309200     1.0569280    -0.0000720
  H       -3.2210480     2.0687070     0.0001450
  H       -4.3145730    -0.1971740    -0.0000020
  H       -2.8500980    -2.2235110    -0.0001310
units angstrom
no_reorient  #important for SAPT in psi4, default
symmetry c1  #important for SAPT in psi4, default
}

set PROPERTIES_ORIGIN ["COM"]
properties('MP2/aug-cc-pvtz', properties = ['dipole'])
--------------------------------------------------------------------------

    Molecular point group: c1
  Charge       = 0
  Multiplicity = 1
  Basis Set: AUG-CC-PVTZ
    Blend: AUG-CC-PVTZ
  Basis Set: (AUG-CC-PVTZ AUX)
    Blend: AUG-CC-PVTZ-JKFIT

    Orbital Energies [Eh]
    ---------------------

    Doubly Occupied:

       1A    -20.630767     2A    -15.565556     3A    -11.297275
       4A    -11.293538     5A    -11.291778     6A    -11.279354
       7A    -11.263307     8A    -11.243360     9A    -11.241075
      10A    -11.240097    11A    -11.238831    12A     -1.459249
      13A     -1.258505    14A     -1.104856    15A     -1.088538
      16A     -1.031690    17A     -0.997253    18A     -0.875257
      19A     -0.863611    20A     -0.799124    21A     -0.776740
      22A     -0.745379    23A     -0.686668    24A     -0.662898
      25A     -0.645932    26A     -0.635397    27A     -0.608018
      28A     -0.585435    29A     -0.579901    30A     -0.571051
      31A     -0.548856    32A     -0.537777    33A     -0.520047
      34A     -0.424579    35A     -0.421874    36A     -0.383581
      37A     -0.345971    38A     -0.298287

  @DF-RHF Final Energy:  -474.32897301236932

   => Energetics <=

    Nuclear Repulsion Energy =            539.6300183131960466
    One-Electron Energy =               -1713.8351649240212282
    Two-Electron Energy =                 699.8761735984558072
    Total Energy =                       -474.3289730123692607
  Basis Set: (AUG-CC-PVTZ AUX)
    Blend: AUG-CC-PVTZ-RI
    Molecular point group: c1

    Geometry (in Angstrom), charge = 0, multiplicity = 1:

       Center              X                  Y                   Z               Mass
    ------------   -----------------  -----------------  -----------------  -----------------
         O            3.062820126617    -0.719011202876     0.000060495039    15.994914619570
         N           -1.098520873383    -1.158077202876    -0.000079504961    14.003074004430
         C            0.951857126617     0.062537797124    -0.000014504961    12.000000000000
         C           -0.512370873383     0.062122797124    -0.000003504961    12.000000000000
         C            1.837652526617     1.190203797124    -0.000102804961    12.000000000000
         C           -1.257533873383     1.250081797124     0.000083495039    12.000000000000
         C            1.742784126617    -1.060771202876     0.000078495039    12.000000000000
         C           -2.648292873383     1.178896797124     0.000081495039    12.000000000000
         C            3.115742126617     0.646628797124    -0.000045504961    12.000000000000
         C           -3.257469873383    -0.074941202876     0.000002495039    12.000000000000
         C           -2.439279873383    -1.206062202876    -0.000071504961    12.000000000000
         H            1.617710126617     2.229487797124    -0.000211504961     1.007825032230
         H           -0.756061873383     2.213805797124     0.000158495039     1.007825032230
         H            1.517358126617    -2.115993202876     0.000158495039     1.007825032230
         H            4.106655126617     1.075983797124    -0.000071504961     1.007825032230
         H           -3.245312873383     2.087762797124     0.000145495039     1.007825032230
         H           -4.338837873383    -0.178118202876    -0.000001504961     1.007825032230
         H           -2.874362873383    -2.204455202876    -0.000130504961     1.007825032230

  Basis Set: AUG-CC-PVTZ
    Blend: AUG-CC-PVTZ
  Basis Set: (AUG-CC-PVTZ AUX)
    Blend: AUG-CC-PVTZ-JKFIT
	 Reference Energy          =    -474.3289730123693175 [Eh]
	 Singles Energy            =      -0.0000000000000000 [Eh]
	 Same-Spin Energy          =      -0.5145909901352470 [Eh]
	 Opposite-Spin Energy      =      -1.5577433748462686 [Eh]
	 Correlation Energy        =      -2.0723343649815158 [Eh]
	 Total Energy              =    -476.4013073773508609 [Eh]

	 ================> DF-SCS-MP2 Energies <==================
	-----------------------------------------------------------
	 SCS Same-Spin Scale       =       0.3333333333333333 [-]
	 SCS Opposite-Spin Scale   =       1.2000000000000000 [-]
	 SCS Same-Spin Energy      =      -0.1715303300450823 [Eh]
	 SCS Opposite-Spin Energy  =      -1.8692920498155221 [Eh]
	 SCS Correlation Energy    =      -2.0408223798606047 [Eh]
	 SCS Total Energy          =    -476.3697953922299462 [Eh]
	-----------------------------------------------------------

  Dipole Moment: [D]
     X:    -1.3309      Y:     2.0119      Z:     0.0001     Total:     2.4123

*** Psi4 exiting successfully. Buy a developer a beer!
