                               Psi4 1.3.2 release

  ==> Input File <==

--------------------------------------------------------------------------
#psi4
#
memory 32 gb

molecule  {
0 1
  O        3.0870850    -0.7380670     0.0000600
  N       -1.0742560    -1.1771330    -0.0000800
  C        0.9761220     0.0434820    -0.0000150
  C       -0.5727890    -0.0060191    -0.0000081
  C        1.8814630     1.1555170    -0.0001020
  C       -1.2332690     1.2310260     0.0000830
  C        1.7670490    -1.0798270     0.0000780
  C       -2.6240280     1.1598410     0.0000810
  C        3.1400070     0.6275730    -0.0000460
  C       -3.2332050    -0.0939970     0.0000020
  C       -2.4150150    -1.2251180    -0.0000720
  H        1.6419750     2.2104320    -0.0002120
  H       -0.7317970     2.1947500     0.0001580
  H        1.5416230    -2.1350490     0.0001580
  H        4.1309200     1.0569280    -0.0000720
  H       -3.2210480     2.0687070     0.0001450
  H       -4.3145730    -0.1971740    -0.0000020
  H       -2.8500980    -2.2235110    -0.0001310
units angstrom
no_reorient  #important for SAPT in psi4, default
symmetry c1  #important for SAPT in psi4, default
}

set PROPERTIES_ORIGIN ["COM"]
properties('MP2/aug-cc-pvtz', properties = ['dipole'])
--------------------------------------------------------------------------

    Molecular point group: c1
  Charge       = 0
  Multiplicity = 1
  Basis Set: AUG-CC-PVTZ
    Blend: AUG-CC-PVTZ
  Basis Set: (AUG-CC-PVTZ AUX)
    Blend: AUG-CC-PVTZ-JKFIT

    Orbital Energies [Eh]
    ---------------------

    Doubly Occupied:

       1A    -20.623944     2A    -15.563870     3A    -11.291702
       4A    -11.290024     5A    -11.286579     6A    -11.282342
       7A    -11.264787     8A    -11.244905     9A    -11.243127
      10A    -11.237636    11A    -11.234492    12A     -1.454168
      13A     -1.286660    14A     -1.098490    15A     -1.094220
      16A     -1.033074    17A     -0.995075    18A     -0.873251
      19A     -0.865518    20A     -0.794245    21A     -0.772485
      22A     -0.741543    23A     -0.692785    24A     -0.667036
      25A     -0.646492    26A     -0.631169    27A     -0.603325
      28A     -0.583876    29A     -0.574887    30A     -0.568590
      31A     -0.561895    32A     -0.534134    33A     -0.515307
      34A     -0.425804    35A     -0.417796    36A     -0.390579
      37A     -0.347293    38A     -0.301772

  @DF-RHF Final Energy:  -474.32347949149482

   => Energetics <=

    Nuclear Repulsion Energy =            540.2440697290926437
    One-Electron Energy =               -1715.0653491270084032
    Two-Electron Energy =                 700.4977999064209371
    Total Energy =                       -474.3234794914948225
  Basis Set: (AUG-CC-PVTZ AUX)
    Blend: AUG-CC-PVTZ-RI
    Molecular point group: c1

    Geometry (in Angstrom), charge = 0, multiplicity = 1:

       Center              X                  Y                   Z               Mass
    ------------   -----------------  -----------------  -----------------  -----------------
         O            3.068208847102    -0.713657253186     0.000060726679    15.994914619570
         N           -1.093132152898    -1.152723253186    -0.000079273321    14.003074004430
         C            0.957245847102     0.067891746814    -0.000014273321    12.000000000000
         C           -0.591665152898     0.018390646814    -0.000007373321    12.000000000000
         C            1.862586847102     1.179926746814    -0.000101273321    12.000000000000
         C           -1.252145152898     1.255435746814     0.000083726679    12.000000000000
         C            1.748172847102    -1.055417253186     0.000078726679    12.000000000000
         C           -2.642904152898     1.184250746814     0.000081726679    12.000000000000
         C            3.121130847102     0.651982746814    -0.000045273321    12.000000000000
         C           -3.252081152898    -0.069587253186     0.000002726679    12.000000000000
         C           -2.433891152898    -1.200708253186    -0.000071273321    12.000000000000
         H            1.623098847102     2.234841746814    -0.000211273321     1.007825032230
         H           -0.750673152898     2.219159746814     0.000158726679     1.007825032230
         H            1.522746847102    -2.110639253186     0.000158726679     1.007825032230
         H            4.112043847102     1.081337746814    -0.000071273321     1.007825032230
         H           -3.239924152898     2.093116746814     0.000145726679     1.007825032230
         H           -4.333449152898    -0.172764253186    -0.000001273321     1.007825032230
         H           -2.868974152898    -2.199101253186    -0.000130273321     1.007825032230

  Basis Set: AUG-CC-PVTZ
    Blend: AUG-CC-PVTZ
  Basis Set: (AUG-CC-PVTZ AUX)
    Blend: AUG-CC-PVTZ-JKFIT
	 Reference Energy          =    -474.3234794914948225 [Eh]
	 Singles Energy            =      -0.0000000000000000 [Eh]
	 Same-Spin Energy          =      -0.5129685791878760 [Eh]
	 Opposite-Spin Energy      =      -1.5547977648143765 [Eh]
	 Correlation Energy        =      -2.0677663440022522 [Eh]
	 Total Energy              =    -476.3912458354971022 [Eh]

	 ================> DF-SCS-MP2 Energies <==================
	-----------------------------------------------------------
	 SCS Same-Spin Scale       =       0.3333333333333333 [-]
	 SCS Opposite-Spin Scale   =       1.2000000000000000 [-]
	 SCS Same-Spin Energy      =      -0.1709895263959587 [Eh]
	 SCS Opposite-Spin Energy  =      -1.8657573177772517 [Eh]
	 SCS Correlation Energy    =      -2.0367468441732104 [Eh]
	 SCS Total Energy          =    -476.3602263356680169 [Eh]
	-----------------------------------------------------------

  Dipole Moment: [D]
     X:    -1.7195      Y:     1.9997      Z:     0.0001     Total:     2.6373

*** Psi4 exiting successfully. Buy a developer a beer!
