                               Psi4 1.3.2 release

  ==> Input File <==

--------------------------------------------------------------------------
#psi4
#
memory 32 gb

molecule  {
0 1
  O        3.0870850    -0.7380670     0.0000600
  N       -0.9434994    -1.2317180    -0.0000846
  C        0.9761220     0.0434820    -0.0000150
  C       -0.4881060     0.0430670    -0.0000040
  C        1.8814630     1.1555170    -0.0001020
  C       -1.2332690     1.2310260     0.0000830
  C        1.7670490    -1.0798270     0.0000780
  C       -2.6240280     1.1598410     0.0000810
  C        3.1400070     0.6275730    -0.0000460
  C       -3.2332050    -0.0939970     0.0000020
  C       -2.4150150    -1.2251180    -0.0000720
  H        1.6419750     2.2104320    -0.0002120
  H       -0.7317970     2.1947500     0.0001580
  H        1.5416230    -2.1350490     0.0001580
  H        4.1309200     1.0569280    -0.0000720
  H       -3.2210480     2.0687070     0.0001450
  H       -4.3145730    -0.1971740    -0.0000020
  H       -2.8500980    -2.2235110    -0.0001310
units angstrom
no_reorient  #important for SAPT in psi4, default
symmetry c1  #important for SAPT in psi4, default
}

set PROPERTIES_ORIGIN ["COM"]
properties('MP2/aug-cc-pvtz', properties = ['dipole'])
--------------------------------------------------------------------------

    Molecular point group: c1
  Charge       = 0
  Multiplicity = 1
  Basis Set: AUG-CC-PVTZ
    Blend: AUG-CC-PVTZ
  Basis Set: (AUG-CC-PVTZ AUX)
    Blend: AUG-CC-PVTZ-JKFIT

    Orbital Energies [Eh]
    ---------------------

    Doubly Occupied:

       1A    -20.626488     2A    -15.581951     3A    -11.293408
       4A    -11.293344     5A    -11.290858     6A    -11.290594
       7A    -11.269625     8A    -11.246240     9A    -11.246066
      10A    -11.234971    11A    -11.233992    12A     -1.456524
      13A     -1.238294    14A     -1.104127    15A     -1.087307
      16A     -1.028290    17A     -0.996469    18A     -0.876303
      19A     -0.861495    20A     -0.791977    21A     -0.771917
      22A     -0.741379    23A     -0.686439    24A     -0.655617
      25A     -0.646215    26A     -0.633374    27A     -0.604020
      28A     -0.584398    29A     -0.572483    30A     -0.570938
      31A     -0.540253    32A     -0.536526    33A     -0.505795
      34A     -0.442446    35A     -0.424968    36A     -0.377047
      37A     -0.346288    38A     -0.300216

  @DF-RHF Final Energy:  -474.30677071280826

   => Energetics <=

    Nuclear Repulsion Energy =            538.3969620485635232
    One-Electron Energy =               -1711.4301766831692930
    Two-Electron Energy =                 698.7264439217976815
    Total Energy =                       -474.3067707128082020
  Basis Set: (AUG-CC-PVTZ AUX)
    Blend: AUG-CC-PVTZ-RI
    Molecular point group: c1

    Geometry (in Angstrom), charge = 0, multiplicity = 1:

       Center              X                  Y                   Z               Mass
    ------------   -----------------  -----------------  -----------------  -----------------
         O            3.048580194253    -0.712448557882     0.000060831566    15.994914619570
         N           -0.982004205747    -1.206099557882    -0.000083768434    14.003074004430
         C            0.937617194253     0.069100442118    -0.000014168434    12.000000000000
         C           -0.526610805747     0.068685442118    -0.000003168434    12.000000000000
         C            1.842958194253     1.181135442118    -0.000101168434    12.000000000000
         C           -1.271773805747     1.256644442118     0.000083831566    12.000000000000
         C            1.728544194253    -1.054208557882     0.000078831566    12.000000000000
         C           -2.662532805747     1.185459442118     0.000081831566    12.000000000000
         C            3.101502194253     0.653191442118    -0.000045168434    12.000000000000
         C           -3.271709805747    -0.068378557882     0.000002831566    12.000000000000
         C           -2.453519805747    -1.199499557882    -0.000071168434    12.000000000000
         H            1.603470194253     2.236050442118    -0.000211168434     1.007825032230
         H           -0.770301805747     2.220368442118     0.000158831566     1.007825032230
         H            1.503118194253    -2.109430557882     0.000158831566     1.007825032230
         H            4.092415194253     1.082546442118    -0.000071168434     1.007825032230
         H           -3.259552805747     2.094325442118     0.000145831566     1.007825032230
         H           -4.353077805747    -0.171555557882    -0.000001168434     1.007825032230
         H           -2.888602805747    -2.197892557882    -0.000130168434     1.007825032230

  Basis Set: AUG-CC-PVTZ
    Blend: AUG-CC-PVTZ
  Basis Set: (AUG-CC-PVTZ AUX)
    Blend: AUG-CC-PVTZ-JKFIT
	 Reference Energy          =    -474.3067707128082588 [Eh]
	 Singles Energy            =      -0.0000000000000000 [Eh]
	 Same-Spin Energy          =      -0.5157696276355570 [Eh]
	 Opposite-Spin Energy      =      -1.5626747294315126 [Eh]
	 Correlation Energy        =      -2.0784443570670694 [Eh]
	 Total Energy              =    -476.3852150698753007 [Eh]

	 ================> DF-SCS-MP2 Energies <==================
	-----------------------------------------------------------
	 SCS Same-Spin Scale       =       0.3333333333333333 [-]
	 SCS Opposite-Spin Scale   =       1.2000000000000000 [-]
	 SCS Same-Spin Energy      =      -0.1719232092118523 [Eh]
	 SCS Opposite-Spin Energy  =      -1.8752096753178151 [Eh]
	 SCS Correlation Energy    =      -2.0471328845296677 [Eh]
	 SCS Total Energy          =    -476.3539035973379328 [Eh]
	-----------------------------------------------------------

  Dipole Moment: [D]
     X:    -1.6434      Y:     2.1328      Z:     0.0001     Total:     2.6925

*** Psi4 exiting successfully. Buy a developer a beer!
