                               Psi4 1.3.2 release

  ==> Input File <==

--------------------------------------------------------------------------
#psi4
#
memory 32 gb

molecule  {
0 1
  O        3.0870850    -0.7380670     0.0000600
  N       -1.0313146    -1.1968460    -0.0000816
  C        0.9761220     0.0434820    -0.0000150
  C       -0.4881060     0.0430670    -0.0000040
  C        1.8814630     1.1555170    -0.0001020
  C       -1.2332690     1.2310260     0.0000830
  C        1.7670490    -1.0798270     0.0000780
  C       -2.6240280     1.1598410     0.0000810
  C        3.1400070     0.6275730    -0.0000460
  C       -3.2332050    -0.0939970     0.0000020
  C       -2.4150150    -1.2251180    -0.0000720
  H        1.6419750     2.2104320    -0.0002120
  H       -0.7317970     2.1947500     0.0001580
  H        1.5416230    -2.1350490     0.0001580
  H        4.1309200     1.0569280    -0.0000720
  H       -3.2210480     2.0687070     0.0001450
  H       -4.3145730    -0.1971740    -0.0000020
  H       -2.8500980    -2.2235110    -0.0001310
units angstrom
no_reorient  #important for SAPT in psi4, default
symmetry c1  #important for SAPT in psi4, default
}

set PROPERTIES_ORIGIN ["COM"]
properties('MP2/aug-cc-pvtz', properties = ['dipole'])
--------------------------------------------------------------------------

    Molecular point group: c1
  Charge       = 0
  Multiplicity = 1
  Basis Set: AUG-CC-PVTZ
    Blend: AUG-CC-PVTZ
  Basis Set: (AUG-CC-PVTZ AUX)
    Blend: AUG-CC-PVTZ-JKFIT

    Orbital Energies [Eh]
    ---------------------

    Doubly Occupied:

       1A    -20.627975     2A    -15.571439     3A    -11.292922
       4A    -11.292505     5A    -11.292454     6A    -11.284526
       7A    -11.265505     8A    -11.244244     9A    -11.242879
      10A    -11.237670    11A    -11.236266    12A     -1.458145
      13A     -1.250786    14A     -1.104062    15A     -1.089058
      16A     -1.032123    17A     -0.997649    18A     -0.874410
      19A     -0.864257    20A     -0.794498    21A     -0.775820
      22A     -0.743670    23A     -0.686555    24A     -0.660112
      25A     -0.646602    26A     -0.634938    27A     -0.606016
      28A     -0.585017    29A     -0.574458    30A     -0.571682
      31A     -0.545526    32A     -0.537528    33A     -0.516004
      34A     -0.430094    35A     -0.424437    36A     -0.381335
      37A     -0.348102    38A     -0.299547

  @DF-RHF Final Energy:  -474.32635019315421

   => Energetics <=

    Nuclear Repulsion Energy =            539.3314624735537564
    One-Electron Energy =               -1713.2739918384595512
    Two-Electron Energy =                 699.6161791717515825
    Total Energy =                       -474.3263501931542123
  Basis Set: (AUG-CC-PVTZ AUX)
    Blend: AUG-CC-PVTZ-RI
    Molecular point group: c1

    Geometry (in Angstrom), charge = 0, multiplicity = 1:

       Center              X                  Y                   Z               Mass
    ------------   -----------------  -----------------  -----------------  -----------------
         O            3.057057680043    -0.715815023875     0.000060541952    15.994914619570
         N           -1.061341919957    -1.174594023875    -0.000081058048    14.003074004430
         C            0.946094680043     0.065733976125    -0.000014458048    12.000000000000
         C           -0.518133319957     0.065318976125    -0.000003458048    12.000000000000
         C            1.851435680043     1.177768976125    -0.000101458048    12.000000000000
         C           -1.263296319957     1.253277976125     0.000083541952    12.000000000000
         C            1.737021680043    -1.057575023875     0.000078541952    12.000000000000
         C           -2.654055319957     1.182092976125     0.000081541952    12.000000000000
         C            3.109979680043     0.649824976125    -0.000045458048    12.000000000000
         C           -3.263232319957    -0.071745023875     0.000002541952    12.000000000000
         C           -2.445042319957    -1.202866023875    -0.000071458048    12.000000000000
         H            1.611947680043     2.232683976125    -0.000211458048     1.007825032230
         H           -0.761824319957     2.217001976125     0.000158541952     1.007825032230
         H            1.511595680043    -2.112797023875     0.000158541952     1.007825032230
         H            4.100892680043     1.079179976125    -0.000071458048     1.007825032230
         H           -3.251075319957     2.090958976125     0.000145541952     1.007825032230
         H           -4.344600319957    -0.174922023875    -0.000001458048     1.007825032230
         H           -2.880125319957    -2.201259023875    -0.000130458048     1.007825032230

  Basis Set: AUG-CC-PVTZ
    Blend: AUG-CC-PVTZ
  Basis Set: (AUG-CC-PVTZ AUX)
    Blend: AUG-CC-PVTZ-JKFIT
	 Reference Energy          =    -474.3263501931542123 [Eh]
	 Singles Energy            =      -0.0000000000000000 [Eh]
	 Same-Spin Energy          =      -0.5146642758745570 [Eh]
	 Opposite-Spin Energy      =      -1.5585940393431139 [Eh]
	 Correlation Energy        =      -2.0732583152176707 [Eh]
	 Total Energy              =    -476.3996085083718981 [Eh]

	 ================> DF-SCS-MP2 Energies <==================
	-----------------------------------------------------------
	 SCS Same-Spin Scale       =       0.3333333333333333 [-]
	 SCS Opposite-Spin Scale   =       1.2000000000000000 [-]
	 SCS Same-Spin Energy      =      -0.1715547586248523 [Eh]
	 SCS Opposite-Spin Energy  =      -1.8703128472117365 [Eh]
	 SCS Correlation Energy    =      -2.0418676058365888 [Eh]
	 SCS Total Energy          =    -476.3682177989908269 [Eh]
	-----------------------------------------------------------

  Dipole Moment: [D]
     X:    -1.4516      Y:     2.0647      Z:     0.0001     Total:     2.5240

*** Psi4 exiting successfully. Buy a developer a beer!
