                               Psi4 1.3.2 release

  ==> Input File <==

--------------------------------------------------------------------------
#psi4
#
memory 32 gb

molecule  {
0 1
  O        3.1077094    -0.8309806     0.0000674
  N       -1.0742560    -1.1771330    -0.0000800
  C        0.9761220     0.0434820    -0.0000150
  C       -0.4881060     0.0430670    -0.0000040
  C        1.8814630     1.1555170    -0.0001020
  C       -1.2332690     1.2310260     0.0000830
  C        1.7670490    -1.0798270     0.0000780
  C       -2.6240280     1.1598410     0.0000810
  C        3.1400070     0.6275730    -0.0000460
  C       -3.2332050    -0.0939970     0.0000020
  C       -2.4150150    -1.2251180    -0.0000720
  H        1.6419750     2.2104320    -0.0002120
  H       -0.7317970     2.1947500     0.0001580
  H        1.5416230    -2.1350490     0.0001580
  H        4.1309200     1.0569280    -0.0000720
  H       -3.2210480     2.0687070     0.0001450
  H       -4.3145730    -0.1971740    -0.0000020
  H       -2.8500980    -2.2235110    -0.0001310
units angstrom
no_reorient  #important for SAPT in psi4, default
symmetry c1  #important for SAPT in psi4, default
}

set PROPERTIES_ORIGIN ["COM"]
properties('MP2/aug-cc-pvtz', properties = ['dipole'])
--------------------------------------------------------------------------

    Molecular point group: c1
  Charge       = 0
  Multiplicity = 1
  Basis Set: AUG-CC-PVTZ
    Blend: AUG-CC-PVTZ
  Basis Set: (AUG-CC-PVTZ AUX)
    Blend: AUG-CC-PVTZ-JKFIT

    Orbital Energies [Eh]
    ---------------------

    Doubly Occupied:

       1A    -20.628206     2A    -15.565309     3A    -11.299290
       4A    -11.298267     5A    -11.293460     6A    -11.279764
       7A    -11.263845     8A    -11.248294     9A    -11.243702
      10A    -11.240824    11A    -11.239285    12A     -1.431552
      13A     -1.258755    14A     -1.110498    15A     -1.088925
      16A     -1.036484    17A     -0.987534    18A     -0.872828
      19A     -0.862573    20A     -0.793669    21A     -0.780310
      22A     -0.740738    23A     -0.684611    24A     -0.663588
      25A     -0.645422    26A     -0.620802    27A     -0.597211
      28A     -0.582292    29A     -0.577103    30A     -0.573146
      31A     -0.548741    32A     -0.543427    33A     -0.520799
      34A     -0.428583    35A     -0.421833    36A     -0.385125
      37A     -0.354979    38A     -0.296416

  @DF-RHF Final Energy:  -474.31985996206424

   => Energetics <=

    Nuclear Repulsion Energy =            537.7066480060963158
    One-Electron Energy =               -1710.0366412570683678
    Two-Electron Energy =                 698.0101332889079231
    Total Energy =                       -474.3198599620642426
  Basis Set: (AUG-CC-PVTZ AUX)
    Blend: AUG-CC-PVTZ-RI
    Molecular point group: c1

    Geometry (in Angstrom), charge = 0, multiplicity = 1:

       Center              X                  Y                   Z               Mass
    ------------   -----------------  -----------------  -----------------  -----------------
         O            3.079553303160    -0.800386125125     0.000066971496    15.994914619570
         N           -1.102412096840    -1.146538525125    -0.000080428504    14.003074004430
         C            0.947965903160     0.074076474875    -0.000015428504    12.000000000000
         C           -0.516262096840     0.073661474875    -0.000004428504    12.000000000000
         C            1.853306903160     1.186111474875    -0.000102428504    12.000000000000
         C           -1.261425096840     1.261620474875     0.000082571496    12.000000000000
         C            1.738892903160    -1.049232525125     0.000077571496    12.000000000000
         C           -2.652184096840     1.190435474875     0.000080571496    12.000000000000
         C            3.111850903160     0.658167474875    -0.000046428504    12.000000000000
         C           -3.261361096840    -0.063402525125     0.000001571496    12.000000000000
         C           -2.443171096840    -1.194523525125    -0.000072428504    12.000000000000
         H            1.613818903160     2.241026474875    -0.000212428504     1.007825032230
         H           -0.759953096840     2.225344474875     0.000157571496     1.007825032230
         H            1.513466903160    -2.104454525125     0.000157571496     1.007825032230
         H            4.102763903160     1.087522474875    -0.000072428504     1.007825032230
         H           -3.249204096840     2.099301474875     0.000144571496     1.007825032230
         H           -4.342729096840    -0.166579525125    -0.000002428504     1.007825032230
         H           -2.878254096840    -2.192916525125    -0.000131428504     1.007825032230

  Basis Set: AUG-CC-PVTZ
    Blend: AUG-CC-PVTZ
  Basis Set: (AUG-CC-PVTZ AUX)
    Blend: AUG-CC-PVTZ-JKFIT
	 Reference Energy          =    -474.3198599620642426 [Eh]
	 Singles Energy            =      -0.0000000000000000 [Eh]
	 Same-Spin Energy          =      -0.5144579892578849 [Eh]
	 Opposite-Spin Energy      =      -1.5600148909825327 [Eh]
	 Correlation Energy        =      -2.0744728802404175 [Eh]
	 Total Energy              =    -476.3943328423046637 [Eh]

	 ================> DF-SCS-MP2 Energies <==================
	-----------------------------------------------------------
	 SCS Same-Spin Scale       =       0.3333333333333333 [-]
	 SCS Opposite-Spin Scale   =       1.2000000000000000 [-]
	 SCS Same-Spin Energy      =      -0.1714859964192950 [Eh]
	 SCS Opposite-Spin Energy  =      -1.8720178691790390 [Eh]
	 SCS Correlation Energy    =      -2.0435038655983337 [Eh]
	 SCS Total Energy          =    -476.3633638276625675 [Eh]
	-----------------------------------------------------------

  Dipole Moment: [D]
     X:    -1.4450      Y:     2.2503      Z:     0.0001     Total:     2.6743

*** Psi4 exiting successfully. Buy a developer a beer!
