                               Psi4 1.3.2 release

  ==> Input File <==

--------------------------------------------------------------------------
#psi4
#
memory 32 gb

molecule  {
0 1
  O        3.0870850    -0.7380670     0.0000600
  N       -1.0742560    -1.1771330    -0.0000800
  C        0.9761220     0.0434820    -0.0000150
  C       -0.4881060     0.0430670    -0.0000040
  C        1.8814630     1.1555170    -0.0001020
  C       -1.2332690     1.2310260     0.0000830
  C        1.7670490    -1.0798270     0.0000780
  C       -2.6240280     1.1598410     0.0000810
  C        3.1400070     0.6275730    -0.0000460
  C       -3.2332050    -0.0939970     0.0000020
  C       -2.4150150    -1.2251180    -0.0000720
  H        1.6862526     2.0153948    -0.0001917
  H       -0.7317970     2.1947500     0.0001580
  H        1.5416230    -2.1350490     0.0001580
  H        4.1309200     1.0569280    -0.0000720
  H       -3.2210480     2.0687070     0.0001450
  H       -4.3145730    -0.1971740    -0.0000020
  H       -2.8500980    -2.2235110    -0.0001310
units angstrom
no_reorient  #important for SAPT in psi4, default
symmetry c1  #important for SAPT in psi4, default
}

set PROPERTIES_ORIGIN ["COM"]
properties('MP2/aug-cc-pvtz', properties = ['dipole'])
--------------------------------------------------------------------------

    Molecular point group: c1
  Charge       = 0
  Multiplicity = 1
  Basis Set: AUG-CC-PVTZ
    Blend: AUG-CC-PVTZ
  Basis Set: (AUG-CC-PVTZ AUX)
    Blend: AUG-CC-PVTZ-JKFIT

    Orbital Energies [Eh]
    ---------------------

    Doubly Occupied:

       1A    -20.627897     2A    -15.565572     3A    -11.292949
       4A    -11.292861     5A    -11.292200     6A    -11.279519
       7A    -11.263491     8A    -11.243589     9A    -11.241101
      10A    -11.237596    11A    -11.214376    12A     -1.458091
      13A     -1.258567    14A     -1.108882    15A     -1.088835
      16A     -1.037967    17A     -0.999121    18A     -0.876668
      19A     -0.865034    20A     -0.824203    21A     -0.777580
      22A     -0.752186    23A     -0.688576    24A     -0.666054
      25A     -0.648308    26A     -0.634866    27A     -0.611717
      28A     -0.593125    29A     -0.585314    30A     -0.573126
      31A     -0.548875    32A     -0.537739    33A     -0.520868
      34A     -0.424208    35A     -0.421924    36A     -0.383883
      37A     -0.348717    38A     -0.298546

  @DF-RHF Final Energy:  -474.29506244121728

   => Energetics <=

    Nuclear Repulsion Energy =            541.0157314863483862
    One-Electron Energy =               -1716.4533323733505767
    Two-Electron Energy =                 701.1425384457849077
    Total Energy =                       -474.2950624412172829
  Basis Set: (AUG-CC-PVTZ AUX)
    Blend: AUG-CC-PVTZ-RI
    Molecular point group: c1

    Geometry (in Angstrom), charge = 0, multiplicity = 1:

       Center              X                  Y                   Z               Mass
    ------------   -----------------  -----------------  -----------------  -----------------
         O            3.060895507835    -0.716362957078     0.000060246448    15.994914619570
         N           -1.100445492165    -1.155428957078    -0.000079753552    14.003074004430
         C            0.949932507835     0.065186042922    -0.000014753552    12.000000000000
         C           -0.514295492165     0.064771042922    -0.000003753552    12.000000000000
         C            1.855273507835     1.177221042922    -0.000101753552    12.000000000000
         C           -1.259458492165     1.252730042922     0.000083246448    12.000000000000
         C            1.740859507835    -1.058122957078     0.000078246448    12.000000000000
         C           -2.650217492165     1.181545042922     0.000081246448    12.000000000000
         C            3.113817507835     0.649277042922    -0.000045753552    12.000000000000
         C           -3.259394492165    -0.072292957078     0.000002246448    12.000000000000
         C           -2.441204492165    -1.203413957078    -0.000071753552    12.000000000000
         H            1.660063107835     2.037098842922    -0.000191453552     1.007825032230
         H           -0.757986492165     2.216454042922     0.000158246448     1.007825032230
         H            1.515433507835    -2.113344957078     0.000158246448     1.007825032230
         H            4.104730507835     1.078632042922    -0.000071753552     1.007825032230
         H           -3.247237492165     2.090411042922     0.000145246448     1.007825032230
         H           -4.340762492165    -0.175469957078    -0.000001753552     1.007825032230
         H           -2.876287492165    -2.201806957078    -0.000130753552     1.007825032230

  Basis Set: AUG-CC-PVTZ
    Blend: AUG-CC-PVTZ
  Basis Set: (AUG-CC-PVTZ AUX)
    Blend: AUG-CC-PVTZ-JKFIT
	 Reference Energy          =    -474.2950624412172829 [Eh]
	 Singles Energy            =      -0.0000000000000000 [Eh]
	 Same-Spin Energy          =      -0.5139709501900500 [Eh]
	 Opposite-Spin Energy      =      -1.5563426602413926 [Eh]
	 Correlation Energy        =      -2.0703136104314428 [Eh]
	 Total Energy              =    -476.3653760516487523 [Eh]

	 ================> DF-SCS-MP2 Energies <==================
	-----------------------------------------------------------
	 SCS Same-Spin Scale       =       0.3333333333333333 [-]
	 SCS Opposite-Spin Scale   =       1.2000000000000000 [-]
	 SCS Same-Spin Energy      =      -0.1713236500633500 [Eh]
	 SCS Opposite-Spin Energy  =      -1.8676111922896710 [Eh]
	 SCS Correlation Energy    =      -2.0389348423530209 [Eh]
	 SCS Total Energy          =    -476.3339972835702838 [Eh]
	-----------------------------------------------------------

  Dipole Moment: [D]
     X:    -1.3305      Y:     2.0188      Z:     0.0001     Total:     2.4178

*** Psi4 exiting successfully. Buy a developer a beer!
