                               Psi4 1.3.2 release

  ==> Input File <==

--------------------------------------------------------------------------
#psi4
#
memory 32 gb

molecule  {
0 1
  O        3.0870850    -0.7380670     0.0000600
  N       -1.0742560    -1.1771330    -0.0000800
  C        0.9761220     0.0434820    -0.0000150
  C       -0.4845103    -0.0590714     0.0000050
  C        1.8814630     1.1555170    -0.0001020
  C       -1.2332690     1.2310260     0.0000830
  C        1.7670490    -1.0798270     0.0000780
  C       -2.6240280     1.1598410     0.0000810
  C        3.1400070     0.6275730    -0.0000460
  C       -3.2332050    -0.0939970     0.0000020
  C       -2.4150150    -1.2251180    -0.0000720
  H        1.6419750     2.2104320    -0.0002120
  H       -0.7317970     2.1947500     0.0001580
  H        1.5416230    -2.1350490     0.0001580
  H        4.1309200     1.0569280    -0.0000720
  H       -3.2210480     2.0687070     0.0001450
  H       -4.3145730    -0.1971740    -0.0000020
  H       -2.8500980    -2.2235110    -0.0001310
units angstrom
no_reorient  #important for SAPT in psi4, default
symmetry c1  #important for SAPT in psi4, default
}

set PROPERTIES_ORIGIN ["COM"]
properties('MP2/aug-cc-pvtz', properties = ['dipole'])
--------------------------------------------------------------------------

    Molecular point group: c1
  Charge       = 0
  Multiplicity = 1
  Basis Set: AUG-CC-PVTZ
    Blend: AUG-CC-PVTZ
  Basis Set: (AUG-CC-PVTZ AUX)
    Blend: AUG-CC-PVTZ-JKFIT

    Orbital Energies [Eh]
    ---------------------

    Doubly Occupied:

       1A    -20.629412     2A    -15.558375     3A    -11.295016
       4A    -11.294151     5A    -11.293846     6A    -11.278458
       7A    -11.259169     8A    -11.248554     9A    -11.240667
      10A    -11.240162    11A    -11.238498    12A     -1.459813
      13A     -1.281146    14A     -1.106013    15A     -1.089075
      16A     -1.029870    17A     -0.997032    18A     -0.876252
      19A     -0.862704    20A     -0.799900    21A     -0.775441
      22A     -0.745258    23A     -0.692549    24A     -0.659879
      25A     -0.646383    26A     -0.636725    27A     -0.606073
      28A     -0.581221    29A     -0.579224    30A     -0.571308
      31A     -0.556763    32A     -0.538291    33A     -0.527520
      34A     -0.425872    35A     -0.411291    36A     -0.389370
      37A     -0.343963    38A     -0.298215

  @DF-RHF Final Energy:  -474.32161161838724

   => Energetics <=

    Nuclear Repulsion Energy =            540.2445454551386774
    One-Electron Energy =               -1715.0053954160334797
    Two-Electron Energy =                 700.4392383425075650
    Total Energy =                       -474.3216116183872373
  Basis Set: (AUG-CC-PVTZ AUX)
    Blend: AUG-CC-PVTZ-RI
    Molecular point group: c1

    Geometry (in Angstrom), charge = 0, multiplicity = 1:

       Center              X                  Y                   Z               Mass
    ------------   -----------------  -----------------  -----------------  -----------------
         O            3.060905681192    -0.709268315098     0.000059642935    15.994914619570
         N           -1.100435318808    -1.148334315098    -0.000080357065    14.003074004430
         C            0.949942681192     0.072280684902    -0.000015357065    12.000000000000
         C           -0.510689618808    -0.030272715098     0.000004642935    12.000000000000
         C            1.855283681192     1.184315684902    -0.000102357065    12.000000000000
         C           -1.259448318808     1.259824684902     0.000082642935    12.000000000000
         C            1.740869681192    -1.051028315098     0.000077642935    12.000000000000
         C           -2.650207318808     1.188639684902     0.000080642935    12.000000000000
         C            3.113827681192     0.656371684902    -0.000046357065    12.000000000000
         C           -3.259384318808    -0.065198315098     0.000001642935    12.000000000000
         C           -2.441194318808    -1.196319315098    -0.000072357065    12.000000000000
         H            1.615795681192     2.239230684902    -0.000212357065     1.007825032230
         H           -0.757976318808     2.223548684902     0.000157642935     1.007825032230
         H            1.515443681192    -2.106250315098     0.000157642935     1.007825032230
         H            4.104740681192     1.085726684902    -0.000072357065     1.007825032230
         H           -3.247227318808     2.097505684902     0.000144642935     1.007825032230
         H           -4.340752318808    -0.168375315098    -0.000002357065     1.007825032230
         H           -2.876277318808    -2.194712315098    -0.000131357065     1.007825032230

  Basis Set: AUG-CC-PVTZ
    Blend: AUG-CC-PVTZ
  Basis Set: (AUG-CC-PVTZ AUX)
    Blend: AUG-CC-PVTZ-JKFIT
	 Reference Energy          =    -474.3216116183872373 [Eh]
	 Singles Energy            =      -0.0000000000000000 [Eh]
	 Same-Spin Energy          =      -0.5132834833735639 [Eh]
	 Opposite-Spin Energy      =      -1.5555841670255981 [Eh]
	 Correlation Energy        =      -2.0688676503991621 [Eh]
	 Total Energy              =    -476.3904792687864074 [Eh]

	 ================> DF-SCS-MP2 Energies <==================
	-----------------------------------------------------------
	 SCS Same-Spin Scale       =       0.3333333333333333 [-]
	 SCS Opposite-Spin Scale   =       1.2000000000000000 [-]
	 SCS Same-Spin Energy      =      -0.1710944944578546 [Eh]
	 SCS Opposite-Spin Energy  =      -1.8667010004307176 [Eh]
	 SCS Correlation Energy    =      -2.0377954948885724 [Eh]
	 SCS Total Energy          =    -476.3594071132758359 [Eh]
	-----------------------------------------------------------

  Dipole Moment: [D]
     X:    -1.1796      Y:     1.9524      Z:     0.0001     Total:     2.2811

*** Psi4 exiting successfully. Buy a developer a beer!
