                               Psi4 1.3.2 release

  ==> Input File <==

--------------------------------------------------------------------------
#psi4
#
memory 32 gb

molecule  {
0 1
  O        3.0870850    -0.7380670     0.0000600
  N       -1.0742560    -1.1771330    -0.0000800
  C        0.9761220     0.0434820    -0.0000150
  C       -0.4881060     0.0430670    -0.0000040
  C        1.8814630     1.1555170    -0.0001020
  C       -1.2332690     1.2310260     0.0000830
  C        1.8638571    -1.0547632     0.0000767
  C       -2.6240280     1.1598410     0.0000810
  C        3.1400070     0.6275730    -0.0000460
  C       -3.2332050    -0.0939970     0.0000020
  C       -2.4150150    -1.2251180    -0.0000720
  H        1.6419750     2.2104320    -0.0002120
  H       -0.7317970     2.1947500     0.0001580
  H        1.5416230    -2.1350490     0.0001580
  H        4.1309200     1.0569280    -0.0000720
  H       -3.2210480     2.0687070     0.0001450
  H       -4.3145730    -0.1971740    -0.0000020
  H       -2.8500980    -2.2235110    -0.0001310
units angstrom
no_reorient  #important for SAPT in psi4, default
symmetry c1  #important for SAPT in psi4, default
}

set PROPERTIES_ORIGIN ["COM"]
properties('MP2/aug-cc-pvtz', properties = ['dipole'])
--------------------------------------------------------------------------

    Molecular point group: c1
  Charge       = 0
  Multiplicity = 1
  Basis Set: AUG-CC-PVTZ
    Blend: AUG-CC-PVTZ
  Basis Set: (AUG-CC-PVTZ AUX)
    Blend: AUG-CC-PVTZ-JKFIT

    Orbital Energies [Eh]
    ---------------------

    Doubly Occupied:

       1A    -20.645136     2A    -15.562836     3A    -11.302128
       4A    -11.291822     5A    -11.288429     6A    -11.277471
       7A    -11.261628     8A    -11.241210     9A    -11.241110
      10A    -11.238308    11A    -11.234759    12A     -1.508762
      13A     -1.255980    14A     -1.104251    15A     -1.086503
      16A     -1.037667    17A     -1.000079    18A     -0.877574
      19A     -0.861874    20A     -0.805247    21A     -0.772630
      22A     -0.749820    23A     -0.691889    24A     -0.663837
      25A     -0.661115    26A     -0.651162    27A     -0.609684
      28A     -0.589061    29A     -0.577718    30A     -0.571362
      31A     -0.547273    32A     -0.523144    33A     -0.516078
      34A     -0.423349    35A     -0.419259    36A     -0.382576
      37A     -0.351199    38A     -0.289785

  @DF-RHF Final Energy:  -474.32143511724286

   => Energetics <=

    Nuclear Repulsion Energy =            540.4942141512107128
    One-Electron Energy =               -1715.4038695525302956
    Two-Electron Energy =                 700.5882202840765558
    Total Energy =                       -474.3214351172429133
  Basis Set: (AUG-CC-PVTZ AUX)
    Blend: AUG-CC-PVTZ-RI
    Molecular point group: c1

    Geometry (in Angstrom), charge = 0, multiplicity = 1:

       Center              X                  Y                   Z               Mass
    ------------   -----------------  -----------------  -----------------  -----------------
         O            3.053194357600    -0.719791564428     0.000060495039    15.994914619570
         N           -1.108146642400    -1.158857564428    -0.000079504961    14.003074004430
         C            0.942231357600     0.061757435572    -0.000014504961    12.000000000000
         C           -0.521996642400     0.061342435572    -0.000003504961    12.000000000000
         C            1.847572357600     1.173792435572    -0.000101504961    12.000000000000
         C           -1.267159642400     1.249301435572     0.000083495039    12.000000000000
         C            1.829966457600    -1.036487764428     0.000077195039    12.000000000000
         C           -2.657918642400     1.178116435572     0.000081495039    12.000000000000
         C            3.106116357600     0.645848435572    -0.000045504961    12.000000000000
         C           -3.267095642400    -0.075721564428     0.000002495039    12.000000000000
         C           -2.448905642400    -1.206842564428    -0.000071504961    12.000000000000
         H            1.608084357600     2.228707435572    -0.000211504961     1.007825032230
         H           -0.765687642400     2.213025435572     0.000158495039     1.007825032230
         H            1.507732357600    -2.116773564428     0.000158495039     1.007825032230
         H            4.097029357600     1.075203435572    -0.000071504961     1.007825032230
         H           -3.254938642400     2.086982435572     0.000145495039     1.007825032230
         H           -4.348463642400    -0.178898564428    -0.000001504961     1.007825032230
         H           -2.883988642400    -2.205235564428    -0.000130504961     1.007825032230

  Basis Set: AUG-CC-PVTZ
    Blend: AUG-CC-PVTZ
  Basis Set: (AUG-CC-PVTZ AUX)
    Blend: AUG-CC-PVTZ-JKFIT
	 Reference Energy          =    -474.3214351172428564 [Eh]
	 Singles Energy            =      -0.0000000000000000 [Eh]
	 Same-Spin Energy          =      -0.5144593967311952 [Eh]
	 Opposite-Spin Energy      =      -1.5553386048238087 [Eh]
	 Correlation Energy        =      -2.0697980015550037 [Eh]
	 Total Energy              =    -476.3912331187978566 [Eh]

	 ================> DF-SCS-MP2 Energies <==================
	-----------------------------------------------------------
	 SCS Same-Spin Scale       =       0.3333333333333333 [-]
	 SCS Opposite-Spin Scale   =       1.2000000000000000 [-]
	 SCS Same-Spin Energy      =      -0.1714864655770651 [Eh]
	 SCS Opposite-Spin Energy  =      -1.8664063257885704 [Eh]
	 SCS Correlation Energy    =      -2.0378927913656355 [Eh]
	 SCS Total Energy          =    -476.3593279086085204 [Eh]
	-----------------------------------------------------------

  Dipole Moment: [D]
     X:    -1.0286      Y:     1.9803      Z:     0.0001     Total:     2.2315

*** Psi4 exiting successfully. Buy a developer a beer!
