                               Psi4 1.3.2 release

  ==> Input File <==

--------------------------------------------------------------------------
#psi4
#
memory 32 gb

molecule  {
0 1
  O        3.0870850    -0.7380670     0.0000600
  N       -1.0742560    -1.1771330    -0.0000800
  C        0.9761220     0.0434820    -0.0000150
  C       -0.3881060     0.0430953    -0.0000048
  C        1.8814630     1.1555170    -0.0001020
  C       -1.2332690     1.2310260     0.0000830
  C        1.7670490    -1.0798270     0.0000780
  C       -2.6240280     1.1598410     0.0000810
  C        3.1400070     0.6275730    -0.0000460
  C       -3.2332050    -0.0939970     0.0000020
  C       -2.4150150    -1.2251180    -0.0000720
  H        1.6419750     2.2104320    -0.0002120
  H       -0.7317970     2.1947500     0.0001580
  H        1.5416230    -2.1350490     0.0001580
  H        4.1309200     1.0569280    -0.0000720
  H       -3.2210480     2.0687070     0.0001450
  H       -4.3145730    -0.1971740    -0.0000020
  H       -2.8500980    -2.2235110    -0.0001310
units angstrom
no_reorient  #important for SAPT in psi4, default
symmetry c1  #important for SAPT in psi4, default
}

set PROPERTIES_ORIGIN ["COM"]
properties('MP2/aug-cc-pvtz', properties = ['dipole'])
--------------------------------------------------------------------------

    Molecular point group: c1
  Charge       = 0
  Multiplicity = 1
  Basis Set: AUG-CC-PVTZ
    Blend: AUG-CC-PVTZ
  Basis Set: (AUG-CC-PVTZ AUX)
    Blend: AUG-CC-PVTZ-JKFIT

    Orbital Energies [Eh]
    ---------------------

    Doubly Occupied:

       1A    -20.635226     2A    -15.563417     3A    -11.303604
       4A    -11.298436     5A    -11.295347     6A    -11.275864
       7A    -11.259562     8A    -11.246391     9A    -11.242527
      10A    -11.237479    11A    -11.237441    12A     -1.465567
      13A     -1.241557    14A     -1.120356    15A     -1.079315
      16A     -1.034379    17A     -0.998876    18A     -0.889257
      19A     -0.854614    20A     -0.798906    21A     -0.781712
      22A     -0.750352    23A     -0.684283    24A     -0.654750
      25A     -0.648989    26A     -0.642159    27A     -0.609999
      28A     -0.588283    29A     -0.578982    30A     -0.573441
      31A     -0.542845    32A     -0.540485    33A     -0.524432
      34A     -0.435164    35A     -0.406772    36A     -0.378556
      37A     -0.349805    38A     -0.291468

  @DF-RHF Final Energy:  -474.31269451470109

   => Energetics <=

    Nuclear Repulsion Energy =            539.8181188962951182
    One-Electron Energy =               -1714.1404338530412588
    Two-Electron Energy =                 700.0096204420450476
    Total Energy =                       -474.3126945147010929
  Basis Set: (AUG-CC-PVTZ AUX)
    Blend: AUG-CC-PVTZ-RI
    Molecular point group: c1

    Geometry (in Angstrom), charge = 0, multiplicity = 1:

       Center              X                  Y                   Z               Mass
    ------------   -----------------  -----------------  -----------------  -----------------
         O            3.052930296448    -0.717720414648     0.000060453675    15.994914619570
         N           -1.108410703552    -1.156786414648    -0.000079546325    14.003074004430
         C            0.941967296448     0.063828585352    -0.000014546325    12.000000000000
         C           -0.422260703552     0.063441885352    -0.000004346325    12.000000000000
         C            1.847308296448     1.175863585352    -0.000101546325    12.000000000000
         C           -1.267423703552     1.251372585352     0.000083453675    12.000000000000
         C            1.732894296448    -1.059480414648     0.000078453675    12.000000000000
         C           -2.658182703552     1.180187585352     0.000081453675    12.000000000000
         C            3.105852296448     0.647919585352    -0.000045546325    12.000000000000
         C           -3.267359703552    -0.073650414648     0.000002453675    12.000000000000
         C           -2.449169703552    -1.204771414648    -0.000071546325    12.000000000000
         H            1.607820296448     2.230778585352    -0.000211546325     1.007825032230
         H           -0.765951703552     2.215096585352     0.000158453675     1.007825032230
         H            1.507468296448    -2.114702414648     0.000158453675     1.007825032230
         H            4.096765296448     1.077274585352    -0.000071546325     1.007825032230
         H           -3.255202703552     2.089053585352     0.000145453675     1.007825032230
         H           -4.348727703552    -0.176827414648    -0.000001546325     1.007825032230
         H           -2.884252703552    -2.203164414648    -0.000130546325     1.007825032230

  Basis Set: AUG-CC-PVTZ
    Blend: AUG-CC-PVTZ
  Basis Set: (AUG-CC-PVTZ AUX)
    Blend: AUG-CC-PVTZ-JKFIT
	 Reference Energy          =    -474.3126945147010929 [Eh]
	 Singles Energy            =      -0.0000000000000000 [Eh]
	 Same-Spin Energy          =      -0.5162686740411274 [Eh]
	 Opposite-Spin Energy      =      -1.5605022612263948 [Eh]
	 Correlation Energy        =      -2.0767709352675223 [Eh]
	 Total Energy              =    -476.3894654499686112 [Eh]

	 ================> DF-SCS-MP2 Energies <==================
	-----------------------------------------------------------
	 SCS Same-Spin Scale       =       0.3333333333333333 [-]
	 SCS Opposite-Spin Scale   =       1.2000000000000000 [-]
	 SCS Same-Spin Energy      =      -0.1720895580137091 [Eh]
	 SCS Opposite-Spin Energy  =      -1.8726027134716736 [Eh]
	 SCS Correlation Energy    =      -2.0446922714853826 [Eh]
	 SCS Total Energy          =    -476.3573867861864528 [Eh]
	-----------------------------------------------------------

  Dipole Moment: [D]
     X:    -0.8292      Y:     2.0238      Z:     0.0001     Total:     2.1871

*** Psi4 exiting successfully. Buy a developer a beer!
