                               Psi4 1.3.2 release

  ==> Input File <==

--------------------------------------------------------------------------
#psi4
#
memory 32 gb

molecule  {
0 1
  O        3.0870850    -0.7380670     0.0000600
  N       -1.0742560    -1.1771330    -0.0000800
  C        0.9761220     0.0434820    -0.0000150
  C       -0.4015053     0.2233454     0.0000072
  C        1.8814630     1.1555170    -0.0001020
  C       -1.2332690     1.2310260     0.0000830
  C        1.7670490    -1.0798270     0.0000780
  C       -2.6240280     1.1598410     0.0000810
  C        3.1400070     0.6275730    -0.0000460
  C       -3.2332050    -0.0939970     0.0000020
  C       -2.4150150    -1.2251180    -0.0000720
  H        1.6419750     2.2104320    -0.0002120
  H       -0.7317970     2.1947500     0.0001580
  H        1.5416230    -2.1350490     0.0001580
  H        4.1309200     1.0569280    -0.0000720
  H       -3.2210480     2.0687070     0.0001450
  H       -4.3145730    -0.1971740    -0.0000020
  H       -2.8500980    -2.2235110    -0.0001310
units angstrom
no_reorient  #important for SAPT in psi4, default
symmetry c1  #important for SAPT in psi4, default
}

set PROPERTIES_ORIGIN ["COM"]
properties('MP2/aug-cc-pvtz', properties = ['dipole'])
--------------------------------------------------------------------------

    Molecular point group: c1
  Charge       = 0
  Multiplicity = 1
  Basis Set: AUG-CC-PVTZ
    Blend: AUG-CC-PVTZ
  Basis Set: (AUG-CC-PVTZ AUX)
    Blend: AUG-CC-PVTZ-JKFIT

    Orbital Energies [Eh]
    ---------------------

    Doubly Occupied:

       1A    -20.632284     2A    -15.570888     3A    -11.301194
       4A    -11.294261     5A    -11.287380     6A    -11.276879
       7A    -11.265245     8A    -11.243069     9A    -11.239916
      10A    -11.235948    11A    -11.235535    12A     -1.462266
      13A     -1.223200    14A     -1.117906    15A     -1.083221
      16A     -1.038412    17A     -1.002233    18A     -0.889252
      19A     -0.856328    20A     -0.793706    21A     -0.783508
      22A     -0.747977    23A     -0.687221    24A     -0.653394
      25A     -0.643620    26A     -0.638973    27A     -0.613141
      28A     -0.593890    29A     -0.577085    30A     -0.570652
      31A     -0.544698    32A     -0.537961    33A     -0.503764
      34A     -0.434820    35A     -0.406643    36A     -0.378575
      37A     -0.351491    38A     -0.297162

  @DF-RHF Final Energy:  -474.28416365291116

   => Energetics <=

    Nuclear Repulsion Energy =            539.4050882273610341
    One-Electron Energy =               -1713.3511048127361391
    Two-Electron Energy =                 699.6618529324640576
    Total Energy =                       -474.2841636529111611
  Basis Set: (AUG-CC-PVTZ AUX)
    Blend: AUG-CC-PVTZ-RI
    Molecular point group: c1

    Geometry (in Angstrom), charge = 0, multiplicity = 1:

       Center              X                  Y                   Z               Mass
    ------------   -----------------  -----------------  -----------------  -----------------
         O            3.054038800662    -0.732632238060     0.000059460932    15.994914619570
         N           -1.107302199338    -1.171698238060    -0.000080539068    14.003074004430
         C            0.943075800662     0.048916761940    -0.000015539068    12.000000000000
         C           -0.434551499338     0.228780161940     0.000006660932    12.000000000000
         C            1.848416800662     1.160951761940    -0.000102539068    12.000000000000
         C           -1.266315199338     1.236460761940     0.000082460932    12.000000000000
         C            1.734002800662    -1.074392238060     0.000077460932    12.000000000000
         C           -2.657074199338     1.165275761940     0.000080460932    12.000000000000
         C            3.106960800662     0.633007761940    -0.000046539068    12.000000000000
         C           -3.266251199338    -0.088562238060     0.000001460932    12.000000000000
         C           -2.448061199338    -1.219683238060    -0.000072539068    12.000000000000
         H            1.608928800662     2.215866761940    -0.000212539068     1.007825032230
         H           -0.764843199338     2.200184761940     0.000157460932     1.007825032230
         H            1.508576800662    -2.129614238060     0.000157460932     1.007825032230
         H            4.097873800662     1.062362761940    -0.000072539068     1.007825032230
         H           -3.254094199338     2.074141761940     0.000144460932     1.007825032230
         H           -4.347619199338    -0.191739238060    -0.000002539068     1.007825032230
         H           -2.883144199338    -2.218076238060    -0.000131539068     1.007825032230

  Basis Set: AUG-CC-PVTZ
    Blend: AUG-CC-PVTZ
  Basis Set: (AUG-CC-PVTZ AUX)
    Blend: AUG-CC-PVTZ-JKFIT
	 Reference Energy          =    -474.2841636529111611 [Eh]
	 Singles Energy            =      -0.0000000000000000 [Eh]
	 Same-Spin Energy          =      -0.5164297528937174 [Eh]
	 Opposite-Spin Energy      =      -1.5644923192243148 [Eh]
	 Correlation Energy        =      -2.0809220721180322 [Eh]
	 Total Energy              =    -476.3650857250291892 [Eh]

	 ================> DF-SCS-MP2 Energies <==================
	-----------------------------------------------------------
	 SCS Same-Spin Scale       =       0.3333333333333333 [-]
	 SCS Opposite-Spin Scale   =       1.2000000000000000 [-]
	 SCS Same-Spin Energy      =      -0.1721432509645724 [Eh]
	 SCS Opposite-Spin Energy  =      -1.8773907830691776 [Eh]
	 SCS Correlation Energy    =      -2.0495340340337500 [Eh]
	 SCS Total Energy          =    -476.3336976869449018 [Eh]
	-----------------------------------------------------------

  Dipole Moment: [D]
     X:    -1.1128      Y:     2.0141      Z:     0.0001     Total:     2.3010

*** Psi4 exiting successfully. Buy a developer a beer!
