                               Psi4 1.4a3.dev225

  ==> Input File <==

--------------------------------------------------------------------------
#psi4
#
memory 32 gb

molecule  {
0 1
  O        3.0870850    -0.7380670     0.0000600
  N       -1.0742560    -1.1771330    -0.0000800
  C        0.9761220     0.0434820    -0.0000150
  C       -0.5097562    -0.0020026    -0.0000068
  C        1.8814630     1.1555170    -0.0001020
  C       -1.2332690     1.2310260     0.0000830
  C        1.7670490    -1.0798270     0.0000780
  C       -2.6240280     1.1598410     0.0000810
  C        3.1400070     0.6275730    -0.0000460
  C       -3.2332050    -0.0939970     0.0000020
  C       -2.4150150    -1.2251180    -0.0000720
  H        1.6419750     2.2104320    -0.0002120
  H       -0.7317970     2.1947500     0.0001580
  H        1.5416230    -2.1350490     0.0001580
  H        4.1309200     1.0569280    -0.0000720
  H       -3.2210480     2.0687070     0.0001450
  H       -4.3145730    -0.1971740    -0.0000020
  H       -2.8500980    -2.2235110    -0.0001310
units angstrom
no_reorient  #important for SAPT in psi4, default
symmetry c1  #important for SAPT in psi4, default
}

set PROPERTIES_ORIGIN ["COM"]
properties('MP2/aug-cc-pvtz', properties = ['dipole'])
--------------------------------------------------------------------------

    Molecular point group: c1
  Charge       = 0
  Multiplicity = 1
  Basis Set: AUG-CC-PVTZ
    Blend: AUG-CC-PVTZ
  Basis Set: (AUG-CC-PVTZ AUX)
    Blend: AUG-CC-PVTZ-JKFIT

    Orbital Energies [Eh]
    ---------------------

    Doubly Occupied:

       1A    -20.627627     2A    -15.563011     3A    -11.292991
       4A    -11.292894     5A    -11.291843     6A    -11.279910
       7A    -11.262509     8A    -11.245615     9A    -11.241265
      10A    -11.238877    11A    -11.237464    12A     -1.457909
      13A     -1.272428    14A     -1.102822    15A     -1.090767
      16A     -1.032208    17A     -0.997237    18A     -0.872705
      19A     -0.865852    20A     -0.796918    21A     -0.775612
      22A     -0.744009    23A     -0.690208    24A     -0.663154
      25A     -0.646221    26A     -0.634780    27A     -0.605654
      28A     -0.583555    29A     -0.576301    30A     -0.571008
      31A     -0.554241    32A     -0.536837    33A     -0.522535
      34A     -0.422935    35A     -0.420852    36A     -0.387197
      37A     -0.346687    38A     -0.299764

  @DF-RHF Final Energy:  -474.33023152934095

   => Energetics <=

    Nuclear Repulsion Energy =            540.0681981473122732
    One-Electron Energy =               -1714.7080533431285403
    Two-Electron Energy =                 700.3096236664754315
    Total Energy =                       -474.3302315293409492
  Basis Set: (AUG-CC-PVTZ AUX)
    Blend: AUG-CC-PVTZ-RI
    Molecular point group: c1

    Geometry (in Angstrom), charge = 0, multiplicity = 1:

       Center              X                  Y                   Z               Mass
    ------------   -----------------  -----------------  -----------------  -----------------
         O            3.062994237053    -0.713989532274     0.000060619132    15.994914619570
         N           -1.098346762947    -1.153055532274    -0.000079380868    14.003074004430
         C            0.952031237053     0.067559467726    -0.000014380868    12.000000000000
         C           -0.533846962947     0.022074867726    -0.000006180868    12.000000000000
         C            1.857372237053     1.179594467726    -0.000101380868    12.000000000000
         C           -1.257359762947     1.255103467726     0.000083619132    12.000000000000
         C            1.742958237053    -1.055749532274     0.000078619132    12.000000000000
         C           -2.648118762947     1.183918467726     0.000081619132    12.000000000000
         C            3.115916237053     0.651650467726    -0.000045380868    12.000000000000
         C           -3.257295762947    -0.069919532274     0.000002619132    12.000000000000
         C           -2.439105762947    -1.201040532274    -0.000071380868    12.000000000000
         H            1.617884237053     2.234509467726    -0.000211380868     1.007825032230
         H           -0.755887762947     2.218827467726     0.000158619132     1.007825032230
         H            1.517532237053    -2.110971532274     0.000158619132     1.007825032230
         H            4.106829237053     1.081005467726    -0.000071380868     1.007825032230
         H           -3.245138762947     2.092784467726     0.000145619132     1.007825032230
         H           -4.338663762947    -0.173096532274    -0.000001380868     1.007825032230
         H           -2.874188762947    -2.199433532274    -0.000130380868     1.007825032230

  Basis Set: AUG-CC-PVTZ
    Blend: AUG-CC-PVTZ
  Basis Set: (AUG-CC-PVTZ AUX)
    Blend: AUG-CC-PVTZ-JKFIT
	 Reference Energy          =    -474.3302315293409492 [Eh]
	 Singles Energy            =      -0.0000000000000000 [Eh]
	 Same-Spin Energy          =      -0.5135572846445805 [Eh]
	 Opposite-Spin Energy      =      -1.5557088571762701 [Eh]
	 Correlation Energy        =      -2.0692661418208504 [Eh]
	 Total Energy              =    -476.3994976711617824 [Eh]

	 ================> DF-SCS-MP2 Energies <==================
	-----------------------------------------------------------
	 SCS Same-Spin Scale       =       0.3333333333333333 [-]
	 SCS Opposite-Spin Scale   =       1.2000000000000000 [-]
	 SCS Same-Spin Energy      =      -0.1711857615481935 [Eh]
	 SCS Opposite-Spin Energy  =      -1.8668506286115241 [Eh]
	 SCS Correlation Energy    =      -2.0380363901597174 [Eh]
	 SCS Total Energy          =    -476.3682679195006813 [Eh]
	-----------------------------------------------------------

  Dipole Moment: [D]
     X:    -1.3957      Y:     2.0020      Z:     0.0001     Total:     2.4405

*** Psi4 exiting successfully. Buy a developer a beer!
