                               Psi4 1.3.2 release

  ==> Input File <==

--------------------------------------------------------------------------
#psi4
#
memory 32 gb

molecule  {
0 1
  O        3.0870850    -0.7380670     0.0000600
  N       -1.0742560    -1.1771330    -0.0000800
  C        0.9761220     0.0434820    -0.0000150
  C       -0.4881060     0.0430670    -0.0000040
  C        1.8814630     1.1555170    -0.0001020
  C       -1.2332690     1.2310260     0.0000830
  C        1.7385566    -0.9399735     0.0000669
  C       -2.6240280     1.1598410     0.0000810
  C        3.1400070     0.6275730    -0.0000460
  C       -3.2332050    -0.0939970     0.0000020
  C       -2.4150150    -1.2251180    -0.0000720
  H        1.6419750     2.2104320    -0.0002120
  H       -0.7317970     2.1947500     0.0001580
  H        1.5416230    -2.1350490     0.0001580
  H        4.1309200     1.0569280    -0.0000720
  H       -3.2210480     2.0687070     0.0001450
  H       -4.3145730    -0.1971740    -0.0000020
  H       -2.8500980    -2.2235110    -0.0001310
units angstrom
no_reorient  #important for SAPT in psi4, default
symmetry c1  #important for SAPT in psi4, default
}

set PROPERTIES_ORIGIN ["COM"]
properties('MP2/aug-cc-pvtz', properties = ['dipole'])
--------------------------------------------------------------------------

    Molecular point group: c1
  Charge       = 0
  Multiplicity = 1
  Basis Set: AUG-CC-PVTZ
    Blend: AUG-CC-PVTZ
  Basis Set: (AUG-CC-PVTZ AUX)
    Blend: AUG-CC-PVTZ-JKFIT

    Orbital Energies [Eh]
    ---------------------

    Doubly Occupied:

       1A    -20.624811     2A    -15.568096     3A    -11.295671
       4A    -11.292061     5A    -11.284242     6A    -11.281102
       7A    -11.265329     8A    -11.246402     9A    -11.243903
      10A    -11.236618    11A    -11.222721    12A     -1.463170
      13A     -1.261387    14A     -1.130816    15A     -1.090932
      16A     -1.036204    17A     -1.000564    18A     -0.876748
      19A     -0.865807    20A     -0.807719    21A     -0.767922
      22A     -0.737755    23A     -0.690082    24A     -0.664539
      25A     -0.651102    26A     -0.642395    27A     -0.596774
      28A     -0.584816    29A     -0.574767    30A     -0.561564
      31A     -0.551426    32A     -0.534252    33A     -0.516750
      34A     -0.437352    35A     -0.423384    36A     -0.385623
      37A     -0.349734    38A     -0.313777

  @DF-RHF Final Energy:  -474.30164918168555

   => Energetics <=

    Nuclear Repulsion Energy =            542.6259558664617089
    One-Electron Energy =               -1719.6985767663597926
    Two-Electron Energy =                 702.7709717182125360
    Total Energy =                       -474.3016491816855478
  Basis Set: (AUG-CC-PVTZ AUX)
    Blend: AUG-CC-PVTZ-RI
    Molecular point group: c1

    Geometry (in Angstrom), charge = 0, multiplicity = 1:

       Center              X                  Y                   Z               Mass
    ------------   -----------------  -----------------  -----------------  -----------------
         O            3.063560282110    -0.729287946045     0.000061305778    15.994914619570
         N           -1.097780717890    -1.168353946045    -0.000078694222    14.003074004430
         C            0.952597282110     0.052261053955    -0.000013694222    12.000000000000
         C           -0.511630717890     0.051846053955    -0.000002694222    12.000000000000
         C            1.857938282110     1.164296053955    -0.000100694222    12.000000000000
         C           -1.256793717890     1.239805053955     0.000084305778    12.000000000000
         C            1.715031882110    -0.931194446045     0.000068205778    12.000000000000
         C           -2.647552717890     1.168620053955     0.000082305778    12.000000000000
         C            3.116482282110     0.636352053955    -0.000044694222    12.000000000000
         C           -3.256729717890    -0.085217946045     0.000003305778    12.000000000000
         C           -2.438539717890    -1.216338946045    -0.000070694222    12.000000000000
         H            1.618450282110     2.219211053955    -0.000210694222     1.007825032230
         H           -0.755321717890     2.203529053955     0.000159305778     1.007825032230
         H            1.518098282110    -2.126269946045     0.000159305778     1.007825032230
         H            4.107395282110     1.065707053955    -0.000070694222     1.007825032230
         H           -3.244572717890     2.077486053955     0.000146305778     1.007825032230
         H           -4.338097717890    -0.188394946045    -0.000000694222     1.007825032230
         H           -2.873622717890    -2.214731946045    -0.000129694222     1.007825032230

  Basis Set: AUG-CC-PVTZ
    Blend: AUG-CC-PVTZ
  Basis Set: (AUG-CC-PVTZ AUX)
    Blend: AUG-CC-PVTZ-JKFIT
	 Reference Energy          =    -474.3016491816855478 [Eh]
	 Singles Energy            =      -0.0000000000000000 [Eh]
	 Same-Spin Energy          =      -0.5130805959823450 [Eh]
	 Opposite-Spin Energy      =      -1.5557243799517833 [Eh]
	 Correlation Energy        =      -2.0688049759341283 [Eh]
	 Total Energy              =    -476.3704541576196902 [Eh]

	 ================> DF-SCS-MP2 Energies <==================
	-----------------------------------------------------------
	 SCS Same-Spin Scale       =       0.3333333333333333 [-]
	 SCS Opposite-Spin Scale   =       1.2000000000000000 [-]
	 SCS Same-Spin Energy      =      -0.1710268653274483 [Eh]
	 SCS Opposite-Spin Energy  =      -1.8668692559421398 [Eh]
	 SCS Correlation Energy    =      -2.0378961212695881 [Eh]
	 SCS Total Energy          =    -476.3395453029551163 [Eh]
	-----------------------------------------------------------

  Dipole Moment: [D]
     X:    -1.6031      Y:     2.1233      Z:     0.0001     Total:     2.6606

*** Psi4 exiting successfully. Buy a developer a beer!
