                               Psi4 1.4a3.dev225

  ==> Input File <==

--------------------------------------------------------------------------
#psi4
#
memory 32 gb

molecule  {
0 1
  O        3.0870850    -0.7380670     0.0000600
  N       -1.0742560    -1.1771330    -0.0000800
  C        0.9761220     0.0434820    -0.0000150
  C       -0.4881060     0.0430670    -0.0000040
  C        1.8814630     1.1555170    -0.0001020
  C       -1.2332690     1.2310260     0.0000830
  C        1.7476874    -1.0848398     0.0000783
  C       -2.6240280     1.1598410     0.0000810
  C        3.1400070     0.6275730    -0.0000460
  C       -3.2332050    -0.0939970     0.0000020
  C       -2.4150150    -1.2251180    -0.0000720
  H        1.6419750     2.2104320    -0.0002120
  H       -0.7317970     2.1947500     0.0001580
  H        1.5416230    -2.1350490     0.0001580
  H        4.1309200     1.0569280    -0.0000720
  H       -3.2210480     2.0687070     0.0001450
  H       -4.3145730    -0.1971740    -0.0000020
  H       -2.8500980    -2.2235110    -0.0001310
units angstrom
no_reorient  #important for SAPT in psi4, default
symmetry c1  #important for SAPT in psi4, default
}

set PROPERTIES_ORIGIN ["COM"]
properties('MP2/aug-cc-pvtz', properties = ['dipole'])
--------------------------------------------------------------------------

    Molecular point group: c1
  Charge       = 0
  Multiplicity = 1
  Basis Set: AUG-CC-PVTZ
    Blend: AUG-CC-PVTZ
  Basis Set: (AUG-CC-PVTZ AUX)
    Blend: AUG-CC-PVTZ-JKFIT

    Orbital Energies [Eh]
    ---------------------

    Doubly Occupied:

       1A    -20.625462     2A    -15.566208     3A    -11.294226
       4A    -11.292649     5A    -11.292379     6A    -11.279878
       7A    -11.263685     8A    -11.243790     9A    -11.241610
      10A    -11.239958    11A    -11.236654    12A     -1.450436
      13A     -1.259128    14A     -1.106103    15A     -1.088994
      16A     -1.033447    17A     -0.998012    18A     -0.875308
      19A     -0.863643    20A     -0.794519    21A     -0.778877
      22A     -0.744195    23A     -0.686628    24A     -0.662863
      25A     -0.645445    26A     -0.630945    27A     -0.606517
      28A     -0.586340    29A     -0.574498    30A     -0.571536
      31A     -0.549208    32A     -0.539314    33A     -0.520844
      34A     -0.425144    35A     -0.422504    36A     -0.384097
      37A     -0.348229    38A     -0.300709

  @DF-RHF Final Energy:  -474.33027369143917

   => Energetics <=

    Nuclear Repulsion Energy =            539.7806490034143962
    One-Electron Energy =               -1714.1738750259632980
    Two-Electron Energy =                 700.0629523311096136
    Total Energy =                       -474.3302736914391744
  Basis Set: (AUG-CC-PVTZ AUX)
    Blend: AUG-CC-PVTZ-RI
    Molecular point group: c1

    Geometry (in Angstrom), charge = 0, multiplicity = 1:

       Center              X                  Y                   Z               Mass
    ------------   -----------------  -----------------  -----------------  -----------------
         O            3.062804904569    -0.717303371922     0.000060362673    15.994914619570
         N           -1.098536095431    -1.156369371922    -0.000079637327    14.003074004430
         C            0.951841904569     0.064245628078    -0.000014637327    12.000000000000
         C           -0.512386095431     0.063830628078    -0.000003637327    12.000000000000
         C            1.857182904569     1.176280628078    -0.000101637327    12.000000000000
         C           -1.257549095431     1.251789628078     0.000083362673    12.000000000000
         C            1.723407304569    -1.064076171922     0.000078662673    12.000000000000
         C           -2.648308095431     1.180604628078     0.000081362673    12.000000000000
         C            3.115726904569     0.648336628078    -0.000045637327    12.000000000000
         C           -3.257485095431    -0.073233371922     0.000002362673    12.000000000000
         C           -2.439295095431    -1.204354371922    -0.000071637327    12.000000000000
         H            1.617694904569     2.231195628078    -0.000211637327     1.007825032230
         H           -0.756077095431     2.215513628078     0.000158362673     1.007825032230
         H            1.517342904569    -2.114285371922     0.000158362673     1.007825032230
         H            4.106639904569     1.077691628078    -0.000071637327     1.007825032230
         H           -3.245328095431     2.089470628078     0.000145362673     1.007825032230
         H           -4.338853095431    -0.176410371922    -0.000001637327     1.007825032230
         H           -2.874378095431    -2.202747371922    -0.000130637327     1.007825032230

  Basis Set: AUG-CC-PVTZ
    Blend: AUG-CC-PVTZ
  Basis Set: (AUG-CC-PVTZ AUX)
    Blend: AUG-CC-PVTZ-JKFIT
	 Reference Energy          =    -474.3302736914391744 [Eh]
	 Singles Energy            =      -0.0000000000000000 [Eh]
	 Same-Spin Energy          =      -0.5141683842117151 [Eh]
	 Opposite-Spin Energy      =      -1.5573008424828472 [Eh]
	 Correlation Energy        =      -2.0714692266945622 [Eh]
	 Total Energy              =    -476.4017429181337207 [Eh]

	 ================> DF-SCS-MP2 Energies <==================
	-----------------------------------------------------------
	 SCS Same-Spin Scale       =       0.3333333333333333 [-]
	 SCS Opposite-Spin Scale   =       1.2000000000000000 [-]
	 SCS Same-Spin Energy      =      -0.1713894614039050 [Eh]
	 SCS Opposite-Spin Energy  =      -1.8687610109794166 [Eh]
	 SCS Correlation Energy    =      -2.0401504723833215 [Eh]
	 SCS Total Energy          =    -476.3704241638225199 [Eh]
	-----------------------------------------------------------

  Dipole Moment: [D]
     X:    -1.4021      Y:     2.0274      Z:     0.0001     Total:     2.4651

*** Psi4 exiting successfully. Buy a developer a beer!
