                               Psi4 1.3.2 release

  ==> Input File <==

--------------------------------------------------------------------------
#psi4
#
memory 32 gb

molecule  {
0 1
  O        3.0870850    -0.7380670     0.0000600
  N       -1.0742560    -1.1771330    -0.0000800
  C        0.9761220     0.0434820    -0.0000150
  C       -0.4881060     0.0430670    -0.0000040
  C        1.8814630     1.1555170    -0.0001020
  C       -1.2332690     1.2310260     0.0000830
  C        1.7559259    -1.0335502     0.0000743
  C       -2.6240280     1.1598410     0.0000810
  C        3.1400070     0.6275730    -0.0000460
  C       -3.2332050    -0.0939970     0.0000020
  C       -2.4150150    -1.2251180    -0.0000720
  H        1.6419750     2.2104320    -0.0002120
  H       -0.7317970     2.1947500     0.0001580
  H        1.5416230    -2.1350490     0.0001580
  H        4.1309200     1.0569280    -0.0000720
  H       -3.2210480     2.0687070     0.0001450
  H       -4.3145730    -0.1971740    -0.0000020
  H       -2.8500980    -2.2235110    -0.0001310
units angstrom
no_reorient  #important for SAPT in psi4, default
symmetry c1  #important for SAPT in psi4, default
}

set PROPERTIES_ORIGIN ["COM"]
properties('MP2/aug-cc-pvtz', properties = ['dipole'])
--------------------------------------------------------------------------

    Molecular point group: c1
  Charge       = 0
  Multiplicity = 1
  Basis Set: AUG-CC-PVTZ
    Blend: AUG-CC-PVTZ
  Basis Set: (AUG-CC-PVTZ AUX)
    Blend: AUG-CC-PVTZ-JKFIT

    Orbital Energies [Eh]
    ---------------------

    Doubly Occupied:

       1A    -20.627091     2A    -15.566458     3A    -11.293327
       4A    -11.292668     5A    -11.290529     6A    -11.280027
       7A    -11.263997     8A    -11.244310     9A    -11.241992
      10A    -11.236852    11A    -11.233581    12A     -1.460050
      13A     -1.259498    14A     -1.112550    15A     -1.089351
      16A     -1.034186    17A     -0.999339    18A     -0.875661
      19A     -0.864221    20A     -0.800096    21A     -0.772825
      22A     -0.743151    23A     -0.687829    24A     -0.663182
      25A     -0.647346    26A     -0.637467    27A     -0.598408
      28A     -0.586462    29A     -0.573573    30A     -0.569990
      31A     -0.549714    32A     -0.541505    33A     -0.520947
      34A     -0.428146    35A     -0.422496    36A     -0.384392
      37A     -0.348959    38A     -0.304021

  @DF-RHF Final Energy:  -474.32920433957656

   => Energetics <=

    Nuclear Repulsion Energy =            540.7686631025669612
    One-Electron Energy =               -1716.1033407905881631
    Two-Electron Energy =                 701.0054733484446388
    Total Energy =                       -474.3292043395765631
  Basis Set: (AUG-CC-PVTZ AUX)
    Blend: AUG-CC-PVTZ-RI
    Molecular point group: c1

    Geometry (in Angstrom), charge = 0, multiplicity = 1:

       Center              X                  Y                   Z               Mass
    ------------   -----------------  -----------------  -----------------  -----------------
         O            3.062123345684    -0.721546484454     0.000060693587    15.994914619570
         N           -1.099217654316    -1.160612484454    -0.000079306413    14.003074004430
         C            0.951160345684     0.060002515546    -0.000014306413    12.000000000000
         C           -0.513067654316     0.059587515546    -0.000003306413    12.000000000000
         C            1.856501345684     1.172037515546    -0.000101306413    12.000000000000
         C           -1.258230654316     1.247546515546     0.000083693587    12.000000000000
         C            1.730964245684    -1.017029684454     0.000074993587    12.000000000000
         C           -2.648989654316     1.176361515546     0.000081693587    12.000000000000
         C            3.115045345684     0.644093515546    -0.000045306413    12.000000000000
         C           -3.258166654316    -0.077476484454     0.000002693587    12.000000000000
         C           -2.439976654316    -1.208597484454    -0.000071306413    12.000000000000
         H            1.617013345684     2.226952515546    -0.000211306413     1.007825032230
         H           -0.756758654316     2.211270515546     0.000158693587     1.007825032230
         H            1.516661345684    -2.118528484454     0.000158693587     1.007825032230
         H            4.105958345684     1.073448515546    -0.000071306413     1.007825032230
         H           -3.246009654316     2.085227515546     0.000145693587     1.007825032230
         H           -4.339534654316    -0.180653484454    -0.000001306413     1.007825032230
         H           -2.875059654316    -2.206990484454    -0.000130306413     1.007825032230

  Basis Set: AUG-CC-PVTZ
    Blend: AUG-CC-PVTZ
  Basis Set: (AUG-CC-PVTZ AUX)
    Blend: AUG-CC-PVTZ-JKFIT
	 Reference Energy          =    -474.3292043395765631 [Eh]
	 Singles Energy            =      -0.0000000000000000 [Eh]
	 Same-Spin Energy          =      -0.5136438875816415 [Eh]
	 Opposite-Spin Energy      =      -1.5561629413939855 [Eh]
	 Correlation Energy        =      -2.0698068289756271 [Eh]
	 Total Energy              =    -476.3990111685521924 [Eh]

	 ================> DF-SCS-MP2 Energies <==================
	-----------------------------------------------------------
	 SCS Same-Spin Scale       =       0.3333333333333333 [-]
	 SCS Opposite-Spin Scale   =       1.2000000000000000 [-]
	 SCS Same-Spin Energy      =      -0.1712146291938805 [Eh]
	 SCS Opposite-Spin Energy  =      -1.8673955296727824 [Eh]
	 SCS Correlation Energy    =      -2.0386101588666627 [Eh]
	 SCS Total Energy          =    -476.3678144984432379 [Eh]
	-----------------------------------------------------------

  Dipole Moment: [D]
     X:    -1.4285      Y:     2.0374      Z:     0.0001     Total:     2.4883

*** Psi4 exiting successfully. Buy a developer a beer!
