                               Psi4 1.3.2 release

  ==> Input File <==

--------------------------------------------------------------------------
#psi4
#
memory 32 gb

molecule  {
0 1
  O        3.0743536    -0.6922066     0.0000563
  N       -1.0742560    -1.1771330    -0.0000800
  C        0.9761220     0.0434820    -0.0000150
  C       -0.4881060     0.0430670    -0.0000040
  C        1.8814630     1.1555170    -0.0001020
  C       -1.2332690     1.2310260     0.0000830
  C        1.7670490    -1.0798270     0.0000780
  C       -2.6240280     1.1598410     0.0000810
  C        3.1400070     0.6275730    -0.0000460
  C       -3.2332050    -0.0939970     0.0000020
  C       -2.4150150    -1.2251180    -0.0000720
  H        1.6419750     2.2104320    -0.0002120
  H       -0.7317970     2.1947500     0.0001580
  H        1.5416230    -2.1350490     0.0001580
  H        4.1309200     1.0569280    -0.0000720
  H       -3.2210480     2.0687070     0.0001450
  H       -4.3145730    -0.1971740    -0.0000020
  H       -2.8500980    -2.2235110    -0.0001310
units angstrom
no_reorient  #important for SAPT in psi4, default
symmetry c1  #important for SAPT in psi4, default
}

set PROPERTIES_ORIGIN ["COM"]
properties('MP2/aug-cc-pvtz', properties = ['dipole'])
--------------------------------------------------------------------------

    Molecular point group: c1
  Charge       = 0
  Multiplicity = 1
  Basis Set: AUG-CC-PVTZ
    Blend: AUG-CC-PVTZ
  Basis Set: (AUG-CC-PVTZ AUX)
    Blend: AUG-CC-PVTZ-JKFIT

    Orbital Energies [Eh]
    ---------------------

    Doubly Occupied:

       1A    -20.628709     2A    -15.565843     3A    -11.291624
       4A    -11.291525     5A    -11.290653     6A    -11.279306
       7A    -11.263078     8A    -11.243201     9A    -11.241234
      10A    -11.238894    11A    -11.231634    12A     -1.475201
      13A     -1.258504    14A     -1.103567    15A     -1.088392
      16A     -1.032620    17A     -1.004764    18A     -0.877399
      19A     -0.863471    20A     -0.797623    21A     -0.775905
      22A     -0.747899    23A     -0.688518    24A     -0.661944
      25A     -0.646960    26A     -0.644639    27A     -0.615063
      28A     -0.586682    29A     -0.574475    30A     -0.568489
      31A     -0.548931    32A     -0.533197    33A     -0.520316
      34A     -0.423078    35A     -0.422011    36A     -0.383187
      37A     -0.344991    38A     -0.300450

  @DF-RHF Final Energy:  -474.33140817024434

   => Energetics <=

    Nuclear Repulsion Energy =            541.0569541002250844
    One-Electron Energy =               -1716.6687672290458977
    Two-Electron Energy =                 701.2804049585764687
    Total Energy =                       -474.3314081702443445
  Basis Set: (AUG-CC-PVTZ AUX)
    Blend: AUG-CC-PVTZ-RI
    Molecular point group: c1

    Geometry (in Angstrom), charge = 0, multiplicity = 1:

       Center              X                  Y                   Z               Mass
    ------------   -----------------  -----------------  -----------------  -----------------
         O            3.049875634889    -0.676914682777     0.000057095489    15.994914619570
         N           -1.098733965111    -1.161841082777    -0.000079204511    14.003074004430
         C            0.951644034889     0.058773917223    -0.000014204511    12.000000000000
         C           -0.512583965111     0.058358917223    -0.000003204511    12.000000000000
         C            1.856985034889     1.170808917223    -0.000101204511    12.000000000000
         C           -1.257746965111     1.246317917223     0.000083795489    12.000000000000
         C            1.742571034889    -1.064535082777     0.000078795489    12.000000000000
         C           -2.648505965111     1.175132917223     0.000081795489    12.000000000000
         C            3.115529034889     0.642864917223    -0.000045204511    12.000000000000
         C           -3.257682965111    -0.078705082777     0.000002795489    12.000000000000
         C           -2.439492965111    -1.209826082777    -0.000071204511    12.000000000000
         H            1.617497034889     2.225723917223    -0.000211204511     1.007825032230
         H           -0.756274965111     2.210041917223     0.000158795489     1.007825032230
         H            1.517145034889    -2.119757082777     0.000158795489     1.007825032230
         H            4.106442034889     1.072219917223    -0.000071204511     1.007825032230
         H           -3.245525965111     2.083998917223     0.000145795489     1.007825032230
         H           -4.339050965111    -0.181882082777    -0.000001204511     1.007825032230
         H           -2.874575965111    -2.208219082777    -0.000130204511     1.007825032230

  Basis Set: AUG-CC-PVTZ
    Blend: AUG-CC-PVTZ
  Basis Set: (AUG-CC-PVTZ AUX)
    Blend: AUG-CC-PVTZ-JKFIT
	 Reference Energy          =    -474.3314081702443445 [Eh]
	 Singles Energy            =      -0.0000000000000000 [Eh]
	 Same-Spin Energy          =      -0.5141745973204441 [Eh]
	 Opposite-Spin Energy      =      -1.5555851901923088 [Eh]
	 Correlation Energy        =      -2.0697597875127531 [Eh]
	 Total Energy              =    -476.4011679577570817 [Eh]

	 ================> DF-SCS-MP2 Energies <==================
	-----------------------------------------------------------
	 SCS Same-Spin Scale       =       0.3333333333333333 [-]
	 SCS Opposite-Spin Scale   =       1.2000000000000000 [-]
	 SCS Same-Spin Energy      =      -0.1713915324401480 [Eh]
	 SCS Opposite-Spin Energy  =      -1.8667022282307704 [Eh]
	 SCS Correlation Energy    =      -2.0380937606709182 [Eh]
	 SCS Total Energy          =    -476.3695019309152485 [Eh]
	-----------------------------------------------------------

  Dipole Moment: [D]
     X:    -1.2734      Y:     1.9025      Z:     0.0001     Total:     2.2894

*** Psi4 exiting successfully. Buy a developer a beer!
