                               Psi4 1.3.2 release

  ==> Input File <==

--------------------------------------------------------------------------
#psi4
#
memory 32 gb

molecule  {
0 1
  O        3.0870850    -0.7380670     0.0000600
  N       -1.0742560    -1.1771330    -0.0000800
  C        0.9761220     0.0434820    -0.0000150
  C       -0.4881060     0.0430670    -0.0000040
  C        1.8814630     1.1555170    -0.0001020
  C       -1.2332690     1.2310260     0.0000830
  C        1.7670490    -1.0798270     0.0000780
  C       -2.6240280     1.1598410     0.0000810
  C        3.3244371     0.5502068    -0.0000378
  C       -3.2332050    -0.0939970     0.0000020
  C       -2.4150150    -1.2251180    -0.0000720
  H        1.6419750     2.2104320    -0.0002120
  H       -0.7317970     2.1947500     0.0001580
  H        1.5416230    -2.1350490     0.0001580
  H        4.1309200     1.0569280    -0.0000720
  H       -3.2210480     2.0687070     0.0001450
  H       -4.3145730    -0.1971740    -0.0000020
  H       -2.8500980    -2.2235110    -0.0001310
units angstrom
no_reorient  #important for SAPT in psi4, default
symmetry c1  #important for SAPT in psi4, default
}

set PROPERTIES_ORIGIN ["COM"]
properties('MP2/aug-cc-pvtz', properties = ['dipole'])
--------------------------------------------------------------------------

    Molecular point group: c1
  Charge       = 0
  Multiplicity = 1
  Basis Set: AUG-CC-PVTZ
    Blend: AUG-CC-PVTZ
  Basis Set: (AUG-CC-PVTZ AUX)
    Blend: AUG-CC-PVTZ-JKFIT

    Orbital Energies [Eh]
    ---------------------

    Doubly Occupied:

       1A    -20.643231     2A    -15.568139     3A    -11.305706
       4A    -11.293691     5A    -11.292535     6A    -11.280361
       7A    -11.264045     8A    -11.250602     9A    -11.244939
      10A    -11.243494    11A    -11.243137    12A     -1.478792
      13A     -1.260327    14A     -1.098977    15A     -1.089127
      16A     -1.018976    17A     -1.004854    18A     -0.875185
      19A     -0.866394    20A     -0.810747    21A     -0.788006
      22A     -0.750262    23A     -0.688764    24A     -0.669414
      25A     -0.655521    26A     -0.644538    27A     -0.636839
      28A     -0.590683    29A     -0.576392    30A     -0.553294
      31A     -0.550731    32A     -0.524443    33A     -0.502700
      34A     -0.423857    35A     -0.423136    36A     -0.383173
      37A     -0.327058    38A     -0.291703

  @DF-RHF Final Energy:  -474.27391659329379

   => Energetics <=

    Nuclear Repulsion Energy =            537.4638265330398781
    One-Electron Energy =               -1709.2479421931352590
    Two-Electron Energy =                 697.5101990668015333
    Total Energy =                       -474.2739165932937340
  Basis Set: (AUG-CC-PVTZ AUX)
    Blend: AUG-CC-PVTZ-RI
    Molecular point group: c1

    Geometry (in Angstrom), charge = 0, multiplicity = 1:

       Center              X                  Y                   Z               Mass
    ------------   -----------------  -----------------  -----------------  -----------------
         O            3.045945519508    -0.711317682460     0.000059709118    15.994914619570
         N           -1.115395480492    -1.150383682460    -0.000080290882    14.003074004430
         C            0.934982519508     0.070231317540    -0.000015290882    12.000000000000
         C           -0.529245480492     0.069816317540    -0.000004290882    12.000000000000
         C            1.840323519508     1.182266317540    -0.000102290882    12.000000000000
         C           -1.274408480492     1.257775317540     0.000082709118    12.000000000000
         C            1.725909519508    -1.053077682460     0.000077709118    12.000000000000
         C           -2.665167480492     1.186590317540     0.000080709118    12.000000000000
         C            3.283297619508     0.576956117540    -0.000038090882    12.000000000000
         C           -3.274344480492    -0.067247682460     0.000001709118    12.000000000000
         C           -2.456154480492    -1.198368682460    -0.000072290882    12.000000000000
         H            1.600835519508     2.237181317540    -0.000212290882     1.007825032230
         H           -0.772936480492     2.221499317540     0.000157709118     1.007825032230
         H            1.500483519508    -2.108299682460     0.000157709118     1.007825032230
         H            4.089780519508     1.083677317540    -0.000072290882     1.007825032230
         H           -3.262187480492     2.095456317540     0.000144709118     1.007825032230
         H           -4.355712480492    -0.170424682460    -0.000002290882     1.007825032230
         H           -2.891237480492    -2.196761682460    -0.000131290882     1.007825032230

  Basis Set: AUG-CC-PVTZ
    Blend: AUG-CC-PVTZ
  Basis Set: (AUG-CC-PVTZ AUX)
    Blend: AUG-CC-PVTZ-JKFIT
	 Reference Energy          =    -474.2739165932937908 [Eh]
	 Singles Energy            =      -0.0000000000000000 [Eh]
	 Same-Spin Energy          =      -0.5179557764224022 [Eh]
	 Opposite-Spin Energy      =      -1.5631145818739671 [Eh]
	 Correlation Energy        =      -2.0810703582963694 [Eh]
	 Total Energy              =    -476.3549869515901491 [Eh]

	 ================> DF-SCS-MP2 Energies <==================
	-----------------------------------------------------------
	 SCS Same-Spin Scale       =       0.3333333333333333 [-]
	 SCS Opposite-Spin Scale   =       1.2000000000000000 [-]
	 SCS Same-Spin Energy      =      -0.1726519254741340 [Eh]
	 SCS Opposite-Spin Energy  =      -1.8757374982487605 [Eh]
	 SCS Correlation Energy    =      -2.0483894237228943 [Eh]
	 SCS Total Energy          =    -476.3223060170166718 [Eh]
	-----------------------------------------------------------

  Dipole Moment: [D]
     X:    -1.3692      Y:     1.7343      Z:     0.0001     Total:     2.2097

*** Psi4 exiting successfully. Buy a developer a beer!
