                               Psi4 1.4a3.dev225

  ==> Input File <==

--------------------------------------------------------------------------
#psi4
#
memory 32 gb

molecule  {
0 1
  O        3.0870850    -0.7380670     0.0000600
  N       -1.0742560    -1.1771330    -0.0000800
  C        0.9761220     0.0434820    -0.0000150
  C       -0.4881060     0.0430670    -0.0000040
  C        1.8814630     1.1555170    -0.0001020
  C       -1.2438965     1.2479687     0.0000842
  C        1.7670490    -1.0798270     0.0000780
  C       -2.6240280     1.1598410     0.0000810
  C        3.1400070     0.6275730    -0.0000460
  C       -3.2332050    -0.0939970     0.0000020
  C       -2.4150150    -1.2251180    -0.0000720
  H        1.6419750     2.2104320    -0.0002120
  H       -0.7317970     2.1947500     0.0001580
  H        1.5416230    -2.1350490     0.0001580
  H        4.1309200     1.0569280    -0.0000720
  H       -3.2210480     2.0687070     0.0001450
  H       -4.3145730    -0.1971740    -0.0000020
  H       -2.8500980    -2.2235110    -0.0001310
units angstrom
no_reorient  #important for SAPT in psi4, default
symmetry c1  #important for SAPT in psi4, default
}

set PROPERTIES_ORIGIN ["COM"]
properties('MP2/aug-cc-pvtz', properties = ['dipole'])
--------------------------------------------------------------------------

    Molecular point group: c1
  Charge       = 0
  Multiplicity = 1
  Basis Set: AUG-CC-PVTZ
    Blend: AUG-CC-PVTZ
  Basis Set: (AUG-CC-PVTZ AUX)
    Blend: AUG-CC-PVTZ-JKFIT

    Orbital Energies [Eh]
    ---------------------

    Doubly Occupied:

       1A    -20.629280     2A    -15.565662     3A    -11.295023
       4A    -11.294623     5A    -11.293803     6A    -11.279064
       7A    -11.261800     8A    -11.243696     9A    -11.240517
      10A    -11.239727    11A    -11.237796    12A     -1.459484
      13A     -1.257768    14A     -1.105665    15A     -1.089494
      16A     -1.033008    17A     -0.998140    18A     -0.876196
      19A     -0.862389    20A     -0.796655    21A     -0.777461
      22A     -0.744838    23A     -0.688234    24A     -0.661701
      25A     -0.647180    26A     -0.636182    27A     -0.607202
      28A     -0.586185    29A     -0.575445    30A     -0.570518
      31A     -0.547939    32A     -0.538770    33A     -0.522962
      34A     -0.424910    35A     -0.420990    36A     -0.385134
      37A     -0.348018    38A     -0.298468

  @DF-RHF Final Energy:  -474.33056535112155

   => Energetics <=

    Nuclear Repulsion Energy =            539.5880953177435231
    One-Electron Energy =               -1713.7534667317775074
    Two-Electron Energy =                 699.8348060629123211
    Total Energy =                       -474.3305653511215496
  Basis Set: (AUG-CC-PVTZ AUX)
    Blend: AUG-CC-PVTZ-RI
    Molecular point group: c1

    Geometry (in Angstrom), charge = 0, multiplicity = 1:

       Center              X                  Y                   Z               Mass
    ------------   -----------------  -----------------  -----------------  -----------------
         O            3.062082345432    -0.719119717871     0.000060288217    15.994914619570
         N           -1.099258654568    -1.158185717871    -0.000079711783    14.003074004430
         C            0.951119345432     0.062429282129    -0.000014711783    12.000000000000
         C           -0.513108654568     0.062014282129    -0.000003711783    12.000000000000
         C            1.856460345432     1.174464282129    -0.000101711783    12.000000000000
         C           -1.268899154568     1.266915982129     0.000084488217    12.000000000000
         C            1.742046345432    -1.060879717871     0.000078288217    12.000000000000
         C           -2.649030654568     1.178788282129     0.000081288217    12.000000000000
         C            3.115004345432     0.646520282129    -0.000045711783    12.000000000000
         C           -3.258207654568    -0.075049717871     0.000002288217    12.000000000000
         C           -2.440017654568    -1.206170717871    -0.000071711783    12.000000000000
         H            1.616972345432     2.229379282129    -0.000211711783     1.007825032230
         H           -0.756799654568     2.213697282129     0.000158288217     1.007825032230
         H            1.516620345432    -2.116101717871     0.000158288217     1.007825032230
         H            4.105917345432     1.075875282129    -0.000071711783     1.007825032230
         H           -3.246050654568     2.087654282129     0.000145288217     1.007825032230
         H           -4.339575654568    -0.178226717871    -0.000001711783     1.007825032230
         H           -2.875100654568    -2.204563717871    -0.000130711783     1.007825032230

  Basis Set: AUG-CC-PVTZ
    Blend: AUG-CC-PVTZ
  Basis Set: (AUG-CC-PVTZ AUX)
    Blend: AUG-CC-PVTZ-JKFIT
	 Reference Energy          =    -474.3305653511215496 [Eh]
	 Singles Energy            =      -0.0000000000000000 [Eh]
	 Same-Spin Energy          =      -0.5141790519120863 [Eh]
	 Opposite-Spin Energy      =      -1.5569384860118323 [Eh]
	 Correlation Energy        =      -2.0711175379239188 [Eh]
	 Total Energy              =    -476.4016828890454462 [Eh]

	 ================> DF-SCS-MP2 Energies <==================
	-----------------------------------------------------------
	 SCS Same-Spin Scale       =       0.3333333333333333 [-]
	 SCS Opposite-Spin Scale   =       1.2000000000000000 [-]
	 SCS Same-Spin Energy      =      -0.1713930173040288 [Eh]
	 SCS Opposite-Spin Energy  =      -1.8683261832141986 [Eh]
	 SCS Correlation Energy    =      -2.0397192005182272 [Eh]
	 SCS Total Energy          =    -476.3702845516397701 [Eh]
	-----------------------------------------------------------

  Dipole Moment: [D]
     X:    -1.3041      Y:     2.0227      Z:     0.0001     Total:     2.4067

*** Psi4 exiting successfully. Buy a developer a beer!
