                               Psi4 1.3.2 release

  ==> Input File <==

--------------------------------------------------------------------------
#psi4
#
memory 32 gb

molecule  {
0 1
  O        3.0870850    -0.7380670     0.0000600
  N       -1.0742560    -1.1771330    -0.0000800
  C        0.9725263     0.1456204    -0.0000080
  C       -0.4881060     0.0430670    -0.0000040
  C        1.8814630     1.1555170    -0.0001020
  C       -1.2332690     1.2310260     0.0000830
  C        1.7670490    -1.0798270     0.0000780
  C       -2.6240280     1.1598410     0.0000810
  C        3.1400070     0.6275730    -0.0000460
  C       -3.2332050    -0.0939970     0.0000020
  C       -2.4150150    -1.2251180    -0.0000720
  H        1.6419750     2.2104320    -0.0002120
  H       -0.7317970     2.1947500     0.0001580
  H        1.5416230    -2.1350490     0.0001580
  H        4.1309200     1.0569280    -0.0000720
  H       -3.2210480     2.0687070     0.0001450
  H       -4.3145730    -0.1971740    -0.0000020
  H       -2.8500980    -2.2235110    -0.0001310
units angstrom
no_reorient  #important for SAPT in psi4, default
symmetry c1  #important for SAPT in psi4, default
}

set PROPERTIES_ORIGIN ["COM"]
properties('MP2/aug-cc-pvtz', properties = ['dipole'])
--------------------------------------------------------------------------

    Molecular point group: c1
  Charge       = 0
  Multiplicity = 1
  Basis Set: AUG-CC-PVTZ
    Blend: AUG-CC-PVTZ
  Basis Set: (AUG-CC-PVTZ AUX)
    Blend: AUG-CC-PVTZ-JKFIT

    Orbital Energies [Eh]
    ---------------------

    Doubly Occupied:

       1A    -20.637524     2A    -15.566380     3A    -11.304334
       4A    -11.293023     5A    -11.291418     6A    -11.280051
       7A    -11.262110     8A    -11.243390     9A    -11.240755
      10A    -11.240021    11A    -11.234529    12A     -1.461971
      13A     -1.257916    14A     -1.113056    15A     -1.087754
      16A     -1.037648    17A     -0.989355    18A     -0.876748
      19A     -0.862678    20A     -0.789886    21A     -0.786629
      22A     -0.745324    23A     -0.688655    24A     -0.662231
      25A     -0.647366    26A     -0.636018    27A     -0.608698
      28A     -0.592520    29A     -0.578469    30A     -0.567935
      31A     -0.548903    32A     -0.534875    33A     -0.520391
      34A     -0.430377    35A     -0.420151    36A     -0.384351
      37A     -0.349136    38A     -0.285793

  @DF-RHF Final Energy:  -474.31307836657146

   => Energetics <=

    Nuclear Repulsion Energy =            539.6703062425564212
    One-Electron Energy =               -1713.8500289890259864
    Two-Electron Energy =                 699.8666443798979344
    Total Energy =                       -474.3130783665715171
  Basis Set: (AUG-CC-PVTZ AUX)
    Blend: AUG-CC-PVTZ-RI
    Molecular point group: c1

    Geometry (in Angstrom), charge = 0, multiplicity = 1:

       Center              X                  Y                   Z               Mass
    ------------   -----------------  -----------------  -----------------  -----------------
         O            3.061500615048    -0.726167831763     0.000059808392    15.994914619570
         N           -1.099840384952    -1.165233831763    -0.000080191608    14.003074004430
         C            0.946941915048     0.157519568237    -0.000008191608    12.000000000000
         C           -0.513690384952     0.054966168237    -0.000004191608    12.000000000000
         C            1.855878615048     1.167416168237    -0.000102191608    12.000000000000
         C           -1.258853384952     1.242925168237     0.000082808392    12.000000000000
         C            1.741464615048    -1.067927831763     0.000077808392    12.000000000000
         C           -2.649612384952     1.171740168237     0.000080808392    12.000000000000
         C            3.114422615048     0.639472168237    -0.000046191608    12.000000000000
         C           -3.258789384952    -0.082097831763     0.000001808392    12.000000000000
         C           -2.440599384952    -1.213218831763    -0.000072191608    12.000000000000
         H            1.616390615048     2.222331168237    -0.000212191608     1.007825032230
         H           -0.757381384952     2.206649168237     0.000157808392     1.007825032230
         H            1.516038615048    -2.123149831763     0.000157808392     1.007825032230
         H            4.105335615048     1.068827168237    -0.000072191608     1.007825032230
         H           -3.246632384952     2.080606168237     0.000144808392     1.007825032230
         H           -4.340157384952    -0.185274831763    -0.000002191608     1.007825032230
         H           -2.875682384952    -2.211611831763    -0.000131191608     1.007825032230

  Basis Set: AUG-CC-PVTZ
    Blend: AUG-CC-PVTZ
  Basis Set: (AUG-CC-PVTZ AUX)
    Blend: AUG-CC-PVTZ-JKFIT
	 Reference Energy          =    -474.3130783665714603 [Eh]
	 Singles Energy            =      -0.0000000000000000 [Eh]
	 Same-Spin Energy          =      -0.5171723152238401 [Eh]
	 Opposite-Spin Energy      =      -1.5609556216081597 [Eh]
	 Correlation Energy        =      -2.0781279368319998 [Eh]
	 Total Energy              =    -476.3912063034034645 [Eh]

	 ================> DF-SCS-MP2 Energies <==================
	-----------------------------------------------------------
	 SCS Same-Spin Scale       =       0.3333333333333333 [-]
	 SCS Opposite-Spin Scale   =       1.2000000000000000 [-]
	 SCS Same-Spin Energy      =      -0.1723907717412800 [Eh]
	 SCS Opposite-Spin Energy  =      -1.8731467459297915 [Eh]
	 SCS Correlation Energy    =      -2.0455375176710717 [Eh]
	 SCS Total Energy          =    -476.3586158842425107 [Eh]
	-----------------------------------------------------------

  Dipole Moment: [D]
     X:    -1.2745      Y:     2.0317      Z:     0.0001     Total:     2.3984

*** Psi4 exiting successfully. Buy a developer a beer!
