                               Psi4 1.3.2 release

  ==> Input File <==

--------------------------------------------------------------------------
#psi4
#
memory 32 gb

molecule  {
0 1
  O        3.0870850    -0.7380670     0.0000600
  N       -1.0742560    -1.1771330    -0.0000800
  C        0.9761220     0.0434820    -0.0000150
  C       -0.4881060     0.0430670    -0.0000040
  C        1.8814630     1.1555170    -0.0001020
  C       -1.2332690     1.2310260     0.0000830
  C        1.7670490    -1.0798270     0.0000780
  C       -2.6240280     1.1598410     0.0000810
  C        3.1400070     0.6275730    -0.0000460
  C       -3.2332050    -0.0939970     0.0000020
  C       -2.4150150    -1.2251180    -0.0000720
  H        1.6198362     2.3079506    -0.0002222
  H       -0.7317970     2.1947500     0.0001580
  H        1.5416230    -2.1350490     0.0001580
  H        4.1309200     1.0569280    -0.0000720
  H       -3.2210480     2.0687070     0.0001450
  H       -4.3145730    -0.1971740    -0.0000020
  H       -2.8500980    -2.2235110    -0.0001310
units angstrom
no_reorient  #important for SAPT in psi4, default
symmetry c1  #important for SAPT in psi4, default
}

set PROPERTIES_ORIGIN ["COM"]
properties('MP2/aug-cc-pvtz', properties = ['dipole'])
--------------------------------------------------------------------------

    Molecular point group: c1
  Charge       = 0
  Multiplicity = 1
  Basis Set: AUG-CC-PVTZ
    Blend: AUG-CC-PVTZ
  Basis Set: (AUG-CC-PVTZ AUX)
    Blend: AUG-CC-PVTZ-JKFIT

    Orbital Energies [Eh]
    ---------------------

    Doubly Occupied:

       1A    -20.629323     2A    -15.565798     3A    -11.294491
       4A    -11.294008     5A    -11.292355     6A    -11.279490
       7A    -11.263291     8A    -11.248278     9A    -11.243279
      10A    -11.241157    11A    -11.240082    12A     -1.459554
      13A     -1.258678    14A     -1.105068    15A     -1.088542
      16A     -1.033093    17A     -0.998197    18A     -0.875517
      19A     -0.863101    20A     -0.788883    21A     -0.777749
      22A     -0.740692    23A     -0.686806    24A     -0.661301
      25A     -0.645452    26A     -0.636356    27A     -0.606407
      28A     -0.585866    29A     -0.573889    30A     -0.558717
      31A     -0.548985    32A     -0.538311    33A     -0.520027
      34A     -0.425095    35A     -0.422063    36A     -0.383849
      37A     -0.349018    38A     -0.299407

  @DF-RHF Final Energy:  -474.32348617220566

   => Energetics <=

    Nuclear Repulsion Energy =            539.4096170253366154
    One-Electron Energy =               -1713.4218536136315834
    Two-Electron Energy =                 699.6887504160891922
    Total Energy =                       -474.3234861722056621
  Basis Set: (AUG-CC-PVTZ AUX)
    Blend: AUG-CC-PVTZ-RI
    Molecular point group: c1

    Geometry (in Angstrom), charge = 0, multiplicity = 1:

       Center              X                  Y                   Z               Mass
    ------------   -----------------  -----------------  -----------------  -----------------
         O            3.061356968263    -0.718395631608     0.000060458361    15.994914619570
         N           -1.099984031737    -1.157461631608    -0.000079541639    14.003074004430
         C            0.950393968263     0.063153368392    -0.000014541639    12.000000000000
         C           -0.513834031737     0.062738368392    -0.000003541639    12.000000000000
         C            1.855734968263     1.175188368392    -0.000101541639    12.000000000000
         C           -1.258997031737     1.250697368392     0.000083458361    12.000000000000
         C            1.741320968263    -1.060155631608     0.000078458361    12.000000000000
         C           -2.649756031737     1.179512368392     0.000081458361    12.000000000000
         C            3.114278968263     0.647244368392    -0.000045541639    12.000000000000
         C           -3.258933031737    -0.074325631608     0.000002458361    12.000000000000
         C           -2.440743031737    -1.205446631608    -0.000071541639    12.000000000000
         H            1.594108168263     2.327621968392    -0.000221741639     1.007825032230
         H           -0.757525031737     2.214421368392     0.000158458361     1.007825032230
         H            1.515894968263    -2.115377631608     0.000158458361     1.007825032230
         H            4.105191968263     1.076599368392    -0.000071541639     1.007825032230
         H           -3.246776031737     2.088378368392     0.000145458361     1.007825032230
         H           -4.340301031737    -0.177502631608    -0.000001541639     1.007825032230
         H           -2.875826031737    -2.203839631608    -0.000130541639     1.007825032230

  Basis Set: AUG-CC-PVTZ
    Blend: AUG-CC-PVTZ
  Basis Set: (AUG-CC-PVTZ AUX)
    Blend: AUG-CC-PVTZ-JKFIT
	 Reference Energy          =    -474.3234861722056621 [Eh]
	 Singles Energy            =      -0.0000000000000000 [Eh]
	 Same-Spin Energy          =      -0.5144403275839474 [Eh]
	 Opposite-Spin Energy      =      -1.5579062123055847 [Eh]
	 Correlation Energy        =      -2.0723465398895322 [Eh]
	 Total Energy              =    -476.3958327120951708 [Eh]

	 ================> DF-SCS-MP2 Energies <==================
	-----------------------------------------------------------
	 SCS Same-Spin Scale       =       0.3333333333333333 [-]
	 SCS Opposite-Spin Scale   =       1.2000000000000000 [-]
	 SCS Same-Spin Energy      =      -0.1714801091946491 [Eh]
	 SCS Opposite-Spin Energy  =      -1.8694874547667015 [Eh]
	 SCS Correlation Energy    =      -2.0409675639613507 [Eh]
	 SCS Total Energy          =    -476.3644537361670359 [Eh]
	-----------------------------------------------------------

  Dipole Moment: [D]
     X:    -1.3494      Y:     2.0104      Z:     0.0001     Total:     2.4213

*** Psi4 exiting successfully. Buy a developer a beer!
