                               Psi4 1.4a3.dev225

  ==> Input File <==

--------------------------------------------------------------------------
#psi4
#
memory 32 gb

molecule  {
0 1
  O        3.0870850    -0.7380670     0.0000600
  N       -1.0742560    -1.1771330    -0.0000800
  C        0.9761220     0.0434820    -0.0000150
  C       -0.4664558     0.0881366    -0.0000012
  C        1.8814630     1.1555170    -0.0001020
  C       -1.2332690     1.2310260     0.0000830
  C        1.7670490    -1.0798270     0.0000780
  C       -2.6240280     1.1598410     0.0000810
  C        3.1400070     0.6275730    -0.0000460
  C       -3.2332050    -0.0939970     0.0000020
  C       -2.4150150    -1.2251180    -0.0000720
  H        1.6419750     2.2104320    -0.0002120
  H       -0.7317970     2.1947500     0.0001580
  H        1.5416230    -2.1350490     0.0001580
  H        4.1309200     1.0569280    -0.0000720
  H       -3.2210480     2.0687070     0.0001450
  H       -4.3145730    -0.1971740    -0.0000020
  H       -2.8500980    -2.2235110    -0.0001310
units angstrom
no_reorient  #important for SAPT in psi4, default
symmetry c1  #important for SAPT in psi4, default
}

set PROPERTIES_ORIGIN ["COM"]
properties('MP2/aug-cc-pvtz', properties = ['dipole'])
--------------------------------------------------------------------------

    Molecular point group: c1
  Charge       = 0
  Multiplicity = 1
  Basis Set: AUG-CC-PVTZ
    Blend: AUG-CC-PVTZ
  Basis Set: (AUG-CC-PVTZ AUX)
    Blend: AUG-CC-PVTZ-JKFIT

    Orbital Energies [Eh]
    ---------------------

    Doubly Occupied:

       1A    -20.629602     2A    -15.567882     3A    -11.295736
       4A    -11.293620     5A    -11.291211     6A    -11.279061
       7A    -11.264091     8A    -11.241285     9A    -11.241172
      10A    -11.239297    11A    -11.236950    12A     -1.459790
      13A     -1.247082    14A     -1.108517    15A     -1.086656
      16A     -1.035489    17A     -0.999191    18A     -0.879268
      19A     -0.860463    20A     -0.794911    21A     -0.779780
      22A     -0.745867    23A     -0.685515    24A     -0.660804
      25A     -0.646285    26A     -0.636530    27A     -0.608453
      28A     -0.587933    29A     -0.574986    30A     -0.572177
      31A     -0.544835    32A     -0.539922    33A     -0.517253
      34A     -0.426806    35A     -0.421076    36A     -0.381237
      37A     -0.350329    38A     -0.298359

  @DF-RHF Final Energy:  -474.32616889961668

   => Energetics <=

    Nuclear Repulsion Energy =            539.7262592176790577
    One-Electron Energy =               -1714.0460149814255146
    Two-Electron Energy =                 699.9935868641297247
    Total Energy =                       -474.3261688996166185
  Basis Set: (AUG-CC-PVTZ AUX)
    Blend: AUG-CC-PVTZ-RI
    Molecular point group: c1

    Geometry (in Angstrom), charge = 0, multiplicity = 1:

       Center              X                  Y                   Z               Mass
    ------------   -----------------  -----------------  -----------------  -----------------
         O            3.059412059187    -0.721446614588     0.000060155852    15.994914619570
         N           -1.101928940813    -1.160512614588    -0.000079844148    14.003074004430
         C            0.948449059187     0.060102385412    -0.000014844148    12.000000000000
         C           -0.494128740813     0.104756985412    -0.000001044148    12.000000000000
         C            1.853790059187     1.172137385412    -0.000101844148    12.000000000000
         C           -1.260941940813     1.247646385412     0.000083155852    12.000000000000
         C            1.739376059187    -1.063206614588     0.000078155852    12.000000000000
         C           -2.651700940813     1.176461385412     0.000081155852    12.000000000000
         C            3.112334059187     0.644193385412    -0.000045844148    12.000000000000
         C           -3.260877940813    -0.077376614588     0.000002155852    12.000000000000
         C           -2.442687940813    -1.208497614588    -0.000071844148    12.000000000000
         H            1.614302059187     2.227052385412    -0.000211844148     1.007825032230
         H           -0.759469940813     2.211370385412     0.000158155852     1.007825032230
         H            1.513950059187    -2.118428614588     0.000158155852     1.007825032230
         H            4.103247059187     1.073548385412    -0.000071844148     1.007825032230
         H           -3.248720940813     2.085327385412     0.000145155852     1.007825032230
         H           -4.342245940813    -0.180553614588    -0.000001844148     1.007825032230
         H           -2.877770940813    -2.206890614588    -0.000130844148     1.007825032230

  Basis Set: AUG-CC-PVTZ
    Blend: AUG-CC-PVTZ
  Basis Set: (AUG-CC-PVTZ AUX)
    Blend: AUG-CC-PVTZ-JKFIT
	 Reference Energy          =    -474.3261688996166754 [Eh]
	 Singles Energy            =      -0.0000000000000000 [Eh]
	 Same-Spin Energy          =      -0.5147681587173659 [Eh]
	 Opposite-Spin Energy      =      -1.5584611195477605 [Eh]
	 Correlation Energy        =      -2.0732292782651265 [Eh]
	 Total Energy              =    -476.3993981778817783 [Eh]

	 ================> DF-SCS-MP2 Energies <==================
	-----------------------------------------------------------
	 SCS Same-Spin Scale       =       0.3333333333333333 [-]
	 SCS Opposite-Spin Scale   =       1.2000000000000000 [-]
	 SCS Same-Spin Energy      =      -0.1715893862391220 [Eh]
	 SCS Opposite-Spin Energy  =      -1.8701533434573125 [Eh]
	 SCS Correlation Energy    =      -2.0417427296964346 [Eh]
	 SCS Total Energy          =    -476.3679116293130846 [Eh]
	-----------------------------------------------------------

  Dipole Moment: [D]
     X:    -1.2914      Y:     2.0293      Z:     0.0001     Total:     2.4054

*** Psi4 exiting successfully. Buy a developer a beer!
