                               Psi4 1.3.2 release

  ==> Input File <==

--------------------------------------------------------------------------
#psi4
#
memory 32 gb

molecule  {
0 1
  O        3.0870850    -0.7380670     0.0000600
  N       -1.0742560    -1.1771330    -0.0000800
  C        0.9761220     0.0434820    -0.0000150
  C       -0.4881060     0.0430670    -0.0000040
  C        1.8814630     1.1555170    -0.0001020
  C       -1.2332690     1.2310260     0.0000830
  C        1.7670490    -1.0798270     0.0000780
  C       -2.6240280     1.1598410     0.0000810
  C        2.9555769     0.7049392    -0.0000542
  C       -3.2332050    -0.0939970     0.0000020
  C       -2.4150150    -1.2251180    -0.0000720
  H        1.6419750     2.2104320    -0.0002120
  H       -0.7317970     2.1947500     0.0001580
  H        1.5416230    -2.1350490     0.0001580
  H        4.1309200     1.0569280    -0.0000720
  H       -3.2210480     2.0687070     0.0001450
  H       -4.3145730    -0.1971740    -0.0000020
  H       -2.8500980    -2.2235110    -0.0001310
units angstrom
no_reorient  #important for SAPT in psi4, default
symmetry c1  #important for SAPT in psi4, default
}

set PROPERTIES_ORIGIN ["COM"]
properties('MP2/aug-cc-pvtz', properties = ['dipole'])
--------------------------------------------------------------------------

    Molecular point group: c1
  Charge       = 0
  Multiplicity = 1
  Basis Set: AUG-CC-PVTZ
    Blend: AUG-CC-PVTZ
  Basis Set: (AUG-CC-PVTZ AUX)
    Blend: AUG-CC-PVTZ-JKFIT

    Orbital Energies [Eh]
    ---------------------

    Doubly Occupied:

       1A    -20.615020     2A    -15.563681     3A    -11.296879
       4A    -11.291865     5A    -11.281589     6A    -11.279019
       7A    -11.263008     8A    -11.242200     9A    -11.239350
      10A    -11.237097    11A    -11.215795    12A     -1.435859
      13A     -1.257451    14A     -1.141787    15A     -1.088100
      16A     -1.054517    17A     -0.990465    18A     -0.873595
      19A     -0.859546    20A     -0.795642    21A     -0.770164
      22A     -0.738344    23A     -0.684305    24A     -0.660325
      25A     -0.648909    26A     -0.630193    27A     -0.596982
      28A     -0.588330    29A     -0.576180    30A     -0.552315
      31A     -0.547380    32A     -0.535763    33A     -0.509486
      34A     -0.443535    35A     -0.420364    36A     -0.391932
      37A     -0.372468    38A     -0.298150

  @DF-RHF Final Energy:  -474.26241157200042

   => Energetics <=

    Nuclear Repulsion Energy =            542.7713649274387535
    One-Electron Energy =               -1720.0923741447286375
    Two-Electron Energy =                 703.0585976452894101
    Total Energy =                       -474.2624115720004738
  Basis Set: (AUG-CC-PVTZ AUX)
    Blend: AUG-CC-PVTZ-RI
    Molecular point group: c1

    Geometry (in Angstrom), charge = 0, multiplicity = 1:

       Center              X                  Y                   Z               Mass
    ------------   -----------------  -----------------  -----------------  -----------------
         O            3.076460776732    -0.724118464402     0.000061065866    15.994914619570
         N           -1.084880223268    -1.163184464402    -0.000078934134    14.003074004430
         C            0.965497776732     0.057430535598    -0.000013934134    12.000000000000
         C           -0.498730223268     0.057015535598    -0.000002934134    12.000000000000
         C            1.870838776732     1.169465535598    -0.000100934134    12.000000000000
         C           -1.243893223268     1.244974535598     0.000084065866    12.000000000000
         C            1.756424776732    -1.065878464402     0.000079065866    12.000000000000
         C           -2.634652223268     1.173789535598     0.000082065866    12.000000000000
         C            2.944952676732     0.718887735598    -0.000053134134    12.000000000000
         C           -3.243829223268    -0.080048464402     0.000003065866    12.000000000000
         C           -2.425639223268    -1.211169464402    -0.000070934134    12.000000000000
         H            1.631350776732     2.224380535598    -0.000210934134     1.007825032230
         H           -0.742421223268     2.208698535598     0.000159065866     1.007825032230
         H            1.530998776732    -2.121100464402     0.000159065866     1.007825032230
         H            4.120295776732     1.070876535598    -0.000070934134     1.007825032230
         H           -3.231672223268     2.082655535598     0.000146065866     1.007825032230
         H           -4.325197223268    -0.183225464402    -0.000000934134     1.007825032230
         H           -2.860722223268    -2.209562464402    -0.000129934134     1.007825032230

  Basis Set: AUG-CC-PVTZ
    Blend: AUG-CC-PVTZ
  Basis Set: (AUG-CC-PVTZ AUX)
    Blend: AUG-CC-PVTZ-JKFIT
	 Reference Energy          =    -474.2624115720004170 [Eh]
	 Singles Energy            =      -0.0000000000000000 [Eh]
	 Same-Spin Energy          =      -0.5131593225774151 [Eh]
	 Opposite-Spin Energy      =      -1.5567501856408006 [Eh]
	 Correlation Energy        =      -2.0699095082182160 [Eh]
	 Total Energy              =    -476.3323210802186054 [Eh]

	 ================> DF-SCS-MP2 Energies <==================
	-----------------------------------------------------------
	 SCS Same-Spin Scale       =       0.3333333333333333 [-]
	 SCS Opposite-Spin Scale   =       1.2000000000000000 [-]
	 SCS Same-Spin Energy      =      -0.1710531075258050 [Eh]
	 SCS Opposite-Spin Energy  =      -1.8681002227689607 [Eh]
	 SCS Correlation Energy    =      -2.0391533302947655 [Eh]
	 SCS Total Energy          =    -476.3015649022951834 [Eh]
	-----------------------------------------------------------

  Dipole Moment: [D]
     X:    -1.4677      Y:     2.2940      Z:     0.0001     Total:     2.7233

*** Psi4 exiting successfully. Buy a developer a beer!
