                               Psi4 1.3.2 release

  ==> Input File <==

--------------------------------------------------------------------------
#psi4
#
memory 32 gb

molecule  {
0 1
  O        3.0870850    -0.7380670     0.0000600
  N       -1.0742560    -1.1771330    -0.0000800
  C        0.9761220     0.0434820    -0.0000150
  C       -0.4881060     0.0430670    -0.0000040
  C        1.8814630     1.1555170    -0.0001020
  C       -1.2332690     1.2310260     0.0000830
  C        1.7670490    -1.0798270     0.0000780
  C       -2.6240280     1.1598410     0.0000810
  C        3.1737688     0.7166506    -0.0000552
  C       -3.2332050    -0.0939970     0.0000020
  C       -2.4150150    -1.2251180    -0.0000720
  H        1.6419750     2.2104320    -0.0002120
  H       -0.7317970     2.1947500     0.0001580
  H        1.5416230    -2.1350490     0.0001580
  H        4.1309200     1.0569280    -0.0000720
  H       -3.2210480     2.0687070     0.0001450
  H       -4.3145730    -0.1971740    -0.0000020
  H       -2.8500980    -2.2235110    -0.0001310
units angstrom
no_reorient  #important for SAPT in psi4, default
symmetry c1  #important for SAPT in psi4, default
}

set PROPERTIES_ORIGIN ["COM"]
properties('MP2/aug-cc-pvtz', properties = ['dipole'])
--------------------------------------------------------------------------

    Molecular point group: c1
  Charge       = 0
  Multiplicity = 1
  Basis Set: AUG-CC-PVTZ
    Blend: AUG-CC-PVTZ
  Basis Set: (AUG-CC-PVTZ AUX)
    Blend: AUG-CC-PVTZ-JKFIT

    Orbital Energies [Eh]
    ---------------------

    Doubly Occupied:

       1A    -20.617213     2A    -15.565189     3A    -11.299876
       4A    -11.292880     5A    -11.292860     6A    -11.279494
       7A    -11.263212     8A    -11.247082     9A    -11.242680
      10A    -11.240294    11A    -11.237878    12A     -1.425452
      13A     -1.258388    14A     -1.103324    15A     -1.088277
      16A     -1.035121    17A     -0.995996    18A     -0.871932
      19A     -0.863312    20A     -0.799520    21A     -0.780713
      22A     -0.742172    23A     -0.686185    24A     -0.662795
      25A     -0.643915    26A     -0.616564    27A     -0.615271
      28A     -0.586771    29A     -0.575316    30A     -0.563942
      31A     -0.547962    32A     -0.536111    33A     -0.519778
      34A     -0.423674    35A     -0.421789    36A     -0.384305
      37A     -0.354042    38A     -0.298007

  @DF-RHF Final Energy:  -474.31879960882895

   => Energetics <=

    Nuclear Repulsion Energy =            538.1153932578499735
    One-Electron Energy =               -1710.9097995215183801
    Two-Electron Energy =                 698.4756066548394529
    Total Energy =                       -474.3187996088289538
  Basis Set: (AUG-CC-PVTZ AUX)
    Blend: AUG-CC-PVTZ-RI
    Molecular point group: c1

    Geometry (in Angstrom), charge = 0, multiplicity = 1:

       Center              X                  Y                   Z               Mass
    ------------   -----------------  -----------------  -----------------  -----------------
         O            3.058410084484    -0.725087331152     0.000061148594    15.994914619570
         N           -1.102930915516    -1.164153331152    -0.000078851406    14.003074004430
         C            0.947447084484     0.056461668848    -0.000013851406    12.000000000000
         C           -0.516780915516     0.056046668848    -0.000002851406    12.000000000000
         C            1.852788084484     1.168496668848    -0.000100851406    12.000000000000
         C           -1.261943915516     1.244005668848     0.000084148594    12.000000000000
         C            1.738374084484    -1.066847331152     0.000079148594    12.000000000000
         C           -2.652702915516     1.172820668848     0.000082148594    12.000000000000
         C            3.145093884484     0.729630268848    -0.000054051406    12.000000000000
         C           -3.261879915516    -0.081017331152     0.000003148594    12.000000000000
         C           -2.443689915516    -1.212138331152    -0.000070851406    12.000000000000
         H            1.613300084484     2.223411668848    -0.000210851406     1.007825032230
         H           -0.760471915516     2.207729668848     0.000159148594     1.007825032230
         H            1.512948084484    -2.122069331152     0.000159148594     1.007825032230
         H            4.102245084484     1.069907668848    -0.000070851406     1.007825032230
         H           -3.249722915516     2.081686668848     0.000146148594     1.007825032230
         H           -4.343247915516    -0.184194331152    -0.000000851406     1.007825032230
         H           -2.878772915516    -2.210531331152    -0.000129851406     1.007825032230

  Basis Set: AUG-CC-PVTZ
    Blend: AUG-CC-PVTZ
  Basis Set: (AUG-CC-PVTZ AUX)
    Blend: AUG-CC-PVTZ-JKFIT
	 Reference Energy          =    -474.3187996088289538 [Eh]
	 Singles Energy            =      -0.0000000000000000 [Eh]
	 Same-Spin Energy          =      -0.5143627534321835 [Eh]
	 Opposite-Spin Energy      =      -1.5590097650225379 [Eh]
	 Correlation Energy        =      -2.0733725184547214 [Eh]
	 Total Energy              =    -476.3921721272836862 [Eh]

	 ================> DF-SCS-MP2 Energies <==================
	-----------------------------------------------------------
	 SCS Same-Spin Scale       =       0.3333333333333333 [-]
	 SCS Opposite-Spin Scale   =       1.2000000000000000 [-]
	 SCS Same-Spin Energy      =      -0.1714542511440612 [Eh]
	 SCS Opposite-Spin Energy  =      -1.8708117180270454 [Eh]
	 SCS Correlation Energy    =      -2.0422659691711065 [Eh]
	 SCS Total Energy          =    -476.3610655780000798 [Eh]
	-----------------------------------------------------------

  Dipole Moment: [D]
     X:    -1.3482      Y:     2.1586      Z:     0.0001     Total:     2.5450

*** Psi4 exiting successfully. Buy a developer a beer!
