                               Psi4 1.3.2 release

  ==> Input File <==

--------------------------------------------------------------------------
#psi4
#
memory 32 gb

molecule  {
0 1
  O        3.0870850    -0.7380670     0.0000600
  N       -1.0742560    -1.1771330    -0.0000800
  C        0.9761220     0.0434820    -0.0000150
  C       -0.6188626     0.0976520     0.0000007
  C        1.8814630     1.1555170    -0.0001020
  C       -1.2332690     1.2310260     0.0000830
  C        1.7670490    -1.0798270     0.0000780
  C       -2.6240280     1.1598410     0.0000810
  C        3.1400070     0.6275730    -0.0000460
  C       -3.2332050    -0.0939970     0.0000020
  C       -2.4150150    -1.2251180    -0.0000720
  H        1.6419750     2.2104320    -0.0002120
  H       -0.7317970     2.1947500     0.0001580
  H        1.5416230    -2.1350490     0.0001580
  H        4.1309200     1.0569280    -0.0000720
  H       -3.2210480     2.0687070     0.0001450
  H       -4.3145730    -0.1971740    -0.0000020
  H       -2.8500980    -2.2235110    -0.0001310
units angstrom
no_reorient  #important for SAPT in psi4, default
symmetry c1  #important for SAPT in psi4, default
}

set PROPERTIES_ORIGIN ["COM"]
properties('MP2/aug-cc-pvtz', properties = ['dipole'])
--------------------------------------------------------------------------

    Molecular point group: c1
  Charge       = 0
  Multiplicity = 1
  Basis Set: AUG-CC-PVTZ
    Blend: AUG-CC-PVTZ
  Basis Set: (AUG-CC-PVTZ AUX)
    Blend: AUG-CC-PVTZ-JKFIT

    Orbital Energies [Eh]
    ---------------------

    Doubly Occupied:

       1A    -20.621050     2A    -15.572184     3A    -11.286731
       4A    -11.286558     5A    -11.284715     6A    -11.283638
       7A    -11.270070     8A    -11.245374     9A    -11.237895
      10A    -11.234784    11A    -11.229747    12A     -1.451131
      13A     -1.270757    14A     -1.105751    15A     -1.090817
      16A     -1.040496    17A     -0.993114    18A     -0.879082
      19A     -0.859666    20A     -0.789331    21A     -0.772156
      22A     -0.740375    23A     -0.687141    24A     -0.673869
      25A     -0.647464    26A     -0.628119    27A     -0.602948
      28A     -0.587007    29A     -0.571322    30A     -0.566581
      31A     -0.560106    32A     -0.531752    33A     -0.494042
      34A     -0.438946    35A     -0.413186    36A     -0.389742
      37A     -0.354813    38A     -0.302569

  @DF-RHF Final Energy:  -474.30767129756612

   => Energetics <=

    Nuclear Repulsion Energy =            540.0749147703228346
    One-Electron Energy =               -1714.7751132670996412
    Two-Electron Energy =                 700.3925271992108037
    Total Energy =                       -474.3076712975661167
  Basis Set: (AUG-CC-PVTZ AUX)
    Blend: AUG-CC-PVTZ-RI
    Molecular point group: c1

    Geometry (in Angstrom), charge = 0, multiplicity = 1:

       Center              X                  Y                   Z               Mass
    ------------   -----------------  -----------------  -----------------  -----------------
         O            3.072020447690    -0.722233809516     0.000059998668    15.994914619570
         N           -1.089320552310    -1.161299809516    -0.000080001332    14.003074004430
         C            0.961057447690     0.059315190484    -0.000015001332    12.000000000000
         C           -0.633927152310     0.113485190484     0.000000698668    12.000000000000
         C            1.866398447690     1.171350190484    -0.000102001332    12.000000000000
         C           -1.248333552310     1.246859190484     0.000082998668    12.000000000000
         C            1.751984447690    -1.063993809516     0.000077998668    12.000000000000
         C           -2.639092552310     1.175674190484     0.000080998668    12.000000000000
         C            3.124942447690     0.643406190484    -0.000046001332    12.000000000000
         C           -3.248269552310    -0.078163809516     0.000001998668    12.000000000000
         C           -2.430079552310    -1.209284809516    -0.000072001332    12.000000000000
         H            1.626910447690     2.226265190484    -0.000212001332     1.007825032230
         H           -0.746861552310     2.210583190484     0.000157998668     1.007825032230
         H            1.526558447690    -2.119215809516     0.000157998668     1.007825032230
         H            4.115855447690     1.072761190484    -0.000072001332     1.007825032230
         H           -3.236112552310     2.084540190484     0.000144998668     1.007825032230
         H           -4.329637552310    -0.181340809516    -0.000002001332     1.007825032230
         H           -2.865162552310    -2.207677809516    -0.000131001332     1.007825032230

  Basis Set: AUG-CC-PVTZ
    Blend: AUG-CC-PVTZ
  Basis Set: (AUG-CC-PVTZ AUX)
    Blend: AUG-CC-PVTZ-JKFIT
	 Reference Energy          =    -474.3076712975661167 [Eh]
	 Singles Energy            =      -0.0000000000000000 [Eh]
	 Same-Spin Energy          =      -0.5133524885652825 [Eh]
	 Opposite-Spin Energy      =      -1.5565572569028907 [Eh]
	 Correlation Energy        =      -2.0699097454681734 [Eh]
	 Total Energy              =    -476.3775810430342972 [Eh]

	 ================> DF-SCS-MP2 Energies <==================
	-----------------------------------------------------------
	 SCS Same-Spin Scale       =       0.3333333333333333 [-]
	 SCS Opposite-Spin Scale   =       1.2000000000000000 [-]
	 SCS Same-Spin Energy      =      -0.1711174961884275 [Eh]
	 SCS Opposite-Spin Energy  =      -1.8678687082834688 [Eh]
	 SCS Correlation Energy    =      -2.0389862044718963 [Eh]
	 SCS Total Energy          =    -476.3466575020379992 [Eh]
	-----------------------------------------------------------

  Dipole Moment: [D]
     X:    -2.0482      Y:     2.0331      Z:     0.0001     Total:     2.8860

*** Psi4 exiting successfully. Buy a developer a beer!
