                               Psi4 1.3.2 release

  ==> Input File <==

--------------------------------------------------------------------------
#psi4
#
memory 32 gb

molecule  {
0 1
  O        3.0870850    -0.7380670     0.0000600
  N       -1.0742560    -1.1771330    -0.0000800
  C        0.9761220     0.0434820    -0.0000150
  C       -0.4881060     0.0430670    -0.0000040
  C        1.8814630     1.1555170    -0.0001020
  C       -1.3395444     1.4004531     0.0000954
  C        1.7670490    -1.0798270     0.0000780
  C       -2.6240280     1.1598410     0.0000810
  C        3.1400070     0.6275730    -0.0000460
  C       -3.2332050    -0.0939970     0.0000020
  C       -2.4150150    -1.2251180    -0.0000720
  H        1.6419750     2.2104320    -0.0002120
  H       -0.7317970     2.1947500     0.0001580
  H        1.5416230    -2.1350490     0.0001580
  H        4.1309200     1.0569280    -0.0000720
  H       -3.2210480     2.0687070     0.0001450
  H       -4.3145730    -0.1971740    -0.0000020
  H       -2.8500980    -2.2235110    -0.0001310
units angstrom
no_reorient  #important for SAPT in psi4, default
symmetry c1  #important for SAPT in psi4, default
}

set PROPERTIES_ORIGIN ["COM"]
properties('MP2/aug-cc-pvtz', properties = ['dipole'])
--------------------------------------------------------------------------

    Molecular point group: c1
  Charge       = 0
  Multiplicity = 1
  Basis Set: AUG-CC-PVTZ
    Blend: AUG-CC-PVTZ
  Basis Set: (AUG-CC-PVTZ AUX)
    Blend: AUG-CC-PVTZ-JKFIT

    Orbital Energies [Eh]
    ---------------------

    Doubly Occupied:

       1A    -20.634178     2A    -15.564534     3A    -11.312262
       4A    -11.300894     5A    -11.297236     6A    -11.276485
       7A    -11.249652     8A    -11.245949     9A    -11.243773
      10A    -11.241798    11A    -11.235587    12A     -1.464109
      13A     -1.251587    14A     -1.107706    15A     -1.097477
      16A     -1.028639    17A     -0.997122    18A     -0.884550
      19A     -0.853062    20A     -0.801132    21A     -0.776783
      22A     -0.742007    23A     -0.701889    24A     -0.670925
      25A     -0.641913    26A     -0.640062    27A     -0.608098
      28A     -0.589051    29A     -0.578964    30A     -0.558400
      31A     -0.540911    32A     -0.539256    33A     -0.530399
      34A     -0.429287    35A     -0.405643    36A     -0.396878
      37A     -0.344404    38A     -0.294034

  @DF-RHF Final Energy:  -474.29041228134673

   => Energetics <=

    Nuclear Repulsion Energy =            537.1614824706374520
    One-Electron Energy =               -1708.7505164757856164
    Two-Electron Energy =                 697.2986217238016025
    Total Energy =                       -474.2904122813466756
  Basis Set: (AUG-CC-PVTZ AUX)
    Blend: AUG-CC-PVTZ-RI
    Molecular point group: c1

    Geometry (in Angstrom), charge = 0, multiplicity = 1:

       Center              X                  Y                   Z               Mass
    ------------   -----------------  -----------------  -----------------  -----------------
         O            3.069995154326    -0.731734526107     0.000059361658    15.994914619570
         N           -1.091345845674    -1.170800526107    -0.000080638342    14.003074004430
         C            0.959032154326     0.049814473893    -0.000015638342    12.000000000000
         C           -0.505195845674     0.049399473893    -0.000004638342    12.000000000000
         C            1.864373154326     1.161849473893    -0.000102638342    12.000000000000
         C           -1.356634245674     1.406785573893     0.000094761658    12.000000000000
         C            1.749959154326    -1.073494526107     0.000077361658    12.000000000000
         C           -2.641117845674     1.166173473893     0.000080361658    12.000000000000
         C            3.122917154326     0.633905473893    -0.000046638342    12.000000000000
         C           -3.250294845674    -0.087664526107     0.000001361658    12.000000000000
         C           -2.432104845674    -1.218785526107    -0.000072638342    12.000000000000
         H            1.624885154326     2.216764473893    -0.000212638342     1.007825032230
         H           -0.748886845674     2.201082473893     0.000157361658     1.007825032230
         H            1.524533154326    -2.128716526107     0.000157361658     1.007825032230
         H            4.113830154326     1.063260473893    -0.000072638342     1.007825032230
         H           -3.238137845674     2.075039473893     0.000144361658     1.007825032230
         H           -4.331662845674    -0.190841526107    -0.000002638342     1.007825032230
         H           -2.867187845674    -2.217178526107    -0.000131638342     1.007825032230

  Basis Set: AUG-CC-PVTZ
    Blend: AUG-CC-PVTZ
  Basis Set: (AUG-CC-PVTZ AUX)
    Blend: AUG-CC-PVTZ-JKFIT
	 Reference Energy          =    -474.2904122813467325 [Eh]
	 Singles Energy            =      -0.0000000000000000 [Eh]
	 Same-Spin Energy          =      -0.5137824478866051 [Eh]
	 Opposite-Spin Energy      =      -1.5583230013685003 [Eh]
	 Correlation Energy        =      -2.0721054492551056 [Eh]
	 Total Energy              =    -476.3625177306018372 [Eh]

	 ================> DF-SCS-MP2 Energies <==================
	-----------------------------------------------------------
	 SCS Same-Spin Scale       =       0.3333333333333333 [-]
	 SCS Opposite-Spin Scale   =       1.2000000000000000 [-]
	 SCS Same-Spin Energy      =      -0.1712608159622017 [Eh]
	 SCS Opposite-Spin Energy  =      -1.8699876016422003 [Eh]
	 SCS Correlation Energy    =      -2.0412484176044021 [Eh]
	 SCS Total Energy          =    -476.3316606989511115 [Eh]
	-----------------------------------------------------------

  Dipole Moment: [D]
     X:    -0.9834      Y:     1.9942      Z:     0.0001     Total:     2.2235

*** Psi4 exiting successfully. Buy a developer a beer!
