                               Psi4 1.3.2 release

  ==> Input File <==

--------------------------------------------------------------------------
#psi4
#
memory 32 gb

molecule  {
0 1
  O        3.1109268    -0.7387826     0.0000603
  N       -1.0742560    -1.1771330    -0.0000800
  C        0.9761220     0.0434820    -0.0000150
  C       -0.4881060     0.0430670    -0.0000040
  C        1.8814630     1.1555170    -0.0001020
  C       -1.2332690     1.2310260     0.0000830
  C        1.7670490    -1.0798270     0.0000780
  C       -2.6240280     1.1598410     0.0000810
  C        3.1400070     0.6275730    -0.0000460
  C       -3.2332050    -0.0939970     0.0000020
  C       -2.4150150    -1.2251180    -0.0000720
  H        1.6419750     2.2104320    -0.0002120
  H       -0.7317970     2.1947500     0.0001580
  H        1.5416230    -2.1350490     0.0001580
  H        4.1309200     1.0569280    -0.0000720
  H       -3.2210480     2.0687070     0.0001450
  H       -4.3145730    -0.1971740    -0.0000020
  H       -2.8500980    -2.2235110    -0.0001310
units angstrom
no_reorient  #important for SAPT in psi4, default
symmetry c1  #important for SAPT in psi4, default
}

set PROPERTIES_ORIGIN ["COM"]
properties('MP2/aug-cc-pvtz', properties = ['dipole'])
--------------------------------------------------------------------------

    Molecular point group: c1
  Charge       = 0
  Multiplicity = 1
  Basis Set: AUG-CC-PVTZ
    Blend: AUG-CC-PVTZ
  Basis Set: (AUG-CC-PVTZ AUX)
    Blend: AUG-CC-PVTZ-JKFIT

    Orbital Energies [Eh]
    ---------------------

    Doubly Occupied:

       1A    -20.627953     2A    -15.566711     3A    -11.294666
       4A    -11.293982     5A    -11.293239     6A    -11.280210
       7A    -11.264118     8A    -11.244494     9A    -11.242133
      10A    -11.241462    11A    -11.237021    12A     -1.450755
      13A     -1.259529    14A     -1.106884    15A     -1.089478
      16A     -1.033797    17A     -0.995685    18A     -0.875903
      19A     -0.863930    20A     -0.794530    21A     -0.778014
      22A     -0.743286    23A     -0.687342    24A     -0.663319
      25A     -0.646351    26A     -0.631078    27A     -0.603420
      28A     -0.586661    29A     -0.574871    30A     -0.571819
      31A     -0.549691    32A     -0.539817    33A     -0.521386
      34A     -0.425926    35A     -0.422885    36A     -0.384514
      37A     -0.348462    38A     -0.299973

  @DF-RHF Final Energy:  -474.32936500448636

   => Energetics <=

    Nuclear Repulsion Energy =            539.2125924531875398
    One-Electron Energy =               -1713.0133268796778339
    Two-Electron Energy =                 699.4713694220038178
    Total Energy =                       -474.3293650044863625
  Basis Set: (AUG-CC-PVTZ AUX)
    Blend: AUG-CC-PVTZ-RI
    Molecular point group: c1

    Geometry (in Angstrom), charge = 0, multiplicity = 1:

       Center              X                  Y                   Z               Mass
    ------------   -----------------  -----------------  -----------------  -----------------
         O            3.082415921652    -0.718354764484     0.000060654411    15.994914619570
         N           -1.102766878348    -1.156705164484    -0.000079645589    14.003074004430
         C            0.947611121652     0.063909835516    -0.000014645589    12.000000000000
         C           -0.516616878348     0.063494835516    -0.000003645589    12.000000000000
         C            1.852952121652     1.175944835516    -0.000101645589    12.000000000000
         C           -1.261779878348     1.251453835516     0.000083354411    12.000000000000
         C            1.738538121652    -1.059399164484     0.000078354411    12.000000000000
         C           -2.652538878348     1.180268835516     0.000081354411    12.000000000000
         C            3.111496121652     0.648000835516    -0.000045645589    12.000000000000
         C           -3.261715878348    -0.073569164484     0.000002354411    12.000000000000
         C           -2.443525878348    -1.204690164484    -0.000071645589    12.000000000000
         H            1.613464121652     2.230859835516    -0.000211645589     1.007825032230
         H           -0.760307878348     2.215177835516     0.000158354411     1.007825032230
         H            1.513112121652    -2.114621164484     0.000158354411     1.007825032230
         H            4.102409121652     1.077355835516    -0.000071645589     1.007825032230
         H           -3.249558878348     2.089134835516     0.000145354411     1.007825032230
         H           -4.343083878348    -0.176746164484    -0.000001645589     1.007825032230
         H           -2.878608878348    -2.203083164484    -0.000130645589     1.007825032230

  Basis Set: AUG-CC-PVTZ
    Blend: AUG-CC-PVTZ
  Basis Set: (AUG-CC-PVTZ AUX)
    Blend: AUG-CC-PVTZ-JKFIT
	 Reference Energy          =    -474.3293650044863625 [Eh]
	 Singles Energy            =      -0.0000000000000000 [Eh]
	 Same-Spin Energy          =      -0.5142826808600425 [Eh]
	 Opposite-Spin Energy      =      -1.5577733143264290 [Eh]
	 Correlation Energy        =      -2.0720559951864717 [Eh]
	 Total Energy              =    -476.4014209996728368 [Eh]

	 ================> DF-SCS-MP2 Energies <==================
	-----------------------------------------------------------
	 SCS Same-Spin Scale       =       0.3333333333333333 [-]
	 SCS Opposite-Spin Scale   =       1.2000000000000000 [-]
	 SCS Same-Spin Energy      =      -0.1714275602866808 [Eh]
	 SCS Opposite-Spin Energy  =      -1.8693279771917146 [Eh]
	 SCS Correlation Energy    =      -2.0407555374783954 [Eh]
	 SCS Total Energy          =    -476.3701205419647522 [Eh]
	-----------------------------------------------------------

  Dipole Moment: [D]
     X:    -1.4613      Y:     2.0387      Z:     0.0001     Total:     2.5083

*** Psi4 exiting successfully. Buy a developer a beer!
