                               Psi4 1.3.2 release

  ==> Input File <==

--------------------------------------------------------------------------
#psi4
#
memory 32 gb

molecule  {
0 1
  O        3.0870850    -0.7380670     0.0000600
  N       -1.0742560    -1.1771330    -0.0000800
  C        0.9761220     0.0434820    -0.0000150
  C       -0.4881060     0.0430670    -0.0000040
  C        1.9435426     1.2841785    -0.0001121
  C       -1.2332690     1.2310260     0.0000830
  C        1.7670490    -1.0798270     0.0000780
  C       -2.6240280     1.1598410     0.0000810
  C        3.1400070     0.6275730    -0.0000460
  C       -3.2332050    -0.0939970     0.0000020
  C       -2.4150150    -1.2251180    -0.0000720
  H        1.6419750     2.2104320    -0.0002120
  H       -0.7317970     2.1947500     0.0001580
  H        1.5416230    -2.1350490     0.0001580
  H        4.1309200     1.0569280    -0.0000720
  H       -3.2210480     2.0687070     0.0001450
  H       -4.3145730    -0.1971740    -0.0000020
  H       -2.8500980    -2.2235110    -0.0001310
units angstrom
no_reorient  #important for SAPT in psi4, default
symmetry c1  #important for SAPT in psi4, default
}

set PROPERTIES_ORIGIN ["COM"]
properties('MP2/aug-cc-pvtz', properties = ['dipole'])
--------------------------------------------------------------------------

    Molecular point group: c1
  Charge       = 0
  Multiplicity = 1
  Basis Set: AUG-CC-PVTZ
    Blend: AUG-CC-PVTZ
  Basis Set: (AUG-CC-PVTZ AUX)
    Blend: AUG-CC-PVTZ-JKFIT

    Orbital Energies [Eh]
    ---------------------

    Doubly Occupied:

       1A    -20.629318     2A    -15.564554     3A    -11.302146
       4A    -11.295650     5A    -11.291200     6A    -11.278885
       7A    -11.262761     8A    -11.248135     9A    -11.242730
      10A    -11.241339    11A    -11.240188    12A     -1.458354
      13A     -1.257480    14A     -1.091354    15A     -1.086451
      16A     -1.033803    17A     -0.998772    18A     -0.875663
      19A     -0.862719    20A     -0.813008    21A     -0.770889
      22A     -0.745358    23A     -0.686900    24A     -0.666042
      25A     -0.651928    26A     -0.635378    27A     -0.611028
      28A     -0.596836    29A     -0.582159    30A     -0.566598
      31A     -0.547852    32A     -0.527612    33A     -0.501957
      34A     -0.421059    35A     -0.415622    36A     -0.382553
      37A     -0.353241    38A     -0.301090

  @DF-RHF Final Energy:  -474.30914219635008

   => Energetics <=

    Nuclear Repulsion Energy =            537.3128464704864200
    One-Electron Energy =               -1709.1667601014023603
    Two-Electron Energy =                 697.5447714345658596
    Total Energy =                       -474.3091421963500807
  Basis Set: (AUG-CC-PVTZ AUX)
    Blend: AUG-CC-PVTZ-RI
    Molecular point group: c1

    Geometry (in Angstrom), charge = 0, multiplicity = 1:

       Center              X                  Y                   Z               Mass
    ------------   -----------------  -----------------  -----------------  -----------------
         O            3.056067394893    -0.728362048485     0.000061223050    15.994914619570
         N           -1.105273605107    -1.167428048485    -0.000078776950    14.003074004430
         C            0.945104394893     0.053186951515    -0.000013776950    12.000000000000
         C           -0.519123605107     0.052771951515    -0.000002776950    12.000000000000
         C            1.912524994893     1.293883451515    -0.000110876950    12.000000000000
         C           -1.264286605107     1.240730951515     0.000084223050    12.000000000000
         C            1.736031394893    -1.070122048485     0.000079223050    12.000000000000
         C           -2.655045605107     1.169545951515     0.000082223050    12.000000000000
         C            3.108989394893     0.637277951515    -0.000044776950    12.000000000000
         C           -3.264222605107    -0.084292048485     0.000003223050    12.000000000000
         C           -2.446032605107    -1.215413048485    -0.000070776950    12.000000000000
         H            1.610957394893     2.220136951515    -0.000210776950     1.007825032230
         H           -0.762814605107     2.204454951515     0.000159223050     1.007825032230
         H            1.510605394893    -2.125344048485     0.000159223050     1.007825032230
         H            4.099902394893     1.066632951515    -0.000070776950     1.007825032230
         H           -3.252065605107     2.078411951515     0.000146223050     1.007825032230
         H           -4.345590605107    -0.187469048485    -0.000000776950     1.007825032230
         H           -2.881115605107    -2.213806048485    -0.000129776950     1.007825032230

  Basis Set: AUG-CC-PVTZ
    Blend: AUG-CC-PVTZ
  Basis Set: (AUG-CC-PVTZ AUX)
    Blend: AUG-CC-PVTZ-JKFIT
	 Reference Energy          =    -474.3091421963500807 [Eh]
	 Singles Energy            =      -0.0000000000000000 [Eh]
	 Same-Spin Energy          =      -0.5125879305449939 [Eh]
	 Opposite-Spin Energy      =      -1.5568266796846688 [Eh]
	 Correlation Energy        =      -2.0694146102296624 [Eh]
	 Total Energy              =    -476.3785568065797520 [Eh]

	 ================> DF-SCS-MP2 Energies <==================
	-----------------------------------------------------------
	 SCS Same-Spin Scale       =       0.3333333333333333 [-]
	 SCS Opposite-Spin Scale   =       1.2000000000000000 [-]
	 SCS Same-Spin Energy      =      -0.1708626435149979 [Eh]
	 SCS Opposite-Spin Energy  =      -1.8681920156216025 [Eh]
	 SCS Correlation Energy    =      -2.0390546591366006 [Eh]
	 SCS Total Energy          =    -476.3481968554866626 [Eh]
	-----------------------------------------------------------

  Dipole Moment: [D]
     X:    -1.3111      Y:     2.0021      Z:     0.0001     Total:     2.3932

*** Psi4 exiting successfully. Buy a developer a beer!
