                               Psi4 1.3.2 release

  ==> Input File <==

--------------------------------------------------------------------------
#psi4
#
memory 32 gb

molecule  {
0 1
  O        3.1155774    -0.8779205     0.0000711
  N       -1.0742560    -1.1771330    -0.0000800
  C        0.9761220     0.0434820    -0.0000150
  C       -0.4881060     0.0430670    -0.0000040
  C        1.8814630     1.1555170    -0.0001020
  C       -1.2332690     1.2310260     0.0000830
  C        1.7670490    -1.0798270     0.0000780
  C       -2.6240280     1.1598410     0.0000810
  C        3.1400070     0.6275730    -0.0000460
  C       -3.2332050    -0.0939970     0.0000020
  C       -2.4150150    -1.2251180    -0.0000720
  H        1.6419750     2.2104320    -0.0002120
  H       -0.7317970     2.1947500     0.0001580
  H        1.5416230    -2.1350490     0.0001580
  H        4.1309200     1.0569280    -0.0000720
  H       -3.2210480     2.0687070     0.0001450
  H       -4.3145730    -0.1971740    -0.0000020
  H       -2.8500980    -2.2235110    -0.0001310
units angstrom
no_reorient  #important for SAPT in psi4, default
symmetry c1  #important for SAPT in psi4, default
}

set PROPERTIES_ORIGIN ["COM"]
properties('MP2/aug-cc-pvtz', properties = ['dipole'])
--------------------------------------------------------------------------

    Molecular point group: c1
  Charge       = 0
  Multiplicity = 1
  Basis Set: AUG-CC-PVTZ
    Blend: AUG-CC-PVTZ
  Basis Set: (AUG-CC-PVTZ AUX)
    Blend: AUG-CC-PVTZ-JKFIT

    Orbital Energies [Eh]
    ---------------------

    Doubly Occupied:

       1A    -20.627738     2A    -15.565081     3A    -11.302468
       4A    -11.300365     5A    -11.293976     6A    -11.279845
       7A    -11.264027     8A    -11.253403     9A    -11.243805
      10A    -11.240644    11A    -11.239421    12A     -1.420223
      13A     -1.258779    14A     -1.113231    15A     -1.089010
      16A     -1.037585    17A     -0.983426    18A     -0.872046
      19A     -0.861796    20A     -0.793509    21A     -0.780540
      22A     -0.739319    23A     -0.683370    24A     -0.664080
      25A     -0.645040    26A     -0.614640    27A     -0.596257
      28A     -0.584919    29A     -0.573439    30A     -0.571861
      31A     -0.548553    32A     -0.542380    33A     -0.520803
      34A     -0.430858    35A     -0.421680    36A     -0.385726
      37A     -0.357479    38A     -0.295256

  @DF-RHF Final Energy:  -474.31027184963443

   => Energetics <=

    Nuclear Repulsion Energy =            536.7075836272039169
    One-Electron Energy =               -1708.0425568766622746
    Two-Electron Energy =                 697.0247013998240391
    Total Energy =                       -474.3102718496344323
  Basis Set: (AUG-CC-PVTZ AUX)
    Blend: AUG-CC-PVTZ-RI
    Molecular point group: c1

    Geometry (in Angstrom), charge = 0, multiplicity = 1:

       Center              X                  Y                   Z               Mass
    ------------   -----------------  -----------------  -----------------  -----------------
         O            3.086553701710    -0.842149979713     0.000070263499    15.994914619570
         N           -1.103279698290    -1.141362479713    -0.000080836501    14.003074004430
         C            0.947098301710     0.079252520287    -0.000015836501    12.000000000000
         C           -0.517129698290     0.078837520287    -0.000004836501    12.000000000000
         C            1.852439301710     1.191287520287    -0.000102836501    12.000000000000
         C           -1.262292698290     1.266796520287     0.000082163499    12.000000000000
         C            1.738025301710    -1.044056479713     0.000077163499    12.000000000000
         C           -2.653051698290     1.195611520287     0.000080163499    12.000000000000
         C            3.110983301710     0.663343520287    -0.000046836501    12.000000000000
         C           -3.262228698290    -0.058226479713     0.000001163499    12.000000000000
         C           -2.444038698290    -1.189347479713    -0.000072836501    12.000000000000
         H            1.612951301710     2.246202520287    -0.000212836501     1.007825032230
         H           -0.760820698290     2.230520520287     0.000157163499     1.007825032230
         H            1.512599301710    -2.099278479713     0.000157163499     1.007825032230
         H            4.101896301710     1.092698520287    -0.000072836501     1.007825032230
         H           -3.250071698290     2.104477520287     0.000144163499     1.007825032230
         H           -4.343596698290    -0.161403479713    -0.000002836501     1.007825032230
         H           -2.879121698290    -2.187740479713    -0.000131836501     1.007825032230

  Basis Set: AUG-CC-PVTZ
    Blend: AUG-CC-PVTZ
  Basis Set: (AUG-CC-PVTZ AUX)
    Blend: AUG-CC-PVTZ-JKFIT
	 Reference Energy          =    -474.3102718496344323 [Eh]
	 Singles Energy            =      -0.0000000000000000 [Eh]
	 Same-Spin Energy          =      -0.5146992394792622 [Eh]
	 Opposite-Spin Energy      =      -1.5617048270535578 [Eh]
	 Correlation Energy        =      -2.0764040665328203 [Eh]
	 Total Energy              =    -476.3866759161672348 [Eh]

	 ================> DF-SCS-MP2 Energies <==================
	-----------------------------------------------------------
	 SCS Same-Spin Scale       =       0.3333333333333333 [-]
	 SCS Opposite-Spin Scale   =       1.2000000000000000 [-]
	 SCS Same-Spin Energy      =      -0.1715664131597541 [Eh]
	 SCS Opposite-Spin Energy  =      -1.8740457924642693 [Eh]
	 SCS Correlation Energy    =      -2.0456122056240233 [Eh]
	 SCS Total Energy          =    -476.3558840552584570 [Eh]
	-----------------------------------------------------------

  Dipole Moment: [D]
     X:    -1.4779      Y:     2.3591      Z:     0.0001     Total:     2.7838

*** Psi4 exiting successfully. Buy a developer a beer!
