                               Psi4 1.3.2 release

  ==> Input File <==

--------------------------------------------------------------------------
#psi4
#
memory 32 gb

molecule  {
0 1
  O        2.9919517    -0.7310487     0.0000583
  N       -1.0742560    -1.1771330    -0.0000800
  C        0.9761220     0.0434820    -0.0000150
  C       -0.4881060     0.0430670    -0.0000040
  C        1.8814630     1.1555170    -0.0001020
  C       -1.2332690     1.2310260     0.0000830
  C        1.7670490    -1.0798270     0.0000780
  C       -2.6240280     1.1598410     0.0000810
  C        3.1400070     0.6275730    -0.0000460
  C       -3.2332050    -0.0939970     0.0000020
  C       -2.4150150    -1.2251180    -0.0000720
  H        1.6419750     2.2104320    -0.0002120
  H       -0.7317970     2.1947500     0.0001580
  H        1.5416230    -2.1350490     0.0001580
  H        4.1309200     1.0569280    -0.0000720
  H       -3.2210480     2.0687070     0.0001450
  H       -4.3145730    -0.1971740    -0.0000020
  H       -2.8500980    -2.2235110    -0.0001310
units angstrom
no_reorient  #important for SAPT in psi4, default
symmetry c1  #important for SAPT in psi4, default
}

set PROPERTIES_ORIGIN ["COM"]
properties('MP2/aug-cc-pvtz', properties = ['dipole'])
--------------------------------------------------------------------------

    Molecular point group: c1
  Charge       = 0
  Multiplicity = 1
  Basis Set: AUG-CC-PVTZ
    Blend: AUG-CC-PVTZ
  Basis Set: (AUG-CC-PVTZ AUX)
    Blend: AUG-CC-PVTZ-JKFIT

    Orbital Energies [Eh]
    ---------------------

    Doubly Occupied:

       1A    -20.631392     2A    -15.561420     3A    -11.290981
       4A    -11.290923     5A    -11.288301     6A    -11.276515
       7A    -11.260238     8A    -11.238819     9A    -11.238806
      10A    -11.236865    11A    -11.229050    12A     -1.496274
      13A     -1.254823    14A     -1.100782    15A     -1.085081
      16A     -1.039283    17A     -1.006027    18A     -0.874546
      19A     -0.860938    20A     -0.803172    21A     -0.776367
      22A     -0.752224    23A     -0.686932    24A     -0.659794
      25A     -0.657040    26A     -0.648015    27A     -0.620298
      28A     -0.581589    29A     -0.577992    30A     -0.568913
      31A     -0.545680    32A     -0.528236    33A     -0.516804
      34A     -0.419905    35A     -0.418250    36A     -0.381199
      37A     -0.350488    38A     -0.294272

  @DF-RHF Final Energy:  -474.32751309076116

   => Energetics <=

    Nuclear Repulsion Energy =            542.6992487079603507
    One-Electron Energy =               -1719.9570538514130931
    Two-Electron Energy =                 702.9302920526915841
    Total Energy =                       -474.3275130907611583
  Basis Set: (AUG-CC-PVTZ AUX)
    Blend: AUG-CC-PVTZ-RI
    Molecular point group: c1

    Geometry (in Angstrom), charge = 0, multiplicity = 1:

       Center              X                  Y                   Z               Mass
    ------------   -----------------  -----------------  -----------------  -----------------
         O            2.976560161924    -0.711473678776     0.000058874950    15.994914619570
         N           -1.089647538076    -1.157557978776    -0.000079425050    14.003074004430
         C            0.960730461924     0.063057021224    -0.000014425050    12.000000000000
         C           -0.503497538076     0.062642021224    -0.000003425050    12.000000000000
         C            1.866071461924     1.175092021224    -0.000101425050    12.000000000000
         C           -1.248660538076     1.250601021224     0.000083574950    12.000000000000
         C            1.751657461924    -1.060251978776     0.000078574950    12.000000000000
         C           -2.639419538076     1.179416021224     0.000081574950    12.000000000000
         C            3.124615461924     0.647148021224    -0.000045425050    12.000000000000
         C           -3.248596538076    -0.074421978776     0.000002574950    12.000000000000
         C           -2.430406538076    -1.205542978776    -0.000071425050    12.000000000000
         H            1.626583461924     2.230007021224    -0.000211425050     1.007825032230
         H           -0.747188538076     2.214325021224     0.000158574950     1.007825032230
         H            1.526231461924    -2.115473978776     0.000158574950     1.007825032230
         H            4.115528461924     1.076503021224    -0.000071425050     1.007825032230
         H           -3.236439538076     2.088282021224     0.000145574950     1.007825032230
         H           -4.329964538076    -0.177598978776    -0.000001425050     1.007825032230
         H           -2.865489538076    -2.203935978776    -0.000130425050     1.007825032230

  Basis Set: AUG-CC-PVTZ
    Blend: AUG-CC-PVTZ
  Basis Set: (AUG-CC-PVTZ AUX)
    Blend: AUG-CC-PVTZ-JKFIT
	 Reference Energy          =    -474.3275130907611583 [Eh]
	 Singles Energy            =      -0.0000000000000000 [Eh]
	 Same-Spin Energy          =      -0.5139759387623597 [Eh]
	 Opposite-Spin Energy      =      -1.5538861439270490 [Eh]
	 Correlation Energy        =      -2.0678620826894090 [Eh]
	 Total Energy              =    -476.3953751734505886 [Eh]

	 ================> DF-SCS-MP2 Energies <==================
	-----------------------------------------------------------
	 SCS Same-Spin Scale       =       0.3333333333333333 [-]
	 SCS Opposite-Spin Scale   =       1.2000000000000000 [-]
	 SCS Same-Spin Energy      =      -0.1713253129207866 [Eh]
	 SCS Opposite-Spin Energy  =      -1.8646633727124589 [Eh]
	 SCS Correlation Energy    =      -2.0359886856332454 [Eh]
	 SCS Total Energy          =    -476.3635017763944006 [Eh]
	-----------------------------------------------------------

  Dipole Moment: [D]
     X:    -0.8477      Y:     1.9276      Z:     0.0001     Total:     2.1058

*** Psi4 exiting successfully. Buy a developer a beer!
