                               Psi4 1.3.2 release

  ==> Input File <==

--------------------------------------------------------------------------
#psi4
#
memory 32 gb

molecule  {
0 1
  O        3.0870850    -0.7380670     0.0000600
  N       -1.0742560    -1.1771330    -0.0000800
  C        0.9761220     0.0434820    -0.0000150
  C       -0.4881060     0.0430670    -0.0000040
  C        1.7602641     1.2440591    -0.0001095
  C       -1.2332690     1.2310260     0.0000830
  C        1.7670490    -1.0798270     0.0000780
  C       -2.6240280     1.1598410     0.0000810
  C        3.1400070     0.6275730    -0.0000460
  C       -3.2332050    -0.0939970     0.0000020
  C       -2.4150150    -1.2251180    -0.0000720
  H        1.6419750     2.2104320    -0.0002120
  H       -0.7317970     2.1947500     0.0001580
  H        1.5416230    -2.1350490     0.0001580
  H        4.1309200     1.0569280    -0.0000720
  H       -3.2210480     2.0687070     0.0001450
  H       -4.3145730    -0.1971740    -0.0000020
  H       -2.8500980    -2.2235110    -0.0001310
units angstrom
no_reorient  #important for SAPT in psi4, default
symmetry c1  #important for SAPT in psi4, default
}

set PROPERTIES_ORIGIN ["COM"]
properties('MP2/aug-cc-pvtz', properties = ['dipole'])
--------------------------------------------------------------------------

    Molecular point group: c1
  Charge       = 0
  Multiplicity = 1
  Basis Set: AUG-CC-PVTZ
    Blend: AUG-CC-PVTZ
  Basis Set: (AUG-CC-PVTZ AUX)
    Blend: AUG-CC-PVTZ-JKFIT

    Orbital Energies [Eh]
    ---------------------

    Doubly Occupied:

       1A    -20.641493     2A    -15.564896     3A    -11.315395
       4A    -11.292103     5A    -11.289418     6A    -11.278627
       7A    -11.262952     8A    -11.247374     9A    -11.245286
      10A    -11.243114    11A    -11.240832    12A     -1.462304
      13A     -1.257985    14A     -1.102864    15A     -1.088188
      16A     -1.022768    17A     -0.993330    18A     -0.874391
      19A     -0.864958    20A     -0.816748    21A     -0.772712
      22A     -0.746671    23A     -0.684585    24A     -0.666055
      25A     -0.645128    26A     -0.635238    27A     -0.621374
      28A     -0.596539    29A     -0.583512    30A     -0.566798
      31A     -0.548578    32A     -0.530608    33A     -0.511612
      34A     -0.425160    35A     -0.421225    36A     -0.382710
      37A     -0.334694    38A     -0.293584

  @DF-RHF Final Energy:  -474.29313409665565

   => Energetics <=

    Nuclear Repulsion Energy =            538.6028875676645384
    One-Electron Energy =               -1711.6484166348125200
    Two-Electron Energy =                 698.7523949704923325
    Total Energy =                       -474.2931340966556490
  Basis Set: (AUG-CC-PVTZ AUX)
    Blend: AUG-CC-PVTZ-RI
    Molecular point group: c1

    Geometry (in Angstrom), charge = 0, multiplicity = 1:

       Center              X                  Y                   Z               Mass
    ------------   -----------------  -----------------  -----------------  -----------------
         O            3.071229753346    -0.725043030032     0.000061007956    15.994914619570
         N           -1.090111246654    -1.164109030032    -0.000078992044    14.003074004430
         C            0.960266753346     0.056505969968    -0.000013992044    12.000000000000
         C           -0.503961246654     0.056090969968    -0.000002992044    12.000000000000
         C            1.744408853346     1.257083069968    -0.000108492044    12.000000000000
         C           -1.249124246654     1.244049969968     0.000084007956    12.000000000000
         C            1.751193753346    -1.066803030032     0.000079007956    12.000000000000
         C           -2.639883246654     1.172864969968     0.000082007956    12.000000000000
         C            3.124151753346     0.640596969968    -0.000044992044    12.000000000000
         C           -3.249060246654    -0.080973030032     0.000003007956    12.000000000000
         C           -2.430870246654    -1.212094030032    -0.000070992044    12.000000000000
         H            1.626119753346     2.223455969968    -0.000210992044     1.007825032230
         H           -0.747652246654     2.207773969968     0.000159007956     1.007825032230
         H            1.525767753346    -2.122025030032     0.000159007956     1.007825032230
         H            4.115064753346     1.069951969968    -0.000070992044     1.007825032230
         H           -3.236903246654     2.081730969968     0.000146007956     1.007825032230
         H           -4.330428246654    -0.184150030032    -0.000000992044     1.007825032230
         H           -2.865953246654    -2.210487030032    -0.000129992044     1.007825032230

  Basis Set: AUG-CC-PVTZ
    Blend: AUG-CC-PVTZ
  Basis Set: (AUG-CC-PVTZ AUX)
    Blend: AUG-CC-PVTZ-JKFIT
	 Reference Energy          =    -474.2931340966556490 [Eh]
	 Singles Energy            =      -0.0000000000000000 [Eh]
	 Same-Spin Energy          =      -0.5171491196342588 [Eh]
	 Opposite-Spin Energy      =      -1.5630220653702303 [Eh]
	 Correlation Energy        =      -2.0801711850044891 [Eh]
	 Total Energy              =    -476.3733052816601230 [Eh]

	 ================> DF-SCS-MP2 Energies <==================
	-----------------------------------------------------------
	 SCS Same-Spin Scale       =       0.3333333333333333 [-]
	 SCS Opposite-Spin Scale   =       1.2000000000000000 [-]
	 SCS Same-Spin Energy      =      -0.1723830398780863 [Eh]
	 SCS Opposite-Spin Energy  =      -1.8756264784442762 [Eh]
	 SCS Correlation Energy    =      -2.0480095183223623 [Eh]
	 SCS Total Energy          =    -476.3411436149780229 [Eh]
	-----------------------------------------------------------

  Dipole Moment: [D]
     X:    -1.2794      Y:     1.9338      Z:     0.0001     Total:     2.3187

*** Psi4 exiting successfully. Buy a developer a beer!
