                               Psi4 1.4a3.dev225

  ==> Input File <==

--------------------------------------------------------------------------
#psi4
#
memory 32 gb

molecule  {
0 1
  O        3.0870850    -0.7380670     0.0000600
  N       -1.0742560    -1.1771330    -0.0000800
  C        0.9761220     0.0434820    -0.0000150
  C       -0.4881060     0.0430670    -0.0000040
  C        1.8814630     1.1555170    -0.0001020
  C       -1.2332690     1.2310260     0.0000830
  C        1.7670490    -1.0798270     0.0000780
  C       -2.6240280     1.1598410     0.0000810
  C        3.1400070     0.6275730    -0.0000460
  C       -3.2332050    -0.0939970     0.0000020
  C       -2.4150150    -1.2251180    -0.0000720
  H        1.6419750     2.2104320    -0.0002120
  H       -0.7317970     2.1947500     0.0001580
  H        1.5311772    -2.1839457     0.0001617
  H        4.1309200     1.0569280    -0.0000720
  H       -3.2210480     2.0687070     0.0001450
  H       -4.3145730    -0.1971740    -0.0000020
  H       -2.8500980    -2.2235110    -0.0001310
units angstrom
no_reorient  #important for SAPT in psi4, default
symmetry c1  #important for SAPT in psi4, default
}

set PROPERTIES_ORIGIN ["COM"]
properties('MP2/aug-cc-pvtz', properties = ['dipole'])
--------------------------------------------------------------------------

    Molecular point group: c1
  Charge       = 0
  Multiplicity = 1
  Basis Set: AUG-CC-PVTZ
    Blend: AUG-CC-PVTZ
  Basis Set: (AUG-CC-PVTZ AUX)
    Blend: AUG-CC-PVTZ-JKFIT

    Orbital Energies [Eh]
    ---------------------

    Doubly Occupied:

       1A    -20.628957     2A    -15.565536     3A    -11.298944
       4A    -11.293383     5A    -11.292249     6A    -11.279407
       7A    -11.263304     8A    -11.243335     9A    -11.241037
      10A    -11.239333    11A    -11.237447    12A     -1.459095
      13A     -1.258512    14A     -1.105624    15A     -1.088540
      16A     -1.033761    17A     -0.996446    18A     -0.875026
      19A     -0.863345    20A     -0.796146    21A     -0.773640
      22A     -0.741879    23A     -0.686799    24A     -0.662332
      25A     -0.646054    26A     -0.635865    27A     -0.602493
      28A     -0.584800    29A     -0.574009    30A     -0.571779
      31A     -0.548851    32A     -0.536543    33A     -0.520469
      34A     -0.424741    35A     -0.421744    36A     -0.383769
      37A     -0.348769    38A     -0.298974

  @DF-RHF Final Energy:  -474.32847765024559

   => Energetics <=

    Nuclear Repulsion Energy =            539.6272150502669547
    One-Electron Energy =               -1713.8655111519021830
    Two-Electron Energy =                 699.9098184513895831
    Total Energy =                       -474.3284776502455315
  Basis Set: (AUG-CC-PVTZ AUX)
    Blend: AUG-CC-PVTZ-RI
    Molecular point group: c1

    Geometry (in Angstrom), charge = 0, multiplicity = 1:

       Center              X                  Y                   Z               Mass
    ------------   -----------------  -----------------  -----------------  -----------------
         O            3.061275725425    -0.717378339689     0.000060361784    15.994914619570
         N           -1.100065274575    -1.156444339689    -0.000079638216    14.003074004430
         C            0.950312725425     0.064170660311    -0.000014638216    12.000000000000
         C           -0.513915274575     0.063755660311    -0.000003638216    12.000000000000
         C            1.855653725425     1.176205660311    -0.000101638216    12.000000000000
         C           -1.259078274575     1.251714660311     0.000083361784    12.000000000000
         C            1.741239725425    -1.059138339689     0.000078361784    12.000000000000
         C           -2.649837274575     1.180529660311     0.000081361784    12.000000000000
         C            3.114197725425     0.648261660311    -0.000045638216    12.000000000000
         C           -3.259014274575    -0.073308339689     0.000002361784    12.000000000000
         C           -2.440824274575    -1.204429339689    -0.000071638216    12.000000000000
         H            1.616165725425     2.231120660311    -0.000211638216     1.007825032230
         H           -0.757606274575     2.215438660311     0.000158361784     1.007825032230
         H            1.505367925425    -2.163257039689     0.000162061784     1.007825032230
         H            4.105110725425     1.077616660311    -0.000071638216     1.007825032230
         H           -3.246857274575     2.089395660311     0.000145361784     1.007825032230
         H           -4.340382274575    -0.176485339689    -0.000001638216     1.007825032230
         H           -2.875907274575    -2.202822339689    -0.000130638216     1.007825032230

  Basis Set: AUG-CC-PVTZ
    Blend: AUG-CC-PVTZ
  Basis Set: (AUG-CC-PVTZ AUX)
    Blend: AUG-CC-PVTZ-JKFIT
	 Reference Energy          =    -474.3284776502455884 [Eh]
	 Singles Energy            =      -0.0000000000000000 [Eh]
	 Same-Spin Energy          =      -0.5143575280388465 [Eh]
	 Opposite-Spin Energy      =      -1.5574489260224293 [Eh]
	 Correlation Energy        =      -2.0718064540612757 [Eh]
	 Total Energy              =    -476.4002841043068770 [Eh]

	 ================> DF-SCS-MP2 Energies <==================
	-----------------------------------------------------------
	 SCS Same-Spin Scale       =       0.3333333333333333 [-]
	 SCS Opposite-Spin Scale   =       1.2000000000000000 [-]
	 SCS Same-Spin Energy      =      -0.1714525093462821 [Eh]
	 SCS Opposite-Spin Energy  =      -1.8689387112269151 [Eh]
	 SCS Correlation Energy    =      -2.0403912205731971 [Eh]
	 SCS Total Energy          =    -476.3688688708188010 [Eh]
	-----------------------------------------------------------

  Dipole Moment: [D]
     X:    -1.3423      Y:     2.0062      Z:     0.0001     Total:     2.4139

*** Psi4 exiting successfully. Buy a developer a beer!
