                               Psi4 1.3.2 release

  ==> Input File <==

--------------------------------------------------------------------------
#psi4
#
memory 32 gb

molecule  {
0 1
  O        3.0870850    -0.7380670     0.0000600
  N       -1.0742560    -1.1771330    -0.0000800
  C        0.9761220     0.0434820    -0.0000150
  C       -0.5881060     0.0430387    -0.0000032
  C        1.8814630     1.1555170    -0.0001020
  C       -1.2332690     1.2310260     0.0000830
  C        1.7670490    -1.0798270     0.0000780
  C       -2.6240280     1.1598410     0.0000810
  C        3.1400070     0.6275730    -0.0000460
  C       -3.2332050    -0.0939970     0.0000020
  C       -2.4150150    -1.2251180    -0.0000720
  H        1.6419750     2.2104320    -0.0002120
  H       -0.7317970     2.1947500     0.0001580
  H        1.5416230    -2.1350490     0.0001580
  H        4.1309200     1.0569280    -0.0000720
  H       -3.2210480     2.0687070     0.0001450
  H       -4.3145730    -0.1971740    -0.0000020
  H       -2.8500980    -2.2235110    -0.0001310
units angstrom
no_reorient  #important for SAPT in psi4, default
symmetry c1  #important for SAPT in psi4, default
}

set PROPERTIES_ORIGIN ["COM"]
properties('MP2/aug-cc-pvtz', properties = ['dipole'])
--------------------------------------------------------------------------

    Molecular point group: c1
  Charge       = 0
  Multiplicity = 1
  Basis Set: AUG-CC-PVTZ
    Blend: AUG-CC-PVTZ
  Basis Set: (AUG-CC-PVTZ AUX)
    Blend: AUG-CC-PVTZ-JKFIT

    Orbital Energies [Eh]
    ---------------------

    Doubly Occupied:

       1A    -20.622923     2A    -15.567829     3A    -11.289977
       4A    -11.288745     5A    -11.285653     6A    -11.283259
       7A    -11.267158     8A    -11.243919     9A    -11.240806
      10A    -11.237927    11A    -11.232539    12A     -1.453079
      13A     -1.277288    14A     -1.099579    15A     -1.093966
      16A     -1.036419    17A     -0.994575    18A     -0.873826
      19A     -0.865094    20A     -0.792148    21A     -0.772685
      22A     -0.741109    23A     -0.689800    24A     -0.670021
      25A     -0.646944    26A     -0.630051    27A     -0.603293
      28A     -0.585393    29A     -0.573142    30A     -0.568022
      31A     -0.559659    32A     -0.533197    33A     -0.507521
      34A     -0.432273    35A     -0.415774    36A     -0.389215
      37A     -0.350750    38A     -0.302188

  @DF-RHF Final Energy:  -474.32235219277800

   => Energetics <=

    Nuclear Repulsion Energy =            540.1164205041517334
    One-Electron Energy =               -1714.8420558494844954
    Two-Electron Energy =                 700.4032831525546499
    Total Energy =                       -474.3223521927779984
  Basis Set: (AUG-CC-PVTZ AUX)
    Blend: AUG-CC-PVTZ-RI
    Molecular point group: c1

    Geometry (in Angstrom), charge = 0, multiplicity = 1:

       Center              X                  Y                   Z               Mass
    ------------   -----------------  -----------------  -----------------  -----------------
         O            3.069475999792    -0.717715732214     0.000060321309    15.994914619570
         N           -1.091865000208    -1.156781732214    -0.000079678691    14.003074004430
         C            0.958512999792     0.063833267786    -0.000014678691    12.000000000000
         C           -0.605715000208     0.063389967786    -0.000002878691    12.000000000000
         C            1.863853999792     1.175868267786    -0.000101678691    12.000000000000
         C           -1.250878000208     1.251377267786     0.000083321309    12.000000000000
         C            1.749439999792    -1.059475732214     0.000078321309    12.000000000000
         C           -2.641637000208     1.180192267786     0.000081321309    12.000000000000
         C            3.122397999792     0.647924267786    -0.000045678691    12.000000000000
         C           -3.250814000208    -0.073645732214     0.000002321309    12.000000000000
         C           -2.432624000208    -1.204766732214    -0.000071678691    12.000000000000
         H            1.624365999792     2.230783267786    -0.000211678691     1.007825032230
         H           -0.749406000208     2.215101267786     0.000158321309     1.007825032230
         H            1.524013999792    -2.114697732214     0.000158321309     1.007825032230
         H            4.113310999792     1.077279267786    -0.000071678691     1.007825032230
         H           -3.238657000208     2.089058267786     0.000145321309     1.007825032230
         H           -4.332182000208    -0.176822732214    -0.000001678691     1.007825032230
         H           -2.867707000208    -2.203159732214    -0.000130678691     1.007825032230

  Basis Set: AUG-CC-PVTZ
    Blend: AUG-CC-PVTZ
  Basis Set: (AUG-CC-PVTZ AUX)
    Blend: AUG-CC-PVTZ-JKFIT
	 Reference Energy          =    -474.3223521927779984 [Eh]
	 Singles Energy            =      -0.0000000000000000 [Eh]
	 Same-Spin Energy          =      -0.5132667162949944 [Eh]
	 Opposite-Spin Energy      =      -1.5555084090243674 [Eh]
	 Correlation Energy        =      -2.0687751253193616 [Eh]
	 Total Energy              =    -476.3911273180973467 [Eh]

	 ================> DF-SCS-MP2 Energies <==================
	-----------------------------------------------------------
	 SCS Same-Spin Scale       =       0.3333333333333333 [-]
	 SCS Opposite-Spin Scale   =       1.2000000000000000 [-]
	 SCS Same-Spin Energy      =      -0.1710889054316648 [Eh]
	 SCS Opposite-Spin Energy  =      -1.8666100908292407 [Eh]
	 SCS Correlation Energy    =      -2.0376989962609056 [Eh]
	 SCS Total Energy          =    -476.3600511890389271 [Eh]
	-----------------------------------------------------------

  Dipole Moment: [D]
     X:    -1.8479      Y:     2.0233      Z:     0.0001     Total:     2.7402

*** Psi4 exiting successfully. Buy a developer a beer!
