                               Psi4 1.3.2 release

  ==> Input File <==

--------------------------------------------------------------------------
#psi4
#
memory 32 gb

molecule  {
0 1
  O        3.0870850    -0.7380670     0.0000600
  N       -1.0742560    -1.1771330    -0.0000800
  C        0.9761220     0.0434820    -0.0000150
  C       -0.5089522     0.0302430    -0.0000051
  C        1.8814630     1.1555170    -0.0001020
  C       -1.2332690     1.2310260     0.0000830
  C        1.7670490    -1.0798270     0.0000780
  C       -2.6240280     1.1598410     0.0000810
  C        3.1400070     0.6275730    -0.0000460
  C       -3.2332050    -0.0939970     0.0000020
  C       -2.4150150    -1.2251180    -0.0000720
  H        1.6419750     2.2104320    -0.0002120
  H       -0.7317970     2.1947500     0.0001580
  H        1.5416230    -2.1350490     0.0001580
  H        4.1309200     1.0569280    -0.0000720
  H       -3.2210480     2.0687070     0.0001450
  H       -4.3145730    -0.1971740    -0.0000020
  H       -2.8500980    -2.2235110    -0.0001310
units angstrom
no_reorient  #important for SAPT in psi4, default
symmetry c1  #important for SAPT in psi4, default
}

set PROPERTIES_ORIGIN ["COM"]
properties('MP2/aug-cc-pvtz', properties = ['dipole'])
--------------------------------------------------------------------------

    Molecular point group: c1
  Charge       = 0
  Multiplicity = 1
  Basis Set: AUG-CC-PVTZ
    Blend: AUG-CC-PVTZ
  Basis Set: (AUG-CC-PVTZ AUX)
    Blend: AUG-CC-PVTZ-JKFIT

    Orbital Energies [Eh]
    ---------------------

    Doubly Occupied:

       1A    -20.627497     2A    -15.565259     3A    -11.292564
       4A    -11.292103     5A    -11.292003     6A    -11.280150
       7A    -11.263691     8A    -11.243652     9A    -11.241580
      10A    -11.239028    11A    -11.236668    12A     -1.457734
      13A     -1.265061    14A     -1.102893    15A     -1.090693
      16A     -1.033725    17A     -0.997545    18A     -0.872918
      19A     -0.865669    20A     -0.795797    21A     -0.776383
      22A     -0.744014    23A     -0.688402    24A     -0.663915
      25A     -0.646256    26A     -0.634573    27A     -0.606071
      28A     -0.584898    29A     -0.575162    30A     -0.571152
      31A     -0.551796    32A     -0.536975    33A     -0.519784
      34A     -0.423708    35A     -0.422734    36A     -0.385514
      37A     -0.348311    38A     -0.299943

  @DF-RHF Final Energy:  -474.33156940675923

   => Energetics <=

    Nuclear Repulsion Energy =            539.9560937300927890
    One-Electron Energy =               -1714.5036835779148987
    Two-Electron Energy =                 700.2160204410628239
    Total Energy =                       -474.3315694067592858
  Basis Set: (AUG-CC-PVTZ AUX)
    Blend: AUG-CC-PVTZ-RI
    Molecular point group: c1

    Geometry (in Angstrom), charge = 0, multiplicity = 1:

       Center              X                  Y                   Z               Mass
    ------------   -----------------  -----------------  -----------------  -----------------
         O            3.062927723325    -0.716657162932     0.000060478493    15.994914619570
         N           -1.098413276675    -1.155723162932    -0.000079521507    14.003074004430
         C            0.951964723325     0.064891837068    -0.000014521507    12.000000000000
         C           -0.533109476675     0.051652837068    -0.000004621507    12.000000000000
         C            1.857305723325     1.176926837068    -0.000101521507    12.000000000000
         C           -1.257426276675     1.252435837068     0.000083478493    12.000000000000
         C            1.742891723325    -1.058417162932     0.000078478493    12.000000000000
         C           -2.648185276675     1.181250837068     0.000081478493    12.000000000000
         C            3.115849723325     0.648982837068    -0.000045521507    12.000000000000
         C           -3.257362276675    -0.072587162932     0.000002478493    12.000000000000
         C           -2.439172276675    -1.203708162932    -0.000071521507    12.000000000000
         H            1.617817723325     2.231841837068    -0.000211521507     1.007825032230
         H           -0.755954276675     2.216159837068     0.000158478493     1.007825032230
         H            1.517465723325    -2.113639162932     0.000158478493     1.007825032230
         H            4.106762723325     1.078337837068    -0.000071521507     1.007825032230
         H           -3.245205276675     2.090116837068     0.000145478493     1.007825032230
         H           -4.338730276675    -0.175764162932    -0.000001521507     1.007825032230
         H           -2.874255276675    -2.202101162932    -0.000130521507     1.007825032230

  Basis Set: AUG-CC-PVTZ
    Blend: AUG-CC-PVTZ
  Basis Set: (AUG-CC-PVTZ AUX)
    Blend: AUG-CC-PVTZ-JKFIT
	 Reference Energy          =    -474.3315694067592290 [Eh]
	 Singles Energy            =      -0.0000000000000000 [Eh]
	 Same-Spin Energy          =      -0.5138293747502662 [Eh]
	 Opposite-Spin Energy      =      -1.5562468725610208 [Eh]
	 Correlation Energy        =      -2.0700762473112873 [Eh]
	 Total Energy              =    -476.4016456540705349 [Eh]

	 ================> DF-SCS-MP2 Energies <==================
	-----------------------------------------------------------
	 SCS Same-Spin Scale       =       0.3333333333333333 [-]
	 SCS Opposite-Spin Scale   =       1.2000000000000000 [-]
	 SCS Same-Spin Energy      =      -0.1712764582500887 [Eh]
	 SCS Opposite-Spin Energy  =      -1.8674962470732248 [Eh]
	 SCS Correlation Energy    =      -2.0387727053233133 [Eh]
	 SCS Total Energy          =    -476.3703421120825396 [Eh]
	-----------------------------------------------------------

  Dipole Moment: [D]
     X:    -1.4335      Y:     2.0179      Z:     0.0001     Total:     2.4753

*** Psi4 exiting successfully. Buy a developer a beer!
