                               Psi4 1.3.2 release

  ==> Input File <==

--------------------------------------------------------------------------
#psi4
#
memory 32 gb

molecule  {
0 1
  O        3.0870850    -0.7380670     0.0000600
  N       -1.0742560    -1.1771330    -0.0000800
  C        0.9761220     0.0434820    -0.0000150
  C       -0.4881060     0.0430670    -0.0000040
  C        1.8814630     1.1555170    -0.0001020
  C       -1.1269936     1.0615989     0.0000706
  C        1.7670490    -1.0798270     0.0000780
  C       -2.6240280     1.1598410     0.0000810
  C        3.1400070     0.6275730    -0.0000460
  C       -3.2332050    -0.0939970     0.0000020
  C       -2.4150150    -1.2251180    -0.0000720
  H        1.6419750     2.2104320    -0.0002120
  H       -0.7317970     2.1947500     0.0001580
  H        1.5416230    -2.1350490     0.0001580
  H        4.1309200     1.0569280    -0.0000720
  H       -3.2210480     2.0687070     0.0001450
  H       -4.3145730    -0.1971740    -0.0000020
  H       -2.8500980    -2.2235110    -0.0001310
units angstrom
no_reorient  #important for SAPT in psi4, default
symmetry c1  #important for SAPT in psi4, default
}

set PROPERTIES_ORIGIN ["COM"]
properties('MP2/aug-cc-pvtz', properties = ['dipole'])
--------------------------------------------------------------------------

    Molecular point group: c1
  Charge       = 0
  Multiplicity = 1
  Basis Set: AUG-CC-PVTZ
    Blend: AUG-CC-PVTZ
  Basis Set: (AUG-CC-PVTZ AUX)
    Blend: AUG-CC-PVTZ-JKFIT

    Orbital Energies [Eh]
    ---------------------

    Doubly Occupied:

       1A    -20.622587     2A    -15.565654     3A    -11.288831
       4A    -11.286200     5A    -11.284710     6A    -11.278092
       7A    -11.258076     8A    -11.247275     9A    -11.237438
      10A    -11.233551    11A    -11.232027    12A     -1.453143
      13A     -1.270672    14A     -1.109477    15A     -1.080351
      16A     -1.049852    17A     -0.997863    18A     -0.886524
      19A     -0.856001    20A     -0.789632    21A     -0.779502
      22A     -0.744526    23A     -0.683929    24A     -0.673454
      25A     -0.634772    26A     -0.631071    27A     -0.604962
      28A     -0.585794    29A     -0.580807    30A     -0.568358
      31A     -0.563378    32A     -0.532531    33A     -0.480687
      34A     -0.426626    35A     -0.426308    36A     -0.372676
      37A     -0.360993    38A     -0.303940

  @DF-RHF Final Energy:  -474.26973193999385

   => Energetics <=

    Nuclear Repulsion Energy =            543.1787247386178024
    One-Electron Energy =               -1720.9323726546460875
    Two-Electron Energy =                 703.4839159760344955
    Total Energy =                       -474.2697319399937896
  Basis Set: (AUG-CC-PVTZ AUX)
    Blend: AUG-CC-PVTZ-RI
    Molecular point group: c1

    Geometry (in Angstrom), charge = 0, multiplicity = 1:

       Center              X                  Y                   Z               Mass
    ------------   -----------------  -----------------  -----------------  -----------------
         O            3.052411141914    -0.703701620755     0.000061413325    15.994914619570
         N           -1.108929858086    -1.142767620755    -0.000078586675    14.003074004430
         C            0.941448141914     0.077847379245    -0.000013586675    12.000000000000
         C           -0.522779858086     0.077432379245    -0.000002586675    12.000000000000
         C            1.846789141914     1.189882379245    -0.000100586675    12.000000000000
         C           -1.161667458086     1.095964279245     0.000072013325    12.000000000000
         C            1.732375141914    -1.045461620755     0.000079413325    12.000000000000
         C           -2.658701858086     1.194206379245     0.000082413325    12.000000000000
         C            3.105333141914     0.661938379245    -0.000044586675    12.000000000000
         C           -3.267878858086    -0.059631620755     0.000003413325    12.000000000000
         C           -2.449688858086    -1.190752620755    -0.000070586675    12.000000000000
         H            1.607301141914     2.244797379245    -0.000210586675     1.007825032230
         H           -0.766470858086     2.229115379245     0.000159413325     1.007825032230
         H            1.506949141914    -2.100683620755     0.000159413325     1.007825032230
         H            4.096246141914     1.091293379245    -0.000070586675     1.007825032230
         H           -3.255721858086     2.103072379245     0.000146413325     1.007825032230
         H           -4.349246858086    -0.162808620755    -0.000000586675     1.007825032230
         H           -2.884771858086    -2.189145620755    -0.000129586675     1.007825032230

  Basis Set: AUG-CC-PVTZ
    Blend: AUG-CC-PVTZ
  Basis Set: (AUG-CC-PVTZ AUX)
    Blend: AUG-CC-PVTZ-JKFIT
	 Reference Energy          =    -474.2697319399938465 [Eh]
	 Singles Energy            =      -0.0000000000000000 [Eh]
	 Same-Spin Energy          =      -0.5138636536501671 [Eh]
	 Opposite-Spin Energy      =      -1.5589700301856768 [Eh]
	 Correlation Energy        =      -2.0728336838358441 [Eh]
	 Total Energy              =    -476.3425656238296710 [Eh]

	 ================> DF-SCS-MP2 Energies <==================
	-----------------------------------------------------------
	 SCS Same-Spin Scale       =       0.3333333333333333 [-]
	 SCS Opposite-Spin Scale   =       1.2000000000000000 [-]
	 SCS Same-Spin Energy      =      -0.1712878845500557 [Eh]
	 SCS Opposite-Spin Energy  =      -1.8707640362228122 [Eh]
	 SCS Correlation Energy    =      -2.0420519207728680 [Eh]
	 SCS Total Energy          =    -476.3117838607666954 [Eh]
	-----------------------------------------------------------

  Dipole Moment: [D]
     X:    -1.8063      Y:     1.9514      Z:     0.0001     Total:     2.6591

*** Psi4 exiting successfully. Buy a developer a beer!
