                               Psi4 1.4a3.dev225

  ==> Input File <==

--------------------------------------------------------------------------
#psi4
#
memory 32 gb

molecule  {
0 1
  O        3.0870850    -0.7380670     0.0000600
  N       -1.0742560    -1.1771330    -0.0000800
  C        0.9761220     0.0434820    -0.0000150
  C       -0.4881060     0.0430670    -0.0000040
  C        1.8814630     1.1555170    -0.0001020
  C       -1.2332690     1.2310260     0.0000830
  C        1.7670490    -1.0798270     0.0000780
  C       -2.6240280     1.1598410     0.0000810
  C        3.1400070     0.6275730    -0.0000460
  C       -3.2332050    -0.0939970     0.0000020
  C       -2.4150150    -1.2251180    -0.0000720
  H        1.6530444     2.1616727    -0.0002069
  H       -0.7317970     2.1947500     0.0001580
  H        1.5416230    -2.1350490     0.0001580
  H        4.1309200     1.0569280    -0.0000720
  H       -3.2210480     2.0687070     0.0001450
  H       -4.3145730    -0.1971740    -0.0000020
  H       -2.8500980    -2.2235110    -0.0001310
units angstrom
no_reorient  #important for SAPT in psi4, default
symmetry c1  #important for SAPT in psi4, default
}

set PROPERTIES_ORIGIN ["COM"]
properties('MP2/aug-cc-pvtz', properties = ['dipole'])
--------------------------------------------------------------------------

    Molecular point group: c1
  Charge       = 0
  Multiplicity = 1
  Basis Set: AUG-CC-PVTZ
    Blend: AUG-CC-PVTZ
  Basis Set: (AUG-CC-PVTZ AUX)
    Blend: AUG-CC-PVTZ-JKFIT

    Orbital Energies [Eh]
    ---------------------

    Doubly Occupied:

       1A    -20.628392     2A    -15.565653     3A    -11.293545
       4A    -11.293130     5A    -11.292261     6A    -11.279503
       7A    -11.263410     8A    -11.243460     9A    -11.241113
      10A    -11.238599    11A    -11.231656    12A     -1.458627
      13A     -1.258600    14A     -1.106040    15A     -1.088671
      16A     -1.034660    17A     -0.998330    18A     -0.875642
      19A     -0.863654    20A     -0.801326    21A     -0.777629
      22A     -0.747055    23A     -0.687510    24A     -0.663280
      25A     -0.646826    26A     -0.635414    27A     -0.607611
      28A     -0.585578    29A     -0.580515    30A     -0.573009
      31A     -0.548910    32A     -0.537955    33A     -0.520673
      34A     -0.424489    35A     -0.421974    36A     -0.383849
      37A     -0.348676    38A     -0.298875

  @DF-RHF Final Energy:  -474.33028961585103

   => Energetics <=

    Nuclear Repulsion Energy =            540.1356933468608759
    One-Electron Energy =               -1714.8397669034384307
    Two-Electron Energy =                 700.3737839407264119
    Total Energy =                       -474.3302896158510293
  Basis Set: (AUG-CC-PVTZ AUX)
    Blend: AUG-CC-PVTZ-RI
    Molecular point group: c1

    Geometry (in Angstrom), charge = 0, multiplicity = 1:

       Center              X                  Y                   Z               Mass
    ------------   -----------------  -----------------  -----------------  -----------------
         O            3.061126238049    -0.717379294343     0.000060352057    15.994914619570
         N           -1.100214761951    -1.156445294343    -0.000079647943    14.003074004430
         C            0.950163238049     0.064169705657    -0.000014647943    12.000000000000
         C           -0.514064761951     0.063754705657    -0.000003647943    12.000000000000
         C            1.855504238049     1.176204705657    -0.000101647943    12.000000000000
         C           -1.259227761951     1.251713705657     0.000083352057    12.000000000000
         C            1.741090238049    -1.059139294343     0.000078352057    12.000000000000
         C           -2.649986761951     1.180528705657     0.000081352057    12.000000000000
         C            3.114048238049     0.648260705657    -0.000045647943    12.000000000000
         C           -3.259163761951    -0.073309294343     0.000002352057    12.000000000000
         C           -2.440973761951    -1.204430294343    -0.000071647943    12.000000000000
         H            1.627085638049     2.182360405657    -0.000206547943     1.007825032230
         H           -0.757755761951     2.215437705657     0.000158352057     1.007825032230
         H            1.515664238049    -2.114361294343     0.000158352057     1.007825032230
         H            4.104961238049     1.077615705657    -0.000071647943     1.007825032230
         H           -3.247006761951     2.089394705657     0.000145352057     1.007825032230
         H           -4.340531761951    -0.176486294343    -0.000001647943     1.007825032230
         H           -2.876056761951    -2.202823294343    -0.000130647943     1.007825032230

  Basis Set: AUG-CC-PVTZ
    Blend: AUG-CC-PVTZ
  Basis Set: (AUG-CC-PVTZ AUX)
    Blend: AUG-CC-PVTZ-JKFIT
	 Reference Energy          =    -474.3302896158510293 [Eh]
	 Singles Energy            =      -0.0000000000000000 [Eh]
	 Same-Spin Energy          =      -0.5141063642966777 [Eh]
	 Opposite-Spin Energy      =      -1.5566254304660494 [Eh]
	 Correlation Energy        =      -2.0707317947627271 [Eh]
	 Total Energy              =    -476.4010214106137369 [Eh]

	 ================> DF-SCS-MP2 Energies <==================
	-----------------------------------------------------------
	 SCS Same-Spin Scale       =       0.3333333333333333 [-]
	 SCS Opposite-Spin Scale   =       1.2000000000000000 [-]
	 SCS Same-Spin Energy      =      -0.1713687880988926 [Eh]
	 SCS Opposite-Spin Energy  =      -1.8679505165592591 [Eh]
	 SCS Correlation Energy    =      -2.0393193046581515 [Eh]
	 SCS Total Energy          =    -476.3696089205091653 [Eh]
	-----------------------------------------------------------

  Dipole Moment: [D]
     X:    -1.3409      Y:     2.0244      Z:     0.0001     Total:     2.4282

*** Psi4 exiting successfully. Buy a developer a beer!
