                               Psi4 1.3.2 release

  ==> Input File <==

--------------------------------------------------------------------------
#psi4
#
memory 32 gb

molecule  {
0 1
  O        3.0870850    -0.7380670     0.0000600
  N       -1.0742560    -1.1771330    -0.0000800
  C        0.9761220     0.0434820    -0.0000150
  C       -0.4881060     0.0430670    -0.0000040
  C        1.9568293     1.0896547    -0.0000965
  C       -1.2332690     1.2310260     0.0000830
  C        1.7670490    -1.0798270     0.0000780
  C       -2.6240280     1.1598410     0.0000810
  C        3.1400070     0.6275730    -0.0000460
  C       -3.2332050    -0.0939970     0.0000020
  C       -2.4150150    -1.2251180    -0.0000720
  H        1.6419750     2.2104320    -0.0002120
  H       -0.7317970     2.1947500     0.0001580
  H        1.5416230    -2.1350490     0.0001580
  H        4.1309200     1.0569280    -0.0000720
  H       -3.2210480     2.0687070     0.0001450
  H       -4.3145730    -0.1971740    -0.0000020
  H       -2.8500980    -2.2235110    -0.0001310
units angstrom
no_reorient  #important for SAPT in psi4, default
symmetry c1  #important for SAPT in psi4, default
}

set PROPERTIES_ORIGIN ["COM"]
properties('MP2/aug-cc-pvtz', properties = ['dipole'])
--------------------------------------------------------------------------

    Molecular point group: c1
  Charge       = 0
  Multiplicity = 1
  Basis Set: AUG-CC-PVTZ
    Blend: AUG-CC-PVTZ
  Basis Set: (AUG-CC-PVTZ AUX)
    Blend: AUG-CC-PVTZ-JKFIT

    Orbital Energies [Eh]
    ---------------------

    Doubly Occupied:

       1A    -20.620591     2A    -15.566296     3A    -11.295140
       4A    -11.294436     5A    -11.280075     6A    -11.277107
       7A    -11.263629     8A    -11.243575     9A    -11.241342
      10A    -11.236636    11A    -11.230831    12A     -1.458765
      13A     -1.259138    14A     -1.109745    15A     -1.089029
      16A     -1.044705    17A     -1.002360    18A     -0.876730
      19A     -0.862904    20A     -0.790722    21A     -0.777244
      22A     -0.742650    23A     -0.689828    24A     -0.661400
      25A     -0.648544    26A     -0.638129    27A     -0.605716
      28A     -0.590469    29A     -0.576897    30A     -0.554055
      31A     -0.549309    32A     -0.531803    33A     -0.518989
      34A     -0.425878    35A     -0.422520    36A     -0.385555
      37A     -0.360839    38A     -0.301522

  @DF-RHF Final Energy:  -474.31932892284635

   => Energetics <=

    Nuclear Repulsion Energy =            541.0348235399213763
    One-Electron Energy =               -1716.6581108796299304
    Two-Electron Energy =                 701.3039584168620877
    Total Energy =                       -474.3193289228463527
  Basis Set: (AUG-CC-PVTZ AUX)
    Blend: AUG-CC-PVTZ-RI
    Molecular point group: c1

    Geometry (in Angstrom), charge = 0, multiplicity = 1:

       Center              X                  Y                   Z               Mass
    ------------   -----------------  -----------------  -----------------  -----------------
         O            3.054968205910    -0.712269383044     0.000059932485    15.994914619570
         N           -1.106372794090    -1.151335383044    -0.000080067515    14.003074004430
         C            0.944005205910     0.069279616956    -0.000015067515    12.000000000000
         C           -0.520222794090     0.068864616956    -0.000004067515    12.000000000000
         C            1.924712505910     1.115452316956    -0.000096567515    12.000000000000
         C           -1.265385794090     1.256823616956     0.000082932485    12.000000000000
         C            1.734932205910    -1.054029383044     0.000077932485    12.000000000000
         C           -2.656144794090     1.185638616956     0.000080932485    12.000000000000
         C            3.107890205910     0.653370616956    -0.000046067515    12.000000000000
         C           -3.265321794090    -0.068199383044     0.000001932485    12.000000000000
         C           -2.447131794090    -1.199320383044    -0.000072067515    12.000000000000
         H            1.609858205910     2.236229616956    -0.000212067515     1.007825032230
         H           -0.763913794090     2.220547616956     0.000157932485     1.007825032230
         H            1.509506205910    -2.109251383044     0.000157932485     1.007825032230
         H            4.098803205910     1.082725616956    -0.000072067515     1.007825032230
         H           -3.253164794090     2.094504616956     0.000144932485     1.007825032230
         H           -4.346689794090    -0.171376383044    -0.000002067515     1.007825032230
         H           -2.882214794090    -2.197713383044    -0.000131067515     1.007825032230

  Basis Set: AUG-CC-PVTZ
    Blend: AUG-CC-PVTZ
  Basis Set: (AUG-CC-PVTZ AUX)
    Blend: AUG-CC-PVTZ-JKFIT
	 Reference Energy          =    -474.3193289228463527 [Eh]
	 Singles Energy            =      -0.0000000000000000 [Eh]
	 Same-Spin Energy          =      -0.5131032152390730 [Eh]
	 Opposite-Spin Energy      =      -1.5547240407304075 [Eh]
	 Correlation Energy        =      -2.0678272559694806 [Eh]
	 Total Energy              =    -476.3871561788158147 [Eh]

	 ================> DF-SCS-MP2 Energies <==================
	-----------------------------------------------------------
	 SCS Same-Spin Scale       =       0.3333333333333333 [-]
	 SCS Opposite-Spin Scale   =       1.2000000000000000 [-]
	 SCS Same-Spin Energy      =      -0.1710344050796910 [Eh]
	 SCS Opposite-Spin Energy  =      -1.8656688488764890 [Eh]
	 SCS Correlation Energy    =      -2.0367032539561798 [Eh]
	 SCS Total Energy          =    -476.3560321768025574 [Eh]
	-----------------------------------------------------------

  Dipole Moment: [D]
     X:    -1.3965      Y:     2.0379      Z:     0.0001     Total:     2.4705

*** Psi4 exiting successfully. Buy a developer a beer!
