                               Psi4 1.3.2 release

  ==> Input File <==

--------------------------------------------------------------------------
#psi4
#
memory 32 gb

molecule  {
0 1
  O        3.0870850    -0.7380670     0.0000600
  N       -1.0742560    -1.1771330    -0.0000800
  C        0.9761220     0.0434820    -0.0000150
  C       -0.5310474     0.0627800    -0.0000023
  C        1.8814630     1.1555170    -0.0001020
  C       -1.2332690     1.2310260     0.0000830
  C        1.7670490    -1.0798270     0.0000780
  C       -2.6240280     1.1598410     0.0000810
  C        3.1400070     0.6275730    -0.0000460
  C       -3.2332050    -0.0939970     0.0000020
  C       -2.4150150    -1.2251180    -0.0000720
  H        1.6419750     2.2104320    -0.0002120
  H       -0.7317970     2.1947500     0.0001580
  H        1.5416230    -2.1350490     0.0001580
  H        4.1309200     1.0569280    -0.0000720
  H       -3.2210480     2.0687070     0.0001450
  H       -4.3145730    -0.1971740    -0.0000020
  H       -2.8500980    -2.2235110    -0.0001310
units angstrom
no_reorient  #important for SAPT in psi4, default
symmetry c1  #important for SAPT in psi4, default
}

set PROPERTIES_ORIGIN ["COM"]
properties('MP2/aug-cc-pvtz', properties = ['dipole'])
--------------------------------------------------------------------------

    Molecular point group: c1
  Charge       = 0
  Multiplicity = 1
  Basis Set: AUG-CC-PVTZ
    Blend: AUG-CC-PVTZ
  Basis Set: (AUG-CC-PVTZ AUX)
    Blend: AUG-CC-PVTZ-JKFIT

    Orbital Energies [Eh]
    ---------------------

    Doubly Occupied:

       1A    -20.626019     2A    -15.567832     3A    -11.291062
       4A    -11.290285     5A    -11.290238     6A    -11.281203
       7A    -11.265637     8A    -11.242671     9A    -11.240665
      10A    -11.239160    11A    -11.234726    12A     -1.456193
      13A     -1.262415    14A     -1.100357    15A     -1.093200
      16A     -1.035851    17A     -0.997015    18A     -0.872933
      19A     -0.865404    20A     -0.793808    21A     -0.776030
      22A     -0.743025    23A     -0.687426    24A     -0.666214
      25A     -0.646303    26A     -0.633051    27A     -0.605735
      28A     -0.586044    29A     -0.573516    30A     -0.570342
      31A     -0.552138    32A     -0.536164    33A     -0.513484
      34A     -0.428676    35A     -0.420564    36A     -0.385413
      37A     -0.350228    38A     -0.301074

  @DF-RHF Final Energy:  -474.32925192259626

   => Energetics <=

    Nuclear Repulsion Energy =            539.9053773749898255
    One-Electron Energy =               -1714.4250593502993070
    Two-Electron Energy =                 700.1904300527132818
    Total Energy =                       -474.3292519225963133
  Basis Set: (AUG-CC-PVTZ AUX)
    Blend: AUG-CC-PVTZ-RI
    Molecular point group: c1

    Geometry (in Angstrom), charge = 0, multiplicity = 1:

       Center              X                  Y                   Z               Mass
    ------------   -----------------  -----------------  -----------------  -----------------
         O            3.064755626448    -0.719348900681     0.000060246853    15.994914619570
         N           -1.096585373552    -1.158414900681    -0.000079753147    14.003074004430
         C            0.953792626448     0.062200099319    -0.000014753147    12.000000000000
         C           -0.553376773552     0.081498099319    -0.000002053147    12.000000000000
         C            1.859133626448     1.174235099319    -0.000101753147    12.000000000000
         C           -1.255598373552     1.249744099319     0.000083246853    12.000000000000
         C            1.744719626448    -1.061108900681     0.000078246853    12.000000000000
         C           -2.646357373552     1.178559099319     0.000081246853    12.000000000000
         C            3.117677626448     0.646291099319    -0.000045753147    12.000000000000
         C           -3.255534373552    -0.075278900681     0.000002246853    12.000000000000
         C           -2.437344373552    -1.206399900681    -0.000071753147    12.000000000000
         H            1.619645626448     2.229150099319    -0.000211753147     1.007825032230
         H           -0.754126373552     2.213468099319     0.000158246853     1.007825032230
         H            1.519293626448    -2.116330900681     0.000158246853     1.007825032230
         H            4.108590626448     1.075646099319    -0.000071753147     1.007825032230
         H           -3.243377373552     2.087425099319     0.000145246853     1.007825032230
         H           -4.336902373552    -0.178455900681    -0.000001753147     1.007825032230
         H           -2.872427373552    -2.204792900681    -0.000130753147     1.007825032230

  Basis Set: AUG-CC-PVTZ
    Blend: AUG-CC-PVTZ
  Basis Set: (AUG-CC-PVTZ AUX)
    Blend: AUG-CC-PVTZ-JKFIT
	 Reference Energy          =    -474.3292519225962565 [Eh]
	 Singles Energy            =      -0.0000000000000000 [Eh]
	 Same-Spin Energy          =      -0.5137571373818179 [Eh]
	 Opposite-Spin Energy      =      -1.5564530824709970 [Eh]
	 Correlation Energy        =      -2.0702102198528149 [Eh]
	 Total Energy              =    -476.3994621424490674 [Eh]

	 ================> DF-SCS-MP2 Energies <==================
	-----------------------------------------------------------
	 SCS Same-Spin Scale       =       0.3333333333333333 [-]
	 SCS Opposite-Spin Scale   =       1.2000000000000000 [-]
	 SCS Same-Spin Energy      =      -0.1712523791272726 [Eh]
	 SCS Opposite-Spin Energy  =      -1.8677436989651963 [Eh]
	 SCS Correlation Energy    =      -2.0389960780924690 [Eh]
	 SCS Total Energy          =    -476.3682480006887090 [Eh]
	-----------------------------------------------------------

  Dipole Moment: [D]
     X:    -1.5835      Y:     2.0277      Z:     0.0001     Total:     2.5727

*** Psi4 exiting successfully. Buy a developer a beer!
