                               Psi4 1.4a3.dev225

  ==> Input File <==

--------------------------------------------------------------------------
#psi4
#
memory 32 gb

molecule  {
0 1
  O        3.0870850    -0.7380670     0.0000600
  N       -1.0742560    -1.1771330    -0.0000800
  C        0.9761220     0.0434820    -0.0000150
  C       -0.4881060     0.0430670    -0.0000040
  C        1.8814630     1.1555170    -0.0001020
  C       -1.2332690     1.2310260     0.0000830
  C        1.7670490    -1.0798270     0.0000780
  C       -2.6240280     1.1598410     0.0000810
  C        3.0938995     0.6469146    -0.0000481
  C       -3.2332050    -0.0939970     0.0000020
  C       -2.4150150    -1.2251180    -0.0000720
  H        1.6419750     2.2104320    -0.0002120
  H       -0.7317970     2.1947500     0.0001580
  H        1.5416230    -2.1350490     0.0001580
  H        4.1309200     1.0569280    -0.0000720
  H       -3.2210480     2.0687070     0.0001450
  H       -4.3145730    -0.1971740    -0.0000020
  H       -2.8500980    -2.2235110    -0.0001310
units angstrom
no_reorient  #important for SAPT in psi4, default
symmetry c1  #important for SAPT in psi4, default
}

set PROPERTIES_ORIGIN ["COM"]
properties('MP2/aug-cc-pvtz', properties = ['dipole'])
--------------------------------------------------------------------------

    Molecular point group: c1
  Charge       = 0
  Multiplicity = 1
  Basis Set: AUG-CC-PVTZ
    Blend: AUG-CC-PVTZ
  Basis Set: (AUG-CC-PVTZ AUX)
    Blend: AUG-CC-PVTZ-JKFIT

    Orbital Energies [Eh]
    ---------------------

    Doubly Occupied:

       1A    -20.625190     2A    -15.565102     3A    -11.294447
       4A    -11.292039     5A    -11.290398     6A    -11.279309
       7A    -11.263223     8A    -11.243032     9A    -11.240619
      10A    -11.238189    11A    -11.232671    12A     -1.453223
      13A     -1.258233    14A     -1.110819    15A     -1.088479
      16A     -1.040021    17A     -0.995879    18A     -0.875203
      19A     -0.862538    20A     -0.794989    21A     -0.776084
      22A     -0.743092    23A     -0.686567    24A     -0.661845
      25A     -0.646558    26A     -0.633748    27A     -0.596858
      28A     -0.583070    29A     -0.578208    30A     -0.572854
      31A     -0.548485    32A     -0.540964    33A     -0.519725
      34A     -0.426652    35A     -0.421538    36A     -0.384715
      37A     -0.356354    38A     -0.299135

  @DF-RHF Final Energy:  -474.32864725422172

   => Energetics <=

    Nuclear Repulsion Energy =            540.5405312137526153
    One-Electron Energy =               -1715.6982458474553823
    Two-Electron Energy =                 700.8290673794809891
    Total Energy =                       -474.3286472542216643
  Basis Set: (AUG-CC-PVTZ AUX)
    Blend: AUG-CC-PVTZ-RI
    Molecular point group: c1

    Geometry (in Angstrom), charge = 0, multiplicity = 1:

       Center              X                  Y                   Z               Mass
    ------------   -----------------  -----------------  -----------------  -----------------
         O            3.065017553205    -0.719318175310     0.000060561222    15.994914619570
         N           -1.096323446795    -1.158384175310    -0.000079438778    14.003074004430
         C            0.954054553205     0.062230824690    -0.000014438778    12.000000000000
         C           -0.510173446795     0.061815824690    -0.000003438778    12.000000000000
         C            1.859395553205     1.174265824690    -0.000101438778    12.000000000000
         C           -1.255336446795     1.249774824690     0.000083561222    12.000000000000
         C            1.744981553205    -1.061078175310     0.000078561222    12.000000000000
         C           -2.646095446795     1.178589824690     0.000081561222    12.000000000000
         C            3.071832053205     0.665663424690    -0.000047538778    12.000000000000
         C           -3.255272446795    -0.075248175310     0.000002561222    12.000000000000
         C           -2.437082446795    -1.206369175310    -0.000071438778    12.000000000000
         H            1.619907553205     2.229180824690    -0.000211438778     1.007825032230
         H           -0.753864446795     2.213498824690     0.000158561222     1.007825032230
         H            1.519555553205    -2.116300175310     0.000158561222     1.007825032230
         H            4.108852553205     1.075676824690    -0.000071438778     1.007825032230
         H           -3.243115446795     2.087455824690     0.000145561222     1.007825032230
         H           -4.336640446795    -0.178425175310    -0.000001438778     1.007825032230
         H           -2.872165446795    -2.204762175310    -0.000130438778     1.007825032230

  Basis Set: AUG-CC-PVTZ
    Blend: AUG-CC-PVTZ
  Basis Set: (AUG-CC-PVTZ AUX)
    Blend: AUG-CC-PVTZ-JKFIT
	 Reference Energy          =    -474.3286472542217211 [Eh]
	 Singles Energy            =      -0.0000000000000000 [Eh]
	 Same-Spin Energy          =      -0.5136416442459316 [Eh]
	 Opposite-Spin Energy      =      -1.5563603522919569 [Eh]
	 Correlation Energy        =      -2.0700019965378886 [Eh]
	 Total Energy              =    -476.3986492507596040 [Eh]

	 ================> DF-SCS-MP2 Energies <==================
	-----------------------------------------------------------
	 SCS Same-Spin Scale       =       0.3333333333333333 [-]
	 SCS Opposite-Spin Scale   =       1.2000000000000000 [-]
	 SCS Same-Spin Energy      =      -0.1712138814153105 [Eh]
	 SCS Opposite-Spin Energy  =      -1.8676324227503482 [Eh]
	 SCS Correlation Energy    =      -2.0388463041656588 [Eh]
	 SCS Total Energy          =    -476.3674935583873662 [Eh]
	-----------------------------------------------------------

  Dipole Moment: [D]
     X:    -1.3562      Y:     2.0914      Z:     0.0001     Total:     2.4926

*** Psi4 exiting successfully. Buy a developer a beer!
