                               Psi4 1.3.2 release

  ==> Input File <==

--------------------------------------------------------------------------
#psi4
#
memory 32 gb

molecule  {
0 1
  O        3.0870850    -0.7380670     0.0000600
  N       -1.0742560    -1.1771330    -0.0000800
  C        0.9761220     0.0434820    -0.0000150
  C       -0.4881060     0.0430670    -0.0000040
  C        1.8724408     1.1334720    -0.0001003
  C       -1.2332690     1.2310260     0.0000830
  C        1.7670490    -1.0798270     0.0000780
  C       -2.6240280     1.1598410     0.0000810
  C        3.1400070     0.6275730    -0.0000460
  C       -3.2332050    -0.0939970     0.0000020
  C       -2.4150150    -1.2251180    -0.0000720
  H        1.6419750     2.2104320    -0.0002120
  H       -0.7317970     2.1947500     0.0001580
  H        1.5416230    -2.1350490     0.0001580
  H        4.1309200     1.0569280    -0.0000720
  H       -3.2210480     2.0687070     0.0001450
  H       -4.3145730    -0.1971740    -0.0000020
  H       -2.8500980    -2.2235110    -0.0001310
units angstrom
no_reorient  #important for SAPT in psi4, default
symmetry c1  #important for SAPT in psi4, default
}

set PROPERTIES_ORIGIN ["COM"]
properties('MP2/aug-cc-pvtz', properties = ['dipole'])
--------------------------------------------------------------------------

    Molecular point group: c1
  Charge       = 0
  Multiplicity = 1
  Basis Set: AUG-CC-PVTZ
    Blend: AUG-CC-PVTZ
  Basis Set: (AUG-CC-PVTZ AUX)
    Blend: AUG-CC-PVTZ-JKFIT

    Orbital Energies [Eh]
    ---------------------

    Doubly Occupied:

       1A    -20.628697     2A    -15.565962     3A    -11.293659
       4A    -11.292544     5A    -11.292036     6A    -11.279634
       7A    -11.263497     8A    -11.243549     9A    -11.241339
      10A    -11.237640    11A    -11.236504    12A     -1.459217
      13A     -1.258879    14A     -1.108918    15A     -1.088835
      16A     -1.034234    17A     -0.998048    18A     -0.875709
      19A     -0.863638    20A     -0.793728    21A     -0.779547
      22A     -0.744667    23A     -0.687835    24A     -0.662281
      25A     -0.646055    26A     -0.635974    27A     -0.606949
      28A     -0.586830    29A     -0.575767    30A     -0.566265
      31A     -0.549170    32A     -0.540134    33A     -0.521655
      34A     -0.426610    35A     -0.422203    36A     -0.384084
      37A     -0.348262    38A     -0.298547

  @DF-RHF Final Energy:  -474.32986222249104

   => Energetics <=

    Nuclear Repulsion Energy =            540.3332721451937459
    One-Electron Energy =               -1715.2480655368065072
    Two-Electron Energy =                 700.5849311691217736
    Total Energy =                       -474.3298622224911014
  Basis Set: (AUG-CC-PVTZ AUX)
    Blend: AUG-CC-PVTZ-RI
    Molecular point group: c1

    Geometry (in Angstrom), charge = 0, multiplicity = 1:

       Center              X                  Y                   Z               Mass
    ------------   -----------------  -----------------  -----------------  -----------------
         O            3.061949541344    -0.715894323280     0.000060246853    15.994914619570
         N           -1.099391458656    -1.154960323280    -0.000079753147    14.003074004430
         C            0.950986541344     0.065654676720    -0.000014753147    12.000000000000
         C           -0.513241458656     0.065239676720    -0.000003753147    12.000000000000
         C            1.847305341344     1.155644676720    -0.000100053147    12.000000000000
         C           -1.258404458656     1.253198676720     0.000083246853    12.000000000000
         C            1.741913541344    -1.057654323280     0.000078246853    12.000000000000
         C           -2.649163458656     1.182013676720     0.000081246853    12.000000000000
         C            3.114871541344     0.649745676720    -0.000045753147    12.000000000000
         C           -3.258340458656    -0.071824323280     0.000002246853    12.000000000000
         C           -2.440150458656    -1.202945323280    -0.000071753147    12.000000000000
         H            1.616839541344     2.232604676720    -0.000211753147     1.007825032230
         H           -0.756932458656     2.216922676720     0.000158246853     1.007825032230
         H            1.516487541344    -2.112876323280     0.000158246853     1.007825032230
         H            4.105784541344     1.079100676720    -0.000071753147     1.007825032230
         H           -3.246183458656     2.090879676720     0.000145246853     1.007825032230
         H           -4.339708458656    -0.175001323280    -0.000001753147     1.007825032230
         H           -2.875233458656    -2.201338323280    -0.000130753147     1.007825032230

  Basis Set: AUG-CC-PVTZ
    Blend: AUG-CC-PVTZ
  Basis Set: (AUG-CC-PVTZ AUX)
    Blend: AUG-CC-PVTZ-JKFIT
	 Reference Energy          =    -474.3298622224910446 [Eh]
	 Singles Energy            =      -0.0000000000000000 [Eh]
	 Same-Spin Energy          =      -0.5146057091055316 [Eh]
	 Opposite-Spin Energy      =      -1.5572784196699787 [Eh]
	 Correlation Energy        =      -2.0718841287755101 [Eh]
	 Total Energy              =    -476.4017463512665813 [Eh]

	 ================> DF-SCS-MP2 Energies <==================
	-----------------------------------------------------------
	 SCS Same-Spin Scale       =       0.3333333333333333 [-]
	 SCS Opposite-Spin Scale   =       1.2000000000000000 [-]
	 SCS Same-Spin Energy      =      -0.1715352363685105 [Eh]
	 SCS Opposite-Spin Energy  =      -1.8687341036039744 [Eh]
	 SCS Correlation Energy    =      -2.0402693399724852 [Eh]
	 SCS Total Energy          =    -476.3701315624635413 [Eh]
	-----------------------------------------------------------

  Dipole Moment: [D]
     X:    -1.3552      Y:     2.0191      Z:     0.0001     Total:     2.4317

*** Psi4 exiting successfully. Buy a developer a beer!
