                               Psi4 1.3.2 release

  ==> Input File <==

--------------------------------------------------------------------------
#psi4
#
memory 32 gb

molecule  {
0 1
  O        3.0870850    -0.7380670     0.0000600
  N       -1.0742560    -1.1771330    -0.0000800
  C        0.9761220     0.0434820    -0.0000150
  C       -0.4881060     0.0430670    -0.0000040
  C        2.0077337     1.3106160    -0.0001141
  C       -1.2332690     1.2310260     0.0000830
  C        1.7670490    -1.0798270     0.0000780
  C       -2.6240280     1.1598410     0.0000810
  C        3.1400070     0.6275730    -0.0000460
  C       -3.2332050    -0.0939970     0.0000020
  C       -2.4150150    -1.2251180    -0.0000720
  H        1.6419750     2.2104320    -0.0002120
  H       -0.7317970     2.1947500     0.0001580
  H        1.5416230    -2.1350490     0.0001580
  H        4.1309200     1.0569280    -0.0000720
  H       -3.2210480     2.0687070     0.0001450
  H       -4.3145730    -0.1971740    -0.0000020
  H       -2.8500980    -2.2235110    -0.0001310
units angstrom
no_reorient  #important for SAPT in psi4, default
symmetry c1  #important for SAPT in psi4, default
}

set PROPERTIES_ORIGIN ["COM"]
properties('MP2/aug-cc-pvtz', properties = ['dipole'])
--------------------------------------------------------------------------

    Molecular point group: c1
  Charge       = 0
  Multiplicity = 1
  Basis Set: AUG-CC-PVTZ
    Blend: AUG-CC-PVTZ
  Basis Set: (AUG-CC-PVTZ AUX)
    Blend: AUG-CC-PVTZ-JKFIT

    Orbital Energies [Eh]
    ---------------------

    Doubly Occupied:

       1A    -20.626360     2A    -15.564289     3A    -11.298458
       4A    -11.296541     5A    -11.291532     6A    -11.278831
       7A    -11.262616     8A    -11.249128     9A    -11.242516
      10A    -11.240775    11A    -11.239874    12A     -1.457248
      13A     -1.257209    14A     -1.089667    15A     -1.084912
      16A     -1.040453    17A     -0.998671    18A     -0.875965
      19A     -0.862072    20A     -0.812869    21A     -0.771775
      22A     -0.744342    23A     -0.689596    24A     -0.666982
      25A     -0.654388    26A     -0.635646    27A     -0.611332
      28A     -0.598941    29A     -0.581457    30A     -0.564096
      31A     -0.547567    32A     -0.525664    33A     -0.486564
      34A     -0.420797    35A     -0.413104    36A     -0.383057
      37A     -0.362243    38A     -0.301468

  @DF-RHF Final Energy:  -474.29787939885711

   => Energetics <=

    Nuclear Repulsion Energy =            536.7001533634252155
    One-Electron Energy =               -1707.9380547266766825
    Two-Electron Energy =                 696.9400219643943046
    Total Energy =                       -474.2978793988571624
  Basis Set: (AUG-CC-PVTZ AUX)
    Blend: AUG-CC-PVTZ-RI
    Molecular point group: c1

    Geometry (in Angstrom), charge = 0, multiplicity = 1:

       Center              X                  Y                   Z               Mass
    ------------   -----------------  -----------------  -----------------  -----------------
         O            3.050756960403    -0.730549183646     0.000061388507    15.994914619570
         N           -1.110584039597    -1.169615183646    -0.000078611493    14.003074004430
         C            0.939793960403     0.050999816354    -0.000013611493    12.000000000000
         C           -0.524434039597     0.050584816354    -0.000002611493    12.000000000000
         C            1.971405660403     1.318133816354    -0.000112711493    12.000000000000
         C           -1.269597039597     1.238543816354     0.000084388507    12.000000000000
         C            1.730720960403    -1.072309183646     0.000079388507    12.000000000000
         C           -2.660356039597     1.167358816354     0.000082388507    12.000000000000
         C            3.103678960403     0.635090816354    -0.000044611493    12.000000000000
         C           -3.269533039597    -0.086479183646     0.000003388507    12.000000000000
         C           -2.451343039597    -1.217600183646    -0.000070611493    12.000000000000
         H            1.605646960403     2.217949816354    -0.000210611493     1.007825032230
         H           -0.768125039597     2.202267816354     0.000159388507     1.007825032230
         H            1.505294960403    -2.127531183646     0.000159388507     1.007825032230
         H            4.094591960403     1.064445816354    -0.000070611493     1.007825032230
         H           -3.257376039597     2.076224816354     0.000146388507     1.007825032230
         H           -4.350901039597    -0.189656183646    -0.000000611493     1.007825032230
         H           -2.886426039597    -2.215993183646    -0.000129611493     1.007825032230

  Basis Set: AUG-CC-PVTZ
    Blend: AUG-CC-PVTZ
  Basis Set: (AUG-CC-PVTZ AUX)
    Blend: AUG-CC-PVTZ-JKFIT
	 Reference Energy          =    -474.2978793988571056 [Eh]
	 Singles Energy            =      -0.0000000000000000 [Eh]
	 Same-Spin Energy          =      -0.5117469695049940 [Eh]
	 Opposite-Spin Energy      =      -1.5560926281531589 [Eh]
	 Correlation Energy        =      -2.0678395976581530 [Eh]
	 Total Energy              =    -476.3657189965152838 [Eh]

	 ================> DF-SCS-MP2 Energies <==================
	-----------------------------------------------------------
	 SCS Same-Spin Scale       =       0.3333333333333333 [-]
	 SCS Opposite-Spin Scale   =       1.2000000000000000 [-]
	 SCS Same-Spin Energy      =      -0.1705823231683313 [Eh]
	 SCS Opposite-Spin Energy  =      -1.8673111537837905 [Eh]
	 SCS Correlation Energy    =      -2.0378934769521218 [Eh]
	 SCS Total Energy          =    -476.3357728758092549 [Eh]
	-----------------------------------------------------------

  Dipole Moment: [D]
     X:    -1.3411      Y:     2.0282      Z:     0.0001     Total:     2.4315

*** Psi4 exiting successfully. Buy a developer a beer!
