                               Psi4 1.4a3.dev225

  ==> Input File <==

--------------------------------------------------------------------------
#psi4
#
memory 32 gb

molecule  {
0 1
  O        3.0870850    -0.7380670     0.0000600
  N       -1.0742560    -1.1771330    -0.0000800
  C        0.9761220     0.0434820    -0.0000150
  C       -0.4794459     0.0610948    -0.0000029
  C        1.8814630     1.1555170    -0.0001020
  C       -1.2332690     1.2310260     0.0000830
  C        1.7670490    -1.0798270     0.0000780
  C       -2.6240280     1.1598410     0.0000810
  C        3.1400070     0.6275730    -0.0000460
  C       -3.2332050    -0.0939970     0.0000020
  C       -2.4150150    -1.2251180    -0.0000720
  H        1.6419750     2.2104320    -0.0002120
  H       -0.7317970     2.1947500     0.0001580
  H        1.5416230    -2.1350490     0.0001580
  H        4.1309200     1.0569280    -0.0000720
  H       -3.2210480     2.0687070     0.0001450
  H       -4.3145730    -0.1971740    -0.0000020
  H       -2.8500980    -2.2235110    -0.0001310
units angstrom
no_reorient  #important for SAPT in psi4, default
symmetry c1  #important for SAPT in psi4, default
}

set PROPERTIES_ORIGIN ["COM"]
properties('MP2/aug-cc-pvtz', properties = ['dipole'])
--------------------------------------------------------------------------

    Molecular point group: c1
  Charge       = 0
  Multiplicity = 1
  Basis Set: AUG-CC-PVTZ
    Blend: AUG-CC-PVTZ
  Basis Set: (AUG-CC-PVTZ AUX)
    Blend: AUG-CC-PVTZ-JKFIT

    Orbital Energies [Eh]
    ---------------------

    Doubly Occupied:

       1A    -20.629042     2A    -15.566632     3A    -11.294600
       4A    -11.293468     5A    -11.291903     6A    -11.279330
       7A    -11.263679     8A    -11.242510     9A    -11.241153
      10A    -11.239225    11A    -11.237152    12A     -1.459260
      13A     -1.253748    14A     -1.106724    15A     -1.087801
      16A     -1.034619    17A     -0.998606    18A     -0.877029
      19A     -0.862189    20A     -0.795623    21A     -0.778512
      22A     -0.745336    23A     -0.686379    24A     -0.661964
      25A     -0.646339    26A     -0.636029    27A     -0.607549
      28A     -0.586560    29A     -0.575101    30A     -0.572086
      31A     -0.547160    32A     -0.538790    33A     -0.519361
      34A     -0.425471    35A     -0.421871    36A     -0.382699
      37A     -0.349447    38A     -0.298750

  @DF-RHF Final Energy:  -474.32978816626598

   => Energetics <=

    Nuclear Repulsion Energy =            539.8143136172537879
    One-Electron Energy =               -1714.2208142504248372
    Two-Electron Energy =                 700.0767124669051782
    Total Energy =                       -474.3297881662659847
  Basis Set: (AUG-CC-PVTZ AUX)
    Blend: AUG-CC-PVTZ-RI
    Molecular point group: c1

    Geometry (in Angstrom), charge = 0, multiplicity = 1:

       Center              X                  Y                   Z               Mass
    ------------   -----------------  -----------------  -----------------  -----------------
         O            3.060486710892    -0.719209486585     0.000060296490    15.994914619570
         N           -1.100854289108    -1.158275486585    -0.000079703510    14.003074004430
         C            0.949523710892     0.062339513415    -0.000014703510    12.000000000000
         C           -0.506044189108     0.079952313415    -0.000002603510    12.000000000000
         C            1.854864710892     1.174374513415    -0.000101703510    12.000000000000
         C           -1.259867289108     1.249883513415     0.000083296490    12.000000000000
         C            1.740450710892    -1.060969486585     0.000078296490    12.000000000000
         C           -2.650626289108     1.178698513415     0.000081296490    12.000000000000
         C            3.113408710892     0.646430513415    -0.000045703510    12.000000000000
         C           -3.259803289108    -0.075139486585     0.000002296490    12.000000000000
         C           -2.441613289108    -1.206260486585    -0.000071703510    12.000000000000
         H            1.615376710892     2.229289513415    -0.000211703510     1.007825032230
         H           -0.758395289108     2.213607513415     0.000158296490     1.007825032230
         H            1.515024710892    -2.116191486585     0.000158296490     1.007825032230
         H            4.104321710892     1.075785513415    -0.000071703510     1.007825032230
         H           -3.247646289108     2.087564513415     0.000145296490     1.007825032230
         H           -4.341171289108    -0.178316486585    -0.000001703510     1.007825032230
         H           -2.876696289108    -2.204653486585    -0.000130703510     1.007825032230

  Basis Set: AUG-CC-PVTZ
    Blend: AUG-CC-PVTZ
  Basis Set: (AUG-CC-PVTZ AUX)
    Blend: AUG-CC-PVTZ-JKFIT
	 Reference Energy          =    -474.3297881662659847 [Eh]
	 Singles Energy            =      -0.0000000000000000 [Eh]
	 Same-Spin Energy          =      -0.5144356405658601 [Eh]
	 Opposite-Spin Energy      =      -1.5575235681568982 [Eh]
	 Correlation Energy        =      -2.0719592087227583 [Eh]
	 Total Energy              =    -476.4017473749887586 [Eh]

	 ================> DF-SCS-MP2 Energies <==================
	-----------------------------------------------------------
	 SCS Same-Spin Scale       =       0.3333333333333333 [-]
	 SCS Opposite-Spin Scale   =       1.2000000000000000 [-]
	 SCS Same-Spin Energy      =      -0.1714785468552867 [Eh]
	 SCS Opposite-Spin Energy  =      -1.8690282817882777 [Eh]
	 SCS Correlation Energy    =      -2.0405068286435646 [Eh]
	 SCS Total Energy          =    -476.3702949949095569 [Eh]
	-----------------------------------------------------------

  Dipole Moment: [D]
     X:    -1.3232      Y:     2.0261      Z:     0.0001     Total:     2.4199

*** Psi4 exiting successfully. Buy a developer a beer!
