                               Psi4 1.4a3.dev225

  ==> Input File <==

--------------------------------------------------------------------------
#psi4
#
memory 32 gb

molecule  {
0 1
  O        3.0870850    -0.7380670     0.0000600
  N       -1.0742560    -1.1771330    -0.0000800
  C        0.9761220     0.0434820    -0.0000150
  C       -0.4881060     0.0430670    -0.0000040
  C        1.8814630     1.1555170    -0.0001020
  C       -1.2332690     1.2310260     0.0000830
  C        1.7670490    -1.0798270     0.0000780
  C       -2.6240280     1.1598410     0.0000810
  C        3.1215640     0.6353096    -0.0000468
  C       -3.2332050    -0.0939970     0.0000020
  C       -2.4150150    -1.2251180    -0.0000720
  H        1.6419750     2.2104320    -0.0002120
  H       -0.7317970     2.1947500     0.0001580
  H        1.5416230    -2.1350490     0.0001580
  H        4.1309200     1.0569280    -0.0000720
  H       -3.2210480     2.0687070     0.0001450
  H       -4.3145730    -0.1971740    -0.0000020
  H       -2.8500980    -2.2235110    -0.0001310
units angstrom
no_reorient  #important for SAPT in psi4, default
symmetry c1  #important for SAPT in psi4, default
}

set PROPERTIES_ORIGIN ["COM"]
properties('MP2/aug-cc-pvtz', properties = ['dipole'])
--------------------------------------------------------------------------

    Molecular point group: c1
  Charge       = 0
  Multiplicity = 1
  Basis Set: AUG-CC-PVTZ
    Blend: AUG-CC-PVTZ
  Basis Set: (AUG-CC-PVTZ AUX)
    Blend: AUG-CC-PVTZ-JKFIT

    Orbital Energies [Eh]
    ---------------------

    Doubly Occupied:

       1A    -20.627260     2A    -15.565453     3A    -11.294065
       4A    -11.292180     5A    -11.292170     6A    -11.279419
       7A    -11.263311     8A    -11.243252     9A    -11.240919
      10A    -11.238726    11A    -11.235521    12A     -1.456643
      13A     -1.258461    14A     -1.107400    15A     -1.088568
      16A     -1.036398    17A     -0.997262    18A     -0.875430
      19A     -0.863076    20A     -0.795549    21A     -0.777020
      22A     -0.744202    23A     -0.686976    24A     -0.662234
      25A     -0.646371    26A     -0.634882    27A     -0.602495
      28A     -0.584548    29A     -0.576218    30A     -0.573166
      31A     -0.548750    32A     -0.539402    33A     -0.520274
      34A     -0.425320    35A     -0.421813    36A     -0.384128
      37A     -0.351795    38A     -0.299120

  @DF-RHF Final Energy:  -474.33109528351241

   => Energetics <=

    Nuclear Repulsion Energy =            540.1399760957173157
    One-Electron Energy =               -1714.8825823198014859
    Two-Electron Energy =                 700.4115109405719295
    Total Energy =                       -474.3310952835123544
  Basis Set: (AUG-CC-PVTZ AUX)
    Blend: AUG-CC-PVTZ-RI
    Molecular point group: c1

    Geometry (in Angstrom), charge = 0, multiplicity = 1:

       Center              X                  Y                   Z               Mass
    ------------   -----------------  -----------------  -----------------  -----------------
         O            3.062728910154    -0.718358110873     0.000060453675    15.994914619570
         N           -1.098612089846    -1.157424110873    -0.000079546325    14.003074004430
         C            0.951765910154     0.063190889127    -0.000014546325    12.000000000000
         C           -0.512462089846     0.062775889127    -0.000003546325    12.000000000000
         C            1.857106910154     1.175225889127    -0.000101546325    12.000000000000
         C           -1.257625089846     1.250734889127     0.000083453675    12.000000000000
         C            1.742692910154    -1.060118110873     0.000078453675    12.000000000000
         C           -2.648384089846     1.179549889127     0.000081453675    12.000000000000
         C            3.097207910154     0.655018489127    -0.000046346325    12.000000000000
         C           -3.257561089846    -0.074288110873     0.000002453675    12.000000000000
         C           -2.439371089846    -1.205409110873    -0.000071546325    12.000000000000
         H            1.617618910154     2.230140889127    -0.000211546325     1.007825032230
         H           -0.756153089846     2.214458889127     0.000158453675     1.007825032230
         H            1.517266910154    -2.115340110873     0.000158453675     1.007825032230
         H            4.106563910154     1.076636889127    -0.000071546325     1.007825032230
         H           -3.245404089846     2.088415889127     0.000145453675     1.007825032230
         H           -4.338929089846    -0.177465110873    -0.000001546325     1.007825032230
         H           -2.874454089846    -2.203802110873    -0.000130546325     1.007825032230

  Basis Set: AUG-CC-PVTZ
    Blend: AUG-CC-PVTZ
  Basis Set: (AUG-CC-PVTZ AUX)
    Blend: AUG-CC-PVTZ-JKFIT
	 Reference Energy          =    -474.3310952835124112 [Eh]
	 Singles Energy            =      -0.0000000000000000 [Eh]
	 Same-Spin Energy          =      -0.5139565408469778 [Eh]
	 Opposite-Spin Energy      =      -1.5566692408393841 [Eh]
	 Correlation Energy        =      -2.0706257816863620 [Eh]
	 Total Energy              =    -476.4017210651987853 [Eh]

	 ================> DF-SCS-MP2 Energies <==================
	-----------------------------------------------------------
	 SCS Same-Spin Scale       =       0.3333333333333333 [-]
	 SCS Opposite-Spin Scale   =       1.2000000000000000 [-]
	 SCS Same-Spin Energy      =      -0.1713188469489926 [Eh]
	 SCS Opposite-Spin Energy  =      -1.8680030890072608 [Eh]
	 SCS Correlation Energy    =      -2.0393219359562536 [Eh]
	 SCS Total Energy          =    -476.3704172194686635 [Eh]
	-----------------------------------------------------------

  Dipole Moment: [D]
     X:    -1.3477      Y:     2.0498      Z:     0.0001     Total:     2.4532

*** Psi4 exiting successfully. Buy a developer a beer!
