                               Psi4 1.3.2 release

  ==> Input File <==

--------------------------------------------------------------------------
#psi4
#
memory 32 gb

molecule  {
0 1
  O        3.0870850    -0.7380670     0.0000600
  N       -1.0742560    -1.1771330    -0.0000800
  C        0.9761220     0.0434820    -0.0000150
  C       -0.4881060     0.0430670    -0.0000040
  C        1.8814630     1.1555170    -0.0001020
  C       -1.2332690     1.2310260     0.0000830
  C        1.8100039    -1.2159361     0.0000889
  C       -2.6240280     1.1598410     0.0000810
  C        3.1400070     0.6275730    -0.0000460
  C       -3.2332050    -0.0939970     0.0000020
  C       -2.4150150    -1.2251180    -0.0000720
  H        1.6419750     2.2104320    -0.0002120
  H       -0.7317970     2.1947500     0.0001580
  H        1.5416230    -2.1350490     0.0001580
  H        4.1309200     1.0569280    -0.0000720
  H       -3.2210480     2.0687070     0.0001450
  H       -4.3145730    -0.1971740    -0.0000020
  H       -2.8500980    -2.2235110    -0.0001310
units angstrom
no_reorient  #important for SAPT in psi4, default
symmetry c1  #important for SAPT in psi4, default
}

set PROPERTIES_ORIGIN ["COM"]
properties('MP2/aug-cc-pvtz', properties = ['dipole'])
--------------------------------------------------------------------------

    Molecular point group: c1
  Charge       = 0
  Multiplicity = 1
  Basis Set: AUG-CC-PVTZ
    Blend: AUG-CC-PVTZ
  Basis Set: (AUG-CC-PVTZ AUX)
    Blend: AUG-CC-PVTZ-JKFIT

    Orbital Energies [Eh]
    ---------------------

    Doubly Occupied:

       1A    -20.634735     2A    -15.563581     3A    -11.303461
       4A    -11.296502     5A    -11.289626     6A    -11.277905
       7A    -11.261654     8A    -11.253374     9A    -11.241232
      10A    -11.240571    11A    -11.238888    12A     -1.456623
      13A     -1.256193    14A     -1.091948    15A     -1.086705
      16A     -1.036014    17A     -0.994624    18A     -0.877147
      19A     -0.861141    20A     -0.801852    21A     -0.784852
      22A     -0.746060    23A     -0.688097    24A     -0.660965
      25A     -0.654173    26A     -0.632405    27A     -0.628570
      28A     -0.582014    29A     -0.580818    30A     -0.568655
      31A     -0.546791    32A     -0.520570    33A     -0.514156
      34A     -0.420349    35A     -0.417820    36A     -0.382424
      37A     -0.348405    38A     -0.284471

  @DF-RHF Final Energy:  -474.29347743721570

   => Energetics <=

    Nuclear Repulsion Energy =            537.3751284498050609
    One-Electron Energy =               -1709.2864640418933959
    Two-Electron Energy =                 697.6178581548726925
    Total Energy =                       -474.2934774372156426
  Basis Set: (AUG-CC-PVTZ AUX)
    Blend: AUG-CC-PVTZ-RI
    Molecular point group: c1

    Geometry (in Angstrom), charge = 0, multiplicity = 1:

       Center              X                  Y                   Z               Mass
    ------------   -----------------  -----------------  -----------------  -----------------
         O            3.057649552957    -0.706457969475     0.000059485751    15.994914619570
         N           -1.103691447043    -1.145523969475    -0.000080514249    14.003074004430
         C            0.946686552957     0.075091030525    -0.000015514249    12.000000000000
         C           -0.517541447043     0.074676030525    -0.000004514249    12.000000000000
         C            1.852027552957     1.187126030525    -0.000102514249    12.000000000000
         C           -1.262704447043     1.262635030525     0.000082485751    12.000000000000
         C            1.780568452957    -1.184327069475     0.000088385751    12.000000000000
         C           -2.653463447043     1.191450030525     0.000080485751    12.000000000000
         C            3.110571552957     0.659182030525    -0.000046514249    12.000000000000
         C           -3.262640447043    -0.062387969475     0.000001485751    12.000000000000
         C           -2.444450447043    -1.193508969475    -0.000072514249    12.000000000000
         H            1.612539552957     2.242041030525    -0.000212514249     1.007825032230
         H           -0.761232447043     2.226359030525     0.000157485751     1.007825032230
         H            1.512187552957    -2.103439969475     0.000157485751     1.007825032230
         H            4.101484552957     1.088537030525    -0.000072514249     1.007825032230
         H           -3.250483447043     2.100316030525     0.000144485751     1.007825032230
         H           -4.344008447043    -0.165564969475    -0.000002514249     1.007825032230
         H           -2.879533447043    -2.191901969475    -0.000131514249     1.007825032230

  Basis Set: AUG-CC-PVTZ
    Blend: AUG-CC-PVTZ
  Basis Set: (AUG-CC-PVTZ AUX)
    Blend: AUG-CC-PVTZ-JKFIT
	 Reference Energy          =    -474.2934774372156994 [Eh]
	 Singles Energy            =      -0.0000000000000000 [Eh]
	 Same-Spin Energy          =      -0.5168786805590500 [Eh]
	 Opposite-Spin Energy      =      -1.5617721944083394 [Eh]
	 Correlation Energy        =      -2.0786508749673893 [Eh]
	 Total Energy              =    -476.3721283121830652 [Eh]

	 ================> DF-SCS-MP2 Energies <==================
	-----------------------------------------------------------
	 SCS Same-Spin Scale       =       0.3333333333333333 [-]
	 SCS Opposite-Spin Scale   =       1.2000000000000000 [-]
	 SCS Same-Spin Energy      =      -0.1722928935196833 [Eh]
	 SCS Opposite-Spin Energy  =      -1.8741266332900071 [Eh]
	 SCS Correlation Energy    =      -2.0464195268096903 [Eh]
	 SCS Total Energy          =    -476.3398969640253995 [Eh]
	-----------------------------------------------------------

  Dipole Moment: [D]
     X:    -1.1043      Y:     2.0538      Z:     0.0001     Total:     2.3319

*** Psi4 exiting successfully. Buy a developer a beer!
