                               Psi4 1.4a3.dev225

  ==> Input File <==

--------------------------------------------------------------------------
#psi4
#
memory 32 gb

molecule  {
0 1
  O        3.0870850    -0.7380670     0.0000600
  N       -1.0742560    -1.1771330    -0.0000800
  C        0.9761220     0.0434820    -0.0000150
  C       -0.5081060     0.0430613    -0.0000038
  C        1.8814630     1.1555170    -0.0001020
  C       -1.2332690     1.2310260     0.0000830
  C        1.7670490    -1.0798270     0.0000780
  C       -2.6240280     1.1598410     0.0000810
  C        3.1400070     0.6275730    -0.0000460
  C       -3.2332050    -0.0939970     0.0000020
  C       -2.4150150    -1.2251180    -0.0000720
  H        1.6419750     2.2104320    -0.0002120
  H       -0.7317970     2.1947500     0.0001580
  H        1.5416230    -2.1350490     0.0001580
  H        4.1309200     1.0569280    -0.0000720
  H       -3.2210480     2.0687070     0.0001450
  H       -4.3145730    -0.1971740    -0.0000020
  H       -2.8500980    -2.2235110    -0.0001310
units angstrom
no_reorient  #important for SAPT in psi4, default
symmetry c1  #important for SAPT in psi4, default
}

set PROPERTIES_ORIGIN ["COM"]
properties('MP2/aug-cc-pvtz', properties = ['dipole'])
--------------------------------------------------------------------------

    Molecular point group: c1
  Charge       = 0
  Multiplicity = 1
  Basis Set: AUG-CC-PVTZ
    Blend: AUG-CC-PVTZ
  Basis Set: (AUG-CC-PVTZ AUX)
    Blend: AUG-CC-PVTZ-JKFIT

    Orbital Energies [Eh]
    ---------------------

    Doubly Occupied:

       1A    -20.627466     2A    -15.566093     3A    -11.292412
       4A    -11.292100     5A    -11.291703     6A    -11.280222
       7A    -11.264116     8A    -11.242815     9A    -11.241728
      10A    -11.239117    11A    -11.236351    12A     -1.457686
      13A     -1.262246    14A     -1.103014    15A     -1.090645
      16A     -1.034323    17A     -0.997671    18A     -0.873420
      19A     -0.865174    20A     -0.795354    21A     -0.776719
      22A     -0.744032    23A     -0.687763    24A     -0.664091
      25A     -0.646251    26A     -0.634514    27A     -0.606280
      28A     -0.585432    29A     -0.574753    30A     -0.571195
      31A     -0.550909    32A     -0.537125    33A     -0.518553
      34A     -0.424577    35A     -0.422747    36A     -0.384909
      37A     -0.348917    38A     -0.300011

  @DF-RHF Final Energy:  -474.33138644629020

   => Energetics <=

    Nuclear Repulsion Energy =            539.9144980079840934
    One-Electron Energy =               -1714.4268983201941410
    Two-Electron Energy =                 700.1810138659197946
    Total Energy =                       -474.3313864462902529
  Basis Set: (AUG-CC-PVTZ AUX)
    Blend: AUG-CC-PVTZ-RI
    Molecular point group: c1

    Geometry (in Angstrom), charge = 0, multiplicity = 1:

       Center              X                  Y                   Z               Mass
    ------------   -----------------  -----------------  -----------------  -----------------
         O            3.062857718455    -0.717717601878     0.000060370946    15.994914619570
         N           -1.098483281545    -1.156783601878    -0.000079629054    14.003074004430
         C            0.951894718455     0.063831398122    -0.000014629054    12.000000000000
         C           -0.532333281545     0.063410698122    -0.000003429054    12.000000000000
         C            1.857235718455     1.175866398122    -0.000101629054    12.000000000000
         C           -1.257496281545     1.251375398122     0.000083370946    12.000000000000
         C            1.742821718455    -1.059477601878     0.000078370946    12.000000000000
         C           -2.648255281545     1.180190398122     0.000081370946    12.000000000000
         C            3.115779718455     0.647922398122    -0.000045629054    12.000000000000
         C           -3.257432281545    -0.073647601878     0.000002370946    12.000000000000
         C           -2.439242281545    -1.204768601878    -0.000071629054    12.000000000000
         H            1.617747718455     2.230781398122    -0.000211629054     1.007825032230
         H           -0.756024281545     2.215099398122     0.000158370946     1.007825032230
         H            1.517395718455    -2.114699601878     0.000158370946     1.007825032230
         H            4.106692718455     1.077277398122    -0.000071629054     1.007825032230
         H           -3.245275281545     2.089056398122     0.000145370946     1.007825032230
         H           -4.338800281545    -0.176824601878    -0.000001629054     1.007825032230
         H           -2.874325281545    -2.203161601878    -0.000130629054     1.007825032230

  Basis Set: AUG-CC-PVTZ
    Blend: AUG-CC-PVTZ
  Basis Set: (AUG-CC-PVTZ AUX)
    Blend: AUG-CC-PVTZ-JKFIT
	 Reference Energy          =    -474.3313864462901961 [Eh]
	 Singles Energy            =      -0.0000000000000000 [Eh]
	 Same-Spin Energy          =      -0.5139225350030650 [Eh]
	 Opposite-Spin Energy      =      -1.5564950043474732 [Eh]
	 Correlation Energy        =      -2.0704175393505384 [Eh]
	 Total Energy              =    -476.4018039856407540 [Eh]

	 ================> DF-SCS-MP2 Energies <==================
	-----------------------------------------------------------
	 SCS Same-Spin Scale       =       0.3333333333333333 [-]
	 SCS Opposite-Spin Scale   =       1.2000000000000000 [-]
	 SCS Same-Spin Energy      =      -0.1713075116676883 [Eh]
	 SCS Opposite-Spin Energy  =      -1.8677940052169677 [Eh]
	 SCS Correlation Energy    =      -2.0391015168846560 [Eh]
	 SCS Total Energy          =    -476.3704879631748668 [Eh]
	-----------------------------------------------------------

  Dipole Moment: [D]
     X:    -1.4452      Y:     2.0223      Z:     0.0001     Total:     2.4856

*** Psi4 exiting successfully. Buy a developer a beer!
