                               Psi4 1.3.2 release

  ==> Input File <==

--------------------------------------------------------------------------
#psi4
#
memory 32 gb

molecule  {
0 1
  O        3.0870850    -0.7380670     0.0000600
  N       -1.0742560    -1.1771330    -0.0000800
  C        0.9758917     0.0690362    -0.0000132
  C       -0.4881060     0.0430670    -0.0000040
  C        1.8814630     1.1555170    -0.0001020
  C       -1.2332690     1.2310260     0.0000830
  C        1.7670490    -1.0798270     0.0000780
  C       -2.6240280     1.1598410     0.0000810
  C        3.1400070     0.6275730    -0.0000460
  C       -3.2332050    -0.0939970     0.0000020
  C       -2.4150150    -1.2251180    -0.0000720
  H        1.6419750     2.2104320    -0.0002120
  H       -0.7317970     2.1947500     0.0001580
  H        1.5416230    -2.1350490     0.0001580
  H        4.1309200     1.0569280    -0.0000720
  H       -3.2210480     2.0687070     0.0001450
  H       -4.3145730    -0.1971740    -0.0000020
  H       -2.8500980    -2.2235110    -0.0001310
units angstrom
no_reorient  #important for SAPT in psi4, default
symmetry c1  #important for SAPT in psi4, default
}

set PROPERTIES_ORIGIN ["COM"]
properties('MP2/aug-cc-pvtz', properties = ['dipole'])
--------------------------------------------------------------------------

    Molecular point group: c1
  Charge       = 0
  Multiplicity = 1
  Basis Set: AUG-CC-PVTZ
    Blend: AUG-CC-PVTZ
  Basis Set: (AUG-CC-PVTZ AUX)
    Blend: AUG-CC-PVTZ-JKFIT

    Orbital Energies [Eh]
    ---------------------

    Doubly Occupied:

       1A    -20.630809     2A    -15.565797     3A    -11.296589
       4A    -11.293002     5A    -11.292322     6A    -11.279592
       7A    -11.263014     8A    -11.242667     9A    -11.240787
      10A    -11.240188    11A    -11.236698    12A     -1.459693
      13A     -1.258363    14A     -1.107022    15A     -1.088407
      16A     -1.034966    17A     -0.995846    18A     -0.875728
      19A     -0.863207    20A     -0.794425    21A     -0.779935
      22A     -0.745078    23A     -0.687563    24A     -0.662331
      25A     -0.646252    26A     -0.635778    27A     -0.607426
      28A     -0.586128    29A     -0.577273    30A     -0.570345
      31A     -0.548838    32A     -0.537872    33A     -0.521814
      34A     -0.425705    35A     -0.421527    36A     -0.383959
      37A     -0.348857    38A     -0.295677

  @DF-RHF Final Energy:  -474.32886369697098

   => Energetics <=

    Nuclear Repulsion Energy =            539.8250737195909323
    One-Electron Energy =               -1714.2249127366076209
    Two-Electron Energy =                 700.0709753200458181
    Total Energy =                       -474.3288636969709842
  Basis Set: (AUG-CC-PVTZ AUX)
    Blend: AUG-CC-PVTZ-RI
    Molecular point group: c1

    Geometry (in Angstrom), charge = 0, multiplicity = 1:

       Center              X                  Y                   Z               Mass
    ------------   -----------------  -----------------  -----------------  -----------------
         O            3.061222200497    -0.719832134493     0.000060238580    15.994914619570
         N           -1.100118799503    -1.158898134493    -0.000079761420    14.003074004430
         C            0.950028900497     0.087271065507    -0.000012961420    12.000000000000
         C           -0.513968799503     0.061301865507    -0.000003761420    12.000000000000
         C            1.855600200497     1.173751865507    -0.000101761420    12.000000000000
         C           -1.259131799503     1.249260865507     0.000083238580    12.000000000000
         C            1.741186200497    -1.061592134493     0.000078238580    12.000000000000
         C           -2.649890799503     1.178075865507     0.000081238580    12.000000000000
         C            3.114144200497     0.645807865507    -0.000045761420    12.000000000000
         C           -3.259067799503    -0.075762134493     0.000002238580    12.000000000000
         C           -2.440877799503    -1.206883134493    -0.000071761420    12.000000000000
         H            1.616112200497     2.228666865507    -0.000211761420     1.007825032230
         H           -0.757659799503     2.212984865507     0.000158238580     1.007825032230
         H            1.515760200497    -2.116814134493     0.000158238580     1.007825032230
         H            4.105057200497     1.075162865507    -0.000071761420     1.007825032230
         H           -3.246910799503     2.086941865507     0.000145238580     1.007825032230
         H           -4.340435799503    -0.178939134493    -0.000001761420     1.007825032230
         H           -2.875960799503    -2.205276134493    -0.000130761420     1.007825032230

  Basis Set: AUG-CC-PVTZ
    Blend: AUG-CC-PVTZ
  Basis Set: (AUG-CC-PVTZ AUX)
    Blend: AUG-CC-PVTZ-JKFIT
	 Reference Energy          =    -474.3288636969709842 [Eh]
	 Singles Energy            =      -0.0000000000000000 [Eh]
	 Same-Spin Energy          =      -0.5148836740520675 [Eh]
	 Opposite-Spin Energy      =      -1.5578186447848927 [Eh]
	 Correlation Energy        =      -2.0727023188369600 [Eh]
	 Total Energy              =    -476.4015660158079299 [Eh]

	 ================> DF-SCS-MP2 Energies <==================
	-----------------------------------------------------------
	 SCS Same-Spin Scale       =       0.3333333333333333 [-]
	 SCS Opposite-Spin Scale   =       1.2000000000000000 [-]
	 SCS Same-Spin Energy      =      -0.1716278913506891 [Eh]
	 SCS Opposite-Spin Energy  =      -1.8693823737418711 [Eh]
	 SCS Correlation Energy    =      -2.0410102650925603 [Eh]
	 SCS Total Energy          =    -476.3698739620635365 [Eh]
	-----------------------------------------------------------

  Dipole Moment: [D]
     X:    -1.3186      Y:     2.0220      Z:     0.0001     Total:     2.4140

*** Psi4 exiting successfully. Buy a developer a beer!
