                               Psi4 1.4a3.dev225

  ==> Input File <==

--------------------------------------------------------------------------
#psi4
#
memory 32 gb

molecule  {
0 1
  O        3.0870850    -0.7380670     0.0000600
  N       -1.0742560    -1.1771330    -0.0000800
  C        0.9761220     0.0434820    -0.0000150
  C       -0.4881060     0.0430670    -0.0000040
  C        1.8814630     1.1555170    -0.0001020
  C       -1.2332690     1.2310260     0.0000830
  C        1.7670490    -1.0798270     0.0000780
  C       -2.6240280     1.1598410     0.0000810
  C        3.1400070     0.6275730    -0.0000460
  C       -3.2332050    -0.0939970     0.0000020
  C       -2.4150150    -1.2251180    -0.0000720
  H        1.6419750     2.2104320    -0.0002120
  H       -0.7317970     2.1947500     0.0001580
  H        1.5520688    -2.0861523     0.0001543
  H        4.1309200     1.0569280    -0.0000720
  H       -3.2210480     2.0687070     0.0001450
  H       -4.3145730    -0.1971740    -0.0000020
  H       -2.8500980    -2.2235110    -0.0001310
units angstrom
no_reorient  #important for SAPT in psi4, default
symmetry c1  #important for SAPT in psi4, default
}

set PROPERTIES_ORIGIN ["COM"]
properties('MP2/aug-cc-pvtz', properties = ['dipole'])
--------------------------------------------------------------------------

    Molecular point group: c1
  Charge       = 0
  Multiplicity = 1
  Basis Set: AUG-CC-PVTZ
    Blend: AUG-CC-PVTZ
  Basis Set: (AUG-CC-PVTZ AUX)
    Blend: AUG-CC-PVTZ-JKFIT

    Orbital Energies [Eh]
    ---------------------

    Doubly Occupied:

       1A    -20.628390     2A    -15.565854     3A    -11.293357
       4A    -11.292330     5A    -11.288491     6A    -11.279588
       7A    -11.263448     8A    -11.243485     9A    -11.241220
      10A    -11.239039    11A    -11.237122    12A     -1.458724
      13A     -1.258733    14A     -1.105527    15A     -1.088713
      16A     -1.034291    17A     -1.000383    18A     -0.876221
      19A     -0.863498    20A     -0.795992    21A     -0.783187
      22A     -0.747646    23A     -0.687688    24A     -0.662730
      25A     -0.646691    26A     -0.635532    27A     -0.611873
      28A     -0.586351    29A     -0.576227    30A     -0.571897
      31A     -0.549013    32A     -0.539239    33A     -0.520622
      34A     -0.424586    35A     -0.422235    36A     -0.383922
      37A     -0.348746    38A     -0.299124

  @DF-RHF Final Energy:  -474.33029529381469

   => Energetics <=

    Nuclear Repulsion Energy =            540.1466821928838726
    One-Electron Energy =               -1714.8505230552173089
    Two-Electron Energy =                 700.3735455685186935
    Total Energy =                       -474.3302952938147428
  Basis Set: (AUG-CC-PVTZ AUX)
    Blend: AUG-CC-PVTZ-RI
    Molecular point group: c1

    Geometry (in Angstrom), charge = 0, multiplicity = 1:

       Center              X                  Y                   Z               Mass
    ------------   -----------------  -----------------  -----------------  -----------------
         O            3.061130570815    -0.718057807173     0.000060413199    15.994914619570
         N           -1.100210429185    -1.157123807173    -0.000079586801    14.003074004430
         C            0.950167570815     0.063491192827    -0.000014586801    12.000000000000
         C           -0.514060429185     0.063076192827    -0.000003586801    12.000000000000
         C            1.855508570815     1.175526192827    -0.000101586801    12.000000000000
         C           -1.259223429185     1.251035192827     0.000083413199    12.000000000000
         C            1.741094570815    -1.059817807173     0.000078413199    12.000000000000
         C           -2.649982429185     1.179850192827     0.000081413199    12.000000000000
         C            3.114052570815     0.647582192827    -0.000045586801    12.000000000000
         C           -3.259159429185    -0.073987807173     0.000002413199    12.000000000000
         C           -2.440969429185    -1.205108807173    -0.000071586801    12.000000000000
         H            1.616020570815     2.230441192827    -0.000211586801     1.007825032230
         H           -0.757751429185     2.214759192827     0.000158413199     1.007825032230
         H            1.526114370815    -2.066143107173     0.000154713199     1.007825032230
         H            4.104965570815     1.076937192827    -0.000071586801     1.007825032230
         H           -3.247002429185     2.088716192827     0.000145413199     1.007825032230
         H           -4.340527429185    -0.177164807173    -0.000001586801     1.007825032230
         H           -2.876052429185    -2.203501807173    -0.000130586801     1.007825032230

  Basis Set: AUG-CC-PVTZ
    Blend: AUG-CC-PVTZ
  Basis Set: (AUG-CC-PVTZ AUX)
    Blend: AUG-CC-PVTZ-JKFIT
	 Reference Energy          =    -474.3302952938146859 [Eh]
	 Singles Energy            =      -0.0000000000000000 [Eh]
	 Same-Spin Energy          =      -0.5140693607881942 [Eh]
	 Opposite-Spin Energy      =      -1.5565659133989220 [Eh]
	 Correlation Energy        =      -2.0706352741871163 [Eh]
	 Total Energy              =    -476.4009305680017974 [Eh]

	 ================> DF-SCS-MP2 Energies <==================
	-----------------------------------------------------------
	 SCS Same-Spin Scale       =       0.3333333333333333 [-]
	 SCS Opposite-Spin Scale   =       1.2000000000000000 [-]
	 SCS Same-Spin Energy      =      -0.1713564535960647 [Eh]
	 SCS Opposite-Spin Energy  =      -1.8678790960787064 [Eh]
	 SCS Correlation Energy    =      -2.0392355496747712 [Eh]
	 SCS Total Energy          =    -476.3695308434894287 [Eh]
	-----------------------------------------------------------

  Dipole Moment: [D]
     X:    -1.3458      Y:     2.0393      Z:     0.0001     Total:     2.4433

*** Psi4 exiting successfully. Buy a developer a beer!
