                               Psi4 1.3.2 release

  ==> Input File <==

--------------------------------------------------------------------------
#psi4
#
memory 32 gb

molecule  {
0 1
  O        3.0870850    -0.7380670     0.0000600
  N       -1.0742560    -1.1771330    -0.0000800
  C        0.9761220     0.0434820    -0.0000150
  C       -0.4881060     0.0430670    -0.0000040
  C        1.8814630     1.1555170    -0.0001020
  C       -1.2332690     1.2310260     0.0000830
  C        1.7670490    -1.0798270     0.0000780
  C       -2.6240280     1.1598410     0.0000810
  C        3.2322221     0.5888899    -0.0000419
  C       -3.2332050    -0.0939970     0.0000020
  C       -2.4150150    -1.2251180    -0.0000720
  H        1.6419750     2.2104320    -0.0002120
  H       -0.7317970     2.1947500     0.0001580
  H        1.5416230    -2.1350490     0.0001580
  H        4.1309200     1.0569280    -0.0000720
  H       -3.2210480     2.0687070     0.0001450
  H       -4.3145730    -0.1971740    -0.0000020
  H       -2.8500980    -2.2235110    -0.0001310
units angstrom
no_reorient  #important for SAPT in psi4, default
symmetry c1  #important for SAPT in psi4, default
}

set PROPERTIES_ORIGIN ["COM"]
properties('MP2/aug-cc-pvtz', properties = ['dipole'])
--------------------------------------------------------------------------

    Molecular point group: c1
  Charge       = 0
  Multiplicity = 1
  Basis Set: AUG-CC-PVTZ
    Blend: AUG-CC-PVTZ
  Basis Set: (AUG-CC-PVTZ AUX)
    Blend: AUG-CC-PVTZ-JKFIT

    Orbital Energies [Eh]
    ---------------------

    Doubly Occupied:

       1A    -20.635811     2A    -15.566931     3A    -11.299337
       4A    -11.292936     5A    -11.292889     6A    -11.279925
       7A    -11.263713     8A    -11.245142     9A    -11.244189
      10A    -11.242157    11A    -11.241110    12A     -1.469577
      13A     -1.259467    14A     -1.100284    15A     -1.088866
      16A     -1.023423    17A     -1.002877    18A     -0.875678
      19A     -0.864963    20A     -0.800530    21A     -0.782106
      22A     -0.748520    23A     -0.688262    24A     -0.664536
      25A     -0.648310    26A     -0.640041    27A     -0.628246
      28A     -0.588821    29A     -0.575650    30A     -0.560500
      31A     -0.549846    32A     -0.528180    33A     -0.519935
      34A     -0.423093    35A     -0.422946    36A     -0.383197
      37A     -0.335227    38A     -0.297080

  @DF-RHF Final Energy:  -474.31436117314007

   => Energetics <=

    Nuclear Repulsion Energy =            538.6382425332999446
    One-Electron Energy =               -1711.7566027298919380
    Two-Electron Energy =                 698.8039990234519792
    Total Energy =                       -474.3143611731400142
  Basis Set: (AUG-CC-PVTZ AUX)
    Blend: AUG-CC-PVTZ-RI
    Molecular point group: c1

    Geometry (in Angstrom), charge = 0, multiplicity = 1:

       Center              X                  Y                   Z               Mass
    ------------   -----------------  -----------------  -----------------  -----------------
         O            3.053574329678    -0.714517877946     0.000060048305    15.994914619570
         N           -1.107766670322    -1.153583877946    -0.000079951695    14.003074004430
         C            0.942611329678     0.067031122054    -0.000014951695    12.000000000000
         C           -0.521616670322     0.066616122054    -0.000003951695    12.000000000000
         C            1.847952329678     1.179066122054    -0.000101951695    12.000000000000
         C           -1.266779670322     1.254575122054     0.000083048305    12.000000000000
         C            1.733538329678    -1.056277877946     0.000078048305    12.000000000000
         C           -2.657538670322     1.183390122054     0.000081048305    12.000000000000
         C            3.198711429678     0.612439022054    -0.000041851695    12.000000000000
         C           -3.266715670322    -0.070447877946     0.000002048305    12.000000000000
         C           -2.448525670322    -1.201568877946    -0.000071951695    12.000000000000
         H            1.608464329678     2.233981122054    -0.000211951695     1.007825032230
         H           -0.765307670322     2.218299122054     0.000158048305     1.007825032230
         H            1.508112329678    -2.111499877946     0.000158048305     1.007825032230
         H            4.097409329678     1.080477122054    -0.000071951695     1.007825032230
         H           -3.254558670322     2.092256122054     0.000145048305     1.007825032230
         H           -4.348083670322    -0.173624877946    -0.000001951695     1.007825032230
         H           -2.883608670322    -2.199961877946    -0.000130951695     1.007825032230

  Basis Set: AUG-CC-PVTZ
    Blend: AUG-CC-PVTZ
  Basis Set: (AUG-CC-PVTZ AUX)
    Blend: AUG-CC-PVTZ-JKFIT
	 Reference Energy          =    -474.3143611731400711 [Eh]
	 Singles Energy            =      -0.0000000000000000 [Eh]
	 Same-Spin Energy          =      -0.5157958147925132 [Eh]
	 Opposite-Spin Energy      =      -1.5592809116476141 [Eh]
	 Correlation Energy        =      -2.0750767264401273 [Eh]
	 Total Energy              =    -476.3894378995801731 [Eh]

	 ================> DF-SCS-MP2 Energies <==================
	-----------------------------------------------------------
	 SCS Same-Spin Scale       =       0.3333333333333333 [-]
	 SCS Opposite-Spin Scale   =       1.2000000000000000 [-]
	 SCS Same-Spin Energy      =      -0.1719319382641711 [Eh]
	 SCS Opposite-Spin Energy  =      -1.8711370939771368 [Eh]
	 SCS Correlation Energy    =      -2.0430690322413079 [Eh]
	 SCS Total Energy          =    -476.3574302053813767 [Eh]
	-----------------------------------------------------------

  Dipole Moment: [D]
     X:    -1.3441      Y:     1.8803      Z:     0.0001     Total:     2.3113

*** Psi4 exiting successfully. Buy a developer a beer!
