                               Psi4 1.4a3.dev225

  ==> Input File <==

--------------------------------------------------------------------------
#psi4
#
memory 32 gb

molecule  {
0 1
  O        3.0870850    -0.7380670     0.0000600
  N       -1.0742560    -1.1771330    -0.0000800
  C        0.9761220     0.0434820    -0.0000150
  C       -0.4881060     0.0430670    -0.0000040
  C        1.8940901     1.1710269    -0.0001032
  C       -1.2332690     1.2310260     0.0000830
  C        1.7670490    -1.0798270     0.0000780
  C       -2.6240280     1.1598410     0.0000810
  C        3.1400070     0.6275730    -0.0000460
  C       -3.2332050    -0.0939970     0.0000020
  C       -2.4150150    -1.2251180    -0.0000720
  H        1.6419750     2.2104320    -0.0002120
  H       -0.7317970     2.1947500     0.0001580
  H        1.5416230    -2.1350490     0.0001580
  H        4.1309200     1.0569280    -0.0000720
  H       -3.2210480     2.0687070     0.0001450
  H       -4.3145730    -0.1971740    -0.0000020
  H       -2.8500980    -2.2235110    -0.0001310
units angstrom
no_reorient  #important for SAPT in psi4, default
symmetry c1  #important for SAPT in psi4, default
}

set PROPERTIES_ORIGIN ["COM"]
properties('MP2/aug-cc-pvtz', properties = ['dipole'])
--------------------------------------------------------------------------

    Molecular point group: c1
  Charge       = 0
  Multiplicity = 1
  Basis Set: AUG-CC-PVTZ
    Blend: AUG-CC-PVTZ
  Basis Set: (AUG-CC-PVTZ AUX)
    Blend: AUG-CC-PVTZ-JKFIT

    Orbital Energies [Eh]
    ---------------------

    Doubly Occupied:

       1A    -20.628176     2A    -15.565511     3A    -11.294077
       4A    -11.293605     5A    -11.292200     6A    -11.279420
       7A    -11.263288     8A    -11.243297     9A    -11.240961
      10A    -11.240404    11A    -11.237418    12A     -1.458588
      13A     -1.258440    14A     -1.103019    15A     -1.088457
      16A     -1.034388    17A     -0.998543    18A     -0.875509
      19A     -0.863208    20A     -0.797532    21A     -0.776346
      22A     -0.745093    23A     -0.686939    24A     -0.662695
      25A     -0.646863    26A     -0.635564    27A     -0.606895
      28A     -0.585280    29A     -0.577265    30A     -0.572698
      31A     -0.548755    32A     -0.536167    33A     -0.519404
      34A     -0.423092    35A     -0.421862    36A     -0.383711
      37A     -0.349918    38A     -0.299558

  @DF-RHF Final Energy:  -474.33137125613786

   => Energetics <=

    Nuclear Repulsion Energy =            539.5480388771252365
    One-Electron Energy =               -1713.6905314381203880
    Two-Electron Energy =                 699.8111213048572381
    Total Energy =                       -474.3313712561379134
  Basis Set: (AUG-CC-PVTZ AUX)
    Blend: AUG-CC-PVTZ-RI
    Molecular point group: c1

    Geometry (in Angstrom), charge = 0, multiplicity = 1:

       Center              X                  Y                   Z               Mass
    ------------   -----------------  -----------------  -----------------  -----------------
         O            3.060158526867    -0.719001184452     0.000060486766    15.994914619570
         N           -1.101182473133    -1.158067184452    -0.000079513234    14.003074004430
         C            0.949195526867     0.062547815548    -0.000014513234    12.000000000000
         C           -0.515032473133     0.062132815548    -0.000003513234    12.000000000000
         C            1.867163626867     1.190092715548    -0.000102713234    12.000000000000
         C           -1.260195473133     1.250091815548     0.000083486766    12.000000000000
         C            1.740122526867    -1.060761184452     0.000078486766    12.000000000000
         C           -2.650954473133     1.178906815548     0.000081486766    12.000000000000
         C            3.113080526867     0.646638815548    -0.000045513234    12.000000000000
         C           -3.260131473133    -0.074931184452     0.000002486766    12.000000000000
         C           -2.441941473133    -1.206052184452    -0.000071513234    12.000000000000
         H            1.615048526867     2.229497815548    -0.000211513234     1.007825032230
         H           -0.758723473133     2.213815815548     0.000158486766     1.007825032230
         H            1.514696526867    -2.115983184452     0.000158486766     1.007825032230
         H            4.103993526867     1.075993815548    -0.000071513234     1.007825032230
         H           -3.247974473133     2.087772815548     0.000145486766     1.007825032230
         H           -4.341499473133    -0.178108184452    -0.000001513234     1.007825032230
         H           -2.877024473133    -2.204445184452    -0.000130513234     1.007825032230

  Basis Set: AUG-CC-PVTZ
    Blend: AUG-CC-PVTZ
  Basis Set: (AUG-CC-PVTZ AUX)
    Blend: AUG-CC-PVTZ-JKFIT
	 Reference Energy          =    -474.3313712561378566 [Eh]
	 Singles Energy            =      -0.0000000000000000 [Eh]
	 Same-Spin Energy          =      -0.5137934398074417 [Eh]
	 Opposite-Spin Energy      =      -1.5565600016635823 [Eh]
	 Correlation Energy        =      -2.0703534414710241 [Eh]
	 Total Energy              =    -476.4017246976088700 [Eh]

	 ================> DF-SCS-MP2 Energies <==================
	-----------------------------------------------------------
	 SCS Same-Spin Scale       =       0.3333333333333333 [-]
	 SCS Opposite-Spin Scale   =       1.2000000000000000 [-]
	 SCS Same-Spin Energy      =      -0.1712644799358139 [Eh]
	 SCS Opposite-Spin Energy  =      -1.8678720019962987 [Eh]
	 SCS Correlation Energy    =      -2.0391364819321125 [Eh]
	 SCS Total Energy          =    -476.3705077380699890 [Eh]
	-----------------------------------------------------------

  Dipole Moment: [D]
     X:    -1.3387      Y:     2.0252      Z:     0.0001     Total:     2.4276

*** Psi4 exiting successfully. Buy a developer a beer!
