                               Psi4 1.3.2 release

  ==> Input File <==

--------------------------------------------------------------------------
#psi4
#
memory 32 gb

molecule  {
0 1
  O        3.0870850    -0.7380670     0.0000600
  N       -1.0742560    -1.1771330    -0.0000800
  C        0.9761220     0.0434820    -0.0000150
  C       -0.4881060     0.0430670    -0.0000040
  C        1.8814630     1.1555170    -0.0001020
  C       -1.2332690     1.2310260     0.0000830
  C        1.7670490    -1.0798270     0.0000780
  C       -2.6240280     1.1598410     0.0000810
  C        3.1576653     0.6718172    -0.0000506
  C       -3.2332050    -0.0939970     0.0000020
  C       -2.4150150    -1.2251180    -0.0000720
  H        1.6419750     2.2104320    -0.0002120
  H       -0.7317970     2.1947500     0.0001580
  H        1.5416230    -2.1350490     0.0001580
  H        4.1309200     1.0569280    -0.0000720
  H       -3.2210480     2.0687070     0.0001450
  H       -4.3145730    -0.1971740    -0.0000020
  H       -2.8500980    -2.2235110    -0.0001310
units angstrom
no_reorient  #important for SAPT in psi4, default
symmetry c1  #important for SAPT in psi4, default
}

set PROPERTIES_ORIGIN ["COM"]
properties('MP2/aug-cc-pvtz', properties = ['dipole'])
--------------------------------------------------------------------------

    Molecular point group: c1
  Charge       = 0
  Multiplicity = 1
  Basis Set: AUG-CC-PVTZ
    Blend: AUG-CC-PVTZ
  Basis Set: (AUG-CC-PVTZ AUX)
    Blend: AUG-CC-PVTZ-JKFIT

    Orbital Energies [Eh]
    ---------------------

    Doubly Occupied:

       1A    -20.623022     2A    -15.565425     3A    -11.296921
       4A    -11.292747     5A    -11.292571     6A    -11.279486
       7A    -11.263281     8A    -11.243022     9A    -11.242149
      10A    -11.240692    11A    -11.238331    12A     -1.441222
      13A     -1.258489    14A     -1.104241    15A     -1.088432
      16A     -1.034447    17A     -0.996927    18A     -0.873539
      19A     -0.863298    20A     -0.795742    21A     -0.780546
      22A     -0.743665    23A     -0.686409    24A     -0.662671
      25A     -0.644928    26A     -0.625609    27A     -0.610633
      28A     -0.586045    29A     -0.574663    30A     -0.568559
      31A     -0.548472    32A     -0.538560    33A     -0.520790
      34A     -0.424078    35A     -0.421889    36A     -0.384032
      37A     -0.351354    38A     -0.298531

  @DF-RHF Final Energy:  -474.32725496816647

   => Energetics <=

    Nuclear Repulsion Energy =            538.9727445655196334
    One-Electron Energy =               -1712.5891624315456738
    Two-Electron Energy =                 699.2891628978595691
    Total Energy =                       -474.3272549681664714
  Basis Set: (AUG-CC-PVTZ AUX)
    Blend: AUG-CC-PVTZ-RI
    Molecular point group: c1

    Geometry (in Angstrom), charge = 0, multiplicity = 1:

       Center              X                  Y                   Z               Mass
    ------------   -----------------  -----------------  -----------------  -----------------
         O            3.059742303153    -0.721378330471     0.000060768043    15.994914619570
         N           -1.101598696847    -1.160444330471    -0.000079231957    14.003074004430
         C            0.948779303153     0.060170669529    -0.000014231957    12.000000000000
         C           -0.515448696847     0.059755669529    -0.000003231957    12.000000000000
         C            1.854120303153     1.172205669529    -0.000101231957    12.000000000000
         C           -1.260611696847     1.247714669529     0.000083768043    12.000000000000
         C            1.739706303153    -1.063138330471     0.000078768043    12.000000000000
         C           -2.651370696847     1.176529669529     0.000081768043    12.000000000000
         C            3.130322603153     0.688505869529    -0.000049831957    12.000000000000
         C           -3.260547696847    -0.077308330471     0.000002768043    12.000000000000
         C           -2.442357696847    -1.208429330471    -0.000071231957    12.000000000000
         H            1.614632303153     2.227120669529    -0.000211231957     1.007825032230
         H           -0.759139696847     2.211438669529     0.000158768043     1.007825032230
         H            1.514280303153    -2.118360330471     0.000158768043     1.007825032230
         H            4.103577303153     1.073616669529    -0.000071231957     1.007825032230
         H           -3.248390696847     2.085395669529     0.000145768043     1.007825032230
         H           -4.341915696847    -0.180485330471    -0.000001231957     1.007825032230
         H           -2.877440696847    -2.206822330471    -0.000130231957     1.007825032230

  Basis Set: AUG-CC-PVTZ
    Blend: AUG-CC-PVTZ
  Basis Set: (AUG-CC-PVTZ AUX)
    Blend: AUG-CC-PVTZ-JKFIT
	 Reference Energy          =    -474.3272549681664714 [Eh]
	 Singles Energy            =      -0.0000000000000000 [Eh]
	 Same-Spin Energy          =      -0.5142536837652320 [Eh]
	 Opposite-Spin Energy      =      -1.5579190057252772 [Eh]
	 Correlation Energy        =      -2.0721726894905093 [Eh]
	 Total Energy              =    -476.3994276576569860 [Eh]

	 ================> DF-SCS-MP2 Energies <==================
	-----------------------------------------------------------
	 SCS Same-Spin Scale       =       0.3333333333333333 [-]
	 SCS Opposite-Spin Scale   =       1.2000000000000000 [-]
	 SCS Same-Spin Energy      =      -0.1714178945884106 [Eh]
	 SCS Opposite-Spin Energy  =      -1.8695028068703325 [Eh]
	 SCS Correlation Energy    =      -2.0409207014587434 [Eh]
	 SCS Total Energy          =    -476.3681756696252023 [Eh]
	-----------------------------------------------------------

  Dipole Moment: [D]
     X:    -1.3439      Y:     2.0918      Z:     0.0001     Total:     2.4863

*** Psi4 exiting successfully. Buy a developer a beer!
