                               Psi4 1.3.2 release

  ==> Input File <==

--------------------------------------------------------------------------
#psi4
#
memory 32 gb

molecule  {
0 1
  O        3.0870850    -0.7380670     0.0000600
  N       -1.0742560    -1.1771330    -0.0000800
  C        0.9566380     0.0295073    -0.0000141
  C       -0.4881060     0.0430670    -0.0000040
  C        1.8814630     1.1555170    -0.0001020
  C       -1.2332690     1.2310260     0.0000830
  C        1.7670490    -1.0798270     0.0000780
  C       -2.6240280     1.1598410     0.0000810
  C        3.1400070     0.6275730    -0.0000460
  C       -3.2332050    -0.0939970     0.0000020
  C       -2.4150150    -1.2251180    -0.0000720
  H        1.6419750     2.2104320    -0.0002120
  H       -0.7317970     2.1947500     0.0001580
  H        1.5416230    -2.1350490     0.0001580
  H        4.1309200     1.0569280    -0.0000720
  H       -3.2210480     2.0687070     0.0001450
  H       -4.3145730    -0.1971740    -0.0000020
  H       -2.8500980    -2.2235110    -0.0001310
units angstrom
no_reorient  #important for SAPT in psi4, default
symmetry c1  #important for SAPT in psi4, default
}

set PROPERTIES_ORIGIN ["COM"]
properties('MP2/aug-cc-pvtz', properties = ['dipole'])
--------------------------------------------------------------------------

    Molecular point group: c1
  Charge       = 0
  Multiplicity = 1
  Basis Set: AUG-CC-PVTZ
    Blend: AUG-CC-PVTZ
  Basis Set: (AUG-CC-PVTZ AUX)
    Blend: AUG-CC-PVTZ-JKFIT

    Orbital Energies [Eh]
    ---------------------

    Doubly Occupied:

       1A    -20.628695     2A    -15.565331     3A    -11.295269
       4A    -11.293648     5A    -11.291027     6A    -11.279368
       7A    -11.263472     8A    -11.243650     9A    -11.241107
      10A    -11.239891    11A    -11.238839    12A     -1.458723
      13A     -1.259251    14A     -1.104194    15A     -1.088610
      16A     -1.033353    17A     -0.998705    18A     -0.878050
      19A     -0.863806    20A     -0.796168    21A     -0.776210
      22A     -0.745014    23A     -0.687117    24A     -0.662932
      25A     -0.647735    26A     -0.635642    27A     -0.607212
      28A     -0.586775    29A     -0.574484    30A     -0.571633
      31A     -0.549651    32A     -0.535871    33A     -0.520041
      34A     -0.424259    35A     -0.422407    36A     -0.383631
      37A     -0.348862    38A     -0.299045

  @DF-RHF Final Energy:  -474.33046228297997

   => Energetics <=

    Nuclear Repulsion Energy =            539.8875948483874936
    One-Electron Energy =               -1714.3567604424554247
    Two-Electron Energy =                 700.1387033110878519
    Total Energy =                       -474.3304622829799655
  Basis Set: (AUG-CC-PVTZ AUX)
    Blend: AUG-CC-PVTZ-RI
    Molecular point group: c1

    Geometry (in Angstrom), charge = 0, multiplicity = 1:

       Center              X                  Y                   Z               Mass
    ------------   -----------------  -----------------  -----------------  -----------------
         O            3.062815030540    -0.716561967228     0.000060313036    15.994914619570
         N           -1.098525969460    -1.155627967228    -0.000079686964    14.003074004430
         C            0.932368030540     0.051012332772    -0.000013786964    12.000000000000
         C           -0.512375969460     0.064572032772    -0.000003686964    12.000000000000
         C            1.857193030540     1.177022032772    -0.000101686964    12.000000000000
         C           -1.257538969460     1.252531032772     0.000083313036    12.000000000000
         C            1.742779030540    -1.058321967228     0.000078313036    12.000000000000
         C           -2.648297969460     1.181346032772     0.000081313036    12.000000000000
         C            3.115737030540     0.649078032772    -0.000045686964    12.000000000000
         C           -3.257474969460    -0.072491967228     0.000002313036    12.000000000000
         C           -2.439284969460    -1.203612967228    -0.000071686964    12.000000000000
         H            1.617705030540     2.231937032772    -0.000211686964     1.007825032230
         H           -0.756066969460     2.216255032772     0.000158313036     1.007825032230
         H            1.517353030540    -2.113543967228     0.000158313036     1.007825032230
         H            4.106650030540     1.078433032772    -0.000071686964     1.007825032230
         H           -3.245317969460     2.090212032772     0.000145313036     1.007825032230
         H           -4.338842969460    -0.175668967228    -0.000001686964     1.007825032230
         H           -2.874367969460    -2.202005967228    -0.000130686964     1.007825032230

  Basis Set: AUG-CC-PVTZ
    Blend: AUG-CC-PVTZ
  Basis Set: (AUG-CC-PVTZ AUX)
    Blend: AUG-CC-PVTZ-JKFIT
	 Reference Energy          =    -474.3304622829799655 [Eh]
	 Singles Energy            =      -0.0000000000000000 [Eh]
	 Same-Spin Energy          =      -0.5140774285195788 [Eh]
	 Opposite-Spin Energy      =      -1.5570317749467777 [Eh]
	 Correlation Energy        =      -2.0711092034663565 [Eh]
	 Total Energy              =    -476.4015714864463007 [Eh]

	 ================> DF-SCS-MP2 Energies <==================
	-----------------------------------------------------------
	 SCS Same-Spin Scale       =       0.3333333333333333 [-]
	 SCS Opposite-Spin Scale   =       1.2000000000000000 [-]
	 SCS Same-Spin Energy      =      -0.1713591428398596 [Eh]
	 SCS Opposite-Spin Energy  =      -1.8684381299361332 [Eh]
	 SCS Correlation Energy    =      -2.0397972727759930 [Eh]
	 SCS Total Energy          =    -476.3702595557559789 [Eh]
	-----------------------------------------------------------

  Dipole Moment: [D]
     X:    -1.3391      Y:     2.0190      Z:     0.0001     Total:     2.4227

*** Psi4 exiting successfully. Buy a developer a beer!
