                               Psi4 1.3.2 release

  ==> Input File <==

--------------------------------------------------------------------------
#psi4
#
memory 32 gb

molecule  {
0 1
  O        3.0870850    -0.7380670     0.0000600
  N       -1.0742560    -1.1771330    -0.0000800
  C        0.9761220     0.0434820    -0.0000150
  C       -0.4878757     0.0175128    -0.0000018
  C        1.8814630     1.1555170    -0.0001020
  C       -1.2332690     1.2310260     0.0000830
  C        1.7670490    -1.0798270     0.0000780
  C       -2.6240280     1.1598410     0.0000810
  C        3.1400070     0.6275730    -0.0000460
  C       -3.2332050    -0.0939970     0.0000020
  C       -2.4150150    -1.2251180    -0.0000720
  H        1.6419750     2.2104320    -0.0002120
  H       -0.7317970     2.1947500     0.0001580
  H        1.5416230    -2.1350490     0.0001580
  H        4.1309200     1.0569280    -0.0000720
  H       -3.2210480     2.0687070     0.0001450
  H       -4.3145730    -0.1971740    -0.0000020
  H       -2.8500980    -2.2235110    -0.0001310
units angstrom
no_reorient  #important for SAPT in psi4, default
symmetry c1  #important for SAPT in psi4, default
}

set PROPERTIES_ORIGIN ["COM"]
properties('MP2/aug-cc-pvtz', properties = ['dipole'])
--------------------------------------------------------------------------

    Molecular point group: c1
  Charge       = 0
  Multiplicity = 1
  Basis Set: AUG-CC-PVTZ
    Blend: AUG-CC-PVTZ
  Basis Set: (AUG-CC-PVTZ AUX)
    Blend: AUG-CC-PVTZ-JKFIT

    Orbital Energies [Eh]
    ---------------------

    Doubly Occupied:

       1A    -20.628841     2A    -15.564002     3A    -11.293823
       4A    -11.293755     5A    -11.293053     6A    -11.279273
       7A    -11.262432     8A    -11.244966     9A    -11.240768
      10A    -11.239122    11A    -11.237931    12A     -1.459117
      13A     -1.263749    14A     -1.105572    15A     -1.088633
      16A     -1.032884    17A     -0.997951    18A     -0.875084
      19A     -0.863861    20A     -0.797059    21A     -0.777064
      22A     -0.745031    23A     -0.688374    24A     -0.662087
      25A     -0.646395    26A     -0.635927    27A     -0.606634
      28A     -0.584529    29A     -0.576202    30A     -0.571861
      31A     -0.550504    32A     -0.537816    33A     -0.523008
      34A     -0.424798    35A     -0.420056    36A     -0.385010
      37A     -0.347594    38A     -0.298790

  @DF-RHF Final Energy:  -474.33110901640583

   => Energetics <=

    Nuclear Repulsion Energy =            539.9597996570264513
    One-Electron Energy =               -1714.4947106000697659
    Two-Electron Energy =                 700.2038019266374249
    Total Energy =                       -474.3311090164058896
  Basis Set: (AUG-CC-PVTZ AUX)
    Blend: AUG-CC-PVTZ-RI
    Molecular point group: c1

    Geometry (in Angstrom), charge = 0, multiplicity = 1:

       Center              X                  Y                   Z               Mass
    ------------   -----------------  -----------------  -----------------  -----------------
         O            3.061184095743    -0.715604012369     0.000060205489    15.994914619570
         N           -1.100156904257    -1.154670012369    -0.000079794511    14.003074004430
         C            0.950221095743     0.065944987631    -0.000014794511    12.000000000000
         C           -0.513776604257     0.039975787631    -0.000001594511    12.000000000000
         C            1.855562095743     1.177979987631    -0.000101794511    12.000000000000
         C           -1.259169904257     1.253488987631     0.000083205489    12.000000000000
         C            1.741148095743    -1.057364012369     0.000078205489    12.000000000000
         C           -2.649928904257     1.182303987631     0.000081205489    12.000000000000
         C            3.114106095743     0.650035987631    -0.000045794511    12.000000000000
         C           -3.259105904257    -0.071534012369     0.000002205489    12.000000000000
         C           -2.440915904257    -1.202655012369    -0.000071794511    12.000000000000
         H            1.616074095743     2.232894987631    -0.000211794511     1.007825032230
         H           -0.757697904257     2.217212987631     0.000158205489     1.007825032230
         H            1.515722095743    -2.112586012369     0.000158205489     1.007825032230
         H            4.105019095743     1.079390987631    -0.000071794511     1.007825032230
         H           -3.246948904257     2.091169987631     0.000145205489     1.007825032230
         H           -4.340473904257    -0.174711012369    -0.000001794511     1.007825032230
         H           -2.875998904257    -2.201048012369    -0.000130794511     1.007825032230

  Basis Set: AUG-CC-PVTZ
    Blend: AUG-CC-PVTZ
  Basis Set: (AUG-CC-PVTZ AUX)
    Blend: AUG-CC-PVTZ-JKFIT
	 Reference Energy          =    -474.3311090164058328 [Eh]
	 Singles Energy            =      -0.0000000000000000 [Eh]
	 Same-Spin Energy          =      -0.5140241047590248 [Eh]
	 Opposite-Spin Energy      =      -1.5565067129877153 [Eh]
	 Correlation Energy        =      -2.0705308177467403 [Eh]
	 Total Energy              =    -476.4016398341525473 [Eh]

	 ================> DF-SCS-MP2 Energies <==================
	-----------------------------------------------------------
	 SCS Same-Spin Scale       =       0.3333333333333333 [-]
	 SCS Opposite-Spin Scale   =       1.2000000000000000 [-]
	 SCS Same-Spin Energy      =      -0.1713413682530083 [Eh]
	 SCS Opposite-Spin Energy  =      -1.8678080555852583 [Eh]
	 SCS Correlation Energy    =      -2.0391494238382668 [Eh]
	 SCS Total Energy          =    -476.3702584402440721 [Eh]
	-----------------------------------------------------------

  Dipole Moment: [D]
     X:    -1.3089      Y:     2.0122      Z:     0.0001     Total:     2.4005

*** Psi4 exiting successfully. Buy a developer a beer!
