                               Psi4 1.3.2 release

  ==> Input File <==

--------------------------------------------------------------------------
#psi4
#
memory 32 gb

molecule  {
0 1
  O        3.1824761    -0.7384320     0.0000607
  N       -1.0742560    -1.1771330    -0.0000800
  C        0.9761220     0.0434820    -0.0000150
  C       -0.4881060     0.0430670    -0.0000040
  C        1.8814630     1.1555170    -0.0001020
  C       -1.2332690     1.2310260     0.0000830
  C        1.7670490    -1.0798270     0.0000780
  C       -2.6240280     1.1598410     0.0000810
  C        3.1400070     0.6275730    -0.0000460
  C       -3.2332050    -0.0939970     0.0000020
  C       -2.4150150    -1.2251180    -0.0000720
  H        1.6419750     2.2104320    -0.0002120
  H       -0.7317970     2.1947500     0.0001580
  H        1.5416230    -2.1350490     0.0001580
  H        4.1309200     1.0569280    -0.0000720
  H       -3.2210480     2.0687070     0.0001450
  H       -4.3145730    -0.1971740    -0.0000020
  H       -2.8500980    -2.2235110    -0.0001310
units angstrom
no_reorient  #important for SAPT in psi4, default
symmetry c1  #important for SAPT in psi4, default
}

set PROPERTIES_ORIGIN ["COM"]
properties('MP2/aug-cc-pvtz', properties = ['dipole'])
--------------------------------------------------------------------------

    Molecular point group: c1
  Charge       = 0
  Multiplicity = 1
  Basis Set: AUG-CC-PVTZ
    Blend: AUG-CC-PVTZ
  Basis Set: (AUG-CC-PVTZ AUX)
    Blend: AUG-CC-PVTZ-JKFIT

    Orbital Energies [Eh]
    ---------------------

    Doubly Occupied:

       1A    -20.625747     2A    -15.569649     3A    -11.297439
       4A    -11.296001     5A    -11.295885     6A    -11.282272
       7A    -11.266260     8A    -11.248312     9A    -11.247626
      10A    -11.245032    11A    -11.236093    12A     -1.429024
      13A     -1.262163    14A     -1.110968    15A     -1.091955
      16A     -1.034589    17A     -0.988190    18A     -0.877215
      19A     -0.865241    20A     -0.791084    21A     -0.778391
      22A     -0.738724    23A     -0.687644    24A     -0.665763
      25A     -0.646897    26A     -0.618791    27A     -0.595067
      28A     -0.589435    29A     -0.576416    30A     -0.566787
      31A     -0.551837    32A     -0.542244    33A     -0.523730
      34A     -0.429829    35A     -0.425437    36A     -0.386512
      37A     -0.348027    38A     -0.302225

  @DF-RHF Final Energy:  -474.31933628762908

   => Energetics <=

    Nuclear Repulsion Energy =            537.3006535476645240
    One-Electron Energy =               -1709.1709736324798996
    Two-Electron Energy =                 697.5509837971862908
    Total Energy =                       -474.3193362876290848
  Basis Set: (AUG-CC-PVTZ AUX)
    Blend: AUG-CC-PVTZ-RI
    Molecular point group: c1

    Geometry (in Angstrom), charge = 0, multiplicity = 1:

       Center              X                  Y                   Z               Mass
    ------------   -----------------  -----------------  -----------------  -----------------
         O            3.146075506805    -0.718042825016     0.000061010303    15.994914619570
         N           -1.110656593195    -1.156743825016    -0.000079689697    14.003074004430
         C            0.939721406805     0.063871174984    -0.000014689697    12.000000000000
         C           -0.524506593195     0.063456174984    -0.000003689697    12.000000000000
         C            1.845062406805     1.175906174984    -0.000101689697    12.000000000000
         C           -1.269669593195     1.251415174984     0.000083310303    12.000000000000
         C            1.730648406805    -1.059437825016     0.000078310303    12.000000000000
         C           -2.660428593195     1.180230174984     0.000081310303    12.000000000000
         C            3.103606406805     0.647962174984    -0.000045689697    12.000000000000
         C           -3.269605593195    -0.073607825016     0.000002310303    12.000000000000
         C           -2.451415593195    -1.204728825016    -0.000071689697    12.000000000000
         H            1.605574406805     2.230821174984    -0.000211689697     1.007825032230
         H           -0.768197593195     2.215139174984     0.000158310303     1.007825032230
         H            1.505222406805    -2.114659825016     0.000158310303     1.007825032230
         H            4.094519406805     1.077317174984    -0.000071689697     1.007825032230
         H           -3.257448593195     2.089096174984     0.000145310303     1.007825032230
         H           -4.350973593195    -0.176784825016    -0.000001689697     1.007825032230
         H           -2.886498593195    -2.203121825016    -0.000130689697     1.007825032230

  Basis Set: AUG-CC-PVTZ
    Blend: AUG-CC-PVTZ
  Basis Set: (AUG-CC-PVTZ AUX)
    Blend: AUG-CC-PVTZ-JKFIT
	 Reference Energy          =    -474.3193362876290848 [Eh]
	 Singles Energy            =      -0.0000000000000000 [Eh]
	 Same-Spin Energy          =      -0.5146113978642927 [Eh]
	 Opposite-Spin Energy      =      -1.5603743850071929 [Eh]
	 Correlation Energy        =      -2.0749857828714857 [Eh]
	 Total Energy              =    -476.3943220705005501 [Eh]

	 ================> DF-SCS-MP2 Energies <==================
	-----------------------------------------------------------
	 SCS Same-Spin Scale       =       0.3333333333333333 [-]
	 SCS Opposite-Spin Scale   =       1.2000000000000000 [-]
	 SCS Same-Spin Energy      =      -0.1715371326214309 [Eh]
	 SCS Opposite-Spin Energy  =      -1.8724492620086315 [Eh]
	 SCS Correlation Energy    =      -2.0439863946300623 [Eh]
	 SCS Total Energy          =    -476.3633226822591382 [Eh]
	-----------------------------------------------------------

  Dipole Moment: [D]
     X:    -1.7977      Y:     2.0742      Z:     0.0001     Total:     2.7448

*** Psi4 exiting successfully. Buy a developer a beer!
