                               Psi4 1.3.2 release

  ==> Input File <==

--------------------------------------------------------------------------
#psi4
#
memory 32 gb

molecule  {
0 1
  O        3.0870850    -0.7380670     0.0000600
  N       -1.0742560    -1.1771330    -0.0000800
  C        0.9761220     0.0434820    -0.0000150
  C       -0.4881060     0.0430670    -0.0000040
  C        1.8814630     1.1555170    -0.0001020
  C       -1.2332690     1.2310260     0.0000830
  C        1.7670490    -1.0798270     0.0000780
  C       -2.6240280     1.1598410     0.0000810
  C        3.0477919     0.6662561    -0.0000501
  C       -3.2332050    -0.0939970     0.0000020
  C       -2.4150150    -1.2251180    -0.0000720
  H        1.6419750     2.2104320    -0.0002120
  H       -0.7317970     2.1947500     0.0001580
  H        1.5416230    -2.1350490     0.0001580
  H        4.1309200     1.0569280    -0.0000720
  H       -3.2210480     2.0687070     0.0001450
  H       -4.3145730    -0.1971740    -0.0000020
  H       -2.8500980    -2.2235110    -0.0001310
units angstrom
no_reorient  #important for SAPT in psi4, default
symmetry c1  #important for SAPT in psi4, default
}

set PROPERTIES_ORIGIN ["COM"]
properties('MP2/aug-cc-pvtz', properties = ['dipole'])
--------------------------------------------------------------------------

    Molecular point group: c1
  Charge       = 0
  Multiplicity = 1
  Basis Set: AUG-CC-PVTZ
    Blend: AUG-CC-PVTZ
  Basis Set: (AUG-CC-PVTZ AUX)
    Blend: AUG-CC-PVTZ-JKFIT

    Orbital Energies [Eh]
    ---------------------

    Doubly Occupied:

       1A    -20.621786     2A    -15.564554     3A    -11.295155
       4A    -11.291867     5A    -11.287439     6A    -11.279154
       7A    -11.263101     8A    -11.242694     9A    -11.240143
      10A    -11.237506    11A    -11.227464    12A     -1.447449
      13A     -1.257894    14A     -1.118517    15A     -1.088327
      16A     -1.045732    17A     -0.993761    18A     -0.874716
      19A     -0.861582    20A     -0.794588    21A     -0.774421
      22A     -0.741383    23A     -0.685838    24A     -0.661274
      25A     -0.647135    26A     -0.632097    27A     -0.591694
      28A     -0.586827    29A     -0.576506    30A     -0.566635
      31A     -0.548066    32A     -0.542473    33A     -0.518290
      34A     -0.430062    35A     -0.421103    36A     -0.386286
      37A     -0.363390    38A     -0.298932

  @DF-RHF Final Energy:  -474.31746758690110

   => Energetics <=

    Nuclear Repulsion Energy =            541.2377870713067978
    One-Electron Energy =               -1717.0988250281943692
    Two-Electron Energy =                 701.5435703699865826
    Total Energy =                       -474.3174675869011025
  Basis Set: (AUG-CC-PVTZ AUX)
    Blend: AUG-CC-PVTZ-RI
    Molecular point group: c1

    Geometry (in Angstrom), charge = 0, multiplicity = 1:

       Center              X                  Y                   Z               Mass
    ------------   -----------------  -----------------  -----------------  -----------------
         O            3.068831966563    -0.720918268916     0.000060726679    15.994914619570
         N           -1.092509033437    -1.159984268916    -0.000079273321    14.003074004430
         C            0.957868966563     0.060630731084    -0.000014273321    12.000000000000
         C           -0.506359033437     0.060215731084    -0.000003273321    12.000000000000
         C            1.863209966563     1.172665731084    -0.000101273321    12.000000000000
         C           -1.251522033437     1.248174731084     0.000083726679    12.000000000000
         C            1.748795966563    -1.062678268916     0.000078726679    12.000000000000
         C           -2.642281033437     1.176989731084     0.000081726679    12.000000000000
         C            3.029538866563     0.683404831084    -0.000049373321    12.000000000000
         C           -3.251458033437    -0.076848268916     0.000002726679    12.000000000000
         C           -2.433268033437    -1.207969268916    -0.000071273321    12.000000000000
         H            1.623721966563     2.227580731084    -0.000211273321     1.007825032230
         H           -0.750050033437     2.211898731084     0.000158726679     1.007825032230
         H            1.523369966563    -2.117900268916     0.000158726679     1.007825032230
         H            4.112666966563     1.074076731084    -0.000071273321     1.007825032230
         H           -3.239301033437     2.085855731084     0.000145726679     1.007825032230
         H           -4.332826033437    -0.180025268916    -0.000001273321     1.007825032230
         H           -2.868351033437    -2.206362268916    -0.000130273321     1.007825032230

  Basis Set: AUG-CC-PVTZ
    Blend: AUG-CC-PVTZ
  Basis Set: (AUG-CC-PVTZ AUX)
    Blend: AUG-CC-PVTZ-JKFIT
	 Reference Energy          =    -474.3174675869011025 [Eh]
	 Singles Energy            =      -0.0000000000000000 [Eh]
	 Same-Spin Energy          =      -0.5132664291486445 [Eh]
	 Opposite-Spin Energy      =      -1.5561410609740149 [Eh]
	 Correlation Energy        =      -2.0694074901226593 [Eh]
	 Total Energy              =    -476.3868750770237739 [Eh]

	 ================> DF-SCS-MP2 Energies <==================
	-----------------------------------------------------------
	 SCS Same-Spin Scale       =       0.3333333333333333 [-]
	 SCS Opposite-Spin Scale   =       1.2000000000000000 [-]
	 SCS Same-Spin Energy      =      -0.1710888097162148 [Eh]
	 SCS Opposite-Spin Energy  =      -1.8673692731688178 [Eh]
	 SCS Correlation Energy    =      -2.0384580828850325 [Eh]
	 SCS Total Energy          =    -476.3559256697861315 [Eh]
	-----------------------------------------------------------

  Dipole Moment: [D]
     X:    -1.3792      Y:     2.1600      Z:     0.0001     Total:     2.5628

*** Psi4 exiting successfully. Buy a developer a beer!
