                               Psi4 1.3.2 release

  ==> Input File <==

--------------------------------------------------------------------------
#psi4
#
memory 32 gb

molecule  {
0 1
  O        3.1347774    -0.7390820     0.0000604
  N       -1.0742560    -1.1771330    -0.0000800
  C        0.9761220     0.0434820    -0.0000150
  C       -0.4881060     0.0430670    -0.0000040
  C        1.8814630     1.1555170    -0.0001020
  C       -1.2332690     1.2310260     0.0000830
  C        1.7670490    -1.0798270     0.0000780
  C       -2.6240280     1.1598410     0.0000810
  C        3.1400070     0.6275730    -0.0000460
  C       -3.2332050    -0.0939970     0.0000020
  C       -2.4150150    -1.2251180    -0.0000720
  H        1.6419750     2.2104320    -0.0002120
  H       -0.7317970     2.1947500     0.0001580
  H        1.5416230    -2.1350490     0.0001580
  H        4.1309200     1.0569280    -0.0000720
  H       -3.2210480     2.0687070     0.0001450
  H       -4.3145730    -0.1971740    -0.0000020
  H       -2.8500980    -2.2235110    -0.0001310
units angstrom
no_reorient  #important for SAPT in psi4, default
symmetry c1  #important for SAPT in psi4, default
}

set PROPERTIES_ORIGIN ["COM"]
properties('MP2/aug-cc-pvtz', properties = ['dipole'])
--------------------------------------------------------------------------

    Molecular point group: c1
  Charge       = 0
  Multiplicity = 1
  Basis Set: AUG-CC-PVTZ
    Blend: AUG-CC-PVTZ
  Basis Set: (AUG-CC-PVTZ AUX)
    Blend: AUG-CC-PVTZ-JKFIT

    Orbital Energies [Eh]
    ---------------------

    Doubly Occupied:

       1A    -20.627236     2A    -15.567709     3A    -11.295548
       4A    -11.294616     5A    -11.294174     6A    -11.280909
       7A    -11.264846     8A    -11.245561     9A    -11.243783
      10A    -11.243120    11A    -11.236716    12A     -1.443077
      13A     -1.260422    14A     -1.108234    15A     -1.090318
      16A     -1.033881    17A     -0.993126    18A     -0.876301
      19A     -0.864402    20A     -0.793164    21A     -0.778280
      22A     -0.741683    23A     -0.687448    24A     -0.664131
      25A     -0.646466    26A     -0.626736    27A     -0.600149
      28A     -0.587639    29A     -0.575084    30A     -0.570741
      31A     -0.550429    32A     -0.541151    33A     -0.522195
      34A     -0.427216    35A     -0.423752    36A     -0.385182
      37A     -0.348245    38A     -0.300817

  @DF-RHF Final Energy:  -474.32675543308488

   => Energetics <=

    Nuclear Repulsion Energy =            538.5606762866964345
    One-Electron Energy =               -1711.7058862174760634
    Two-Electron Energy =                 698.8184544976948018
    Total Energy =                       -474.3267554330848270
  Basis Set: (AUG-CC-PVTZ AUX)
    Blend: AUG-CC-PVTZ-RI
    Molecular point group: c1

    Geometry (in Angstrom), charge = 0, multiplicity = 1:

       Center              X                  Y                   Z               Mass
    ------------   -----------------  -----------------  -----------------  -----------------
         O            3.103636524812    -0.718621149756     0.000060743384    15.994914619570
         N           -1.105396875188    -1.156672149756    -0.000079656616    14.003074004430
         C            0.944981124812     0.063942850244    -0.000014656616    12.000000000000
         C           -0.519246875188     0.063527850244    -0.000003656616    12.000000000000
         C            1.850322124812     1.175977850244    -0.000101656616    12.000000000000
         C           -1.264409875188     1.251486850244     0.000083343384    12.000000000000
         C            1.735908124812    -1.059366149756     0.000078343384    12.000000000000
         C           -2.655168875188     1.180301850244     0.000081343384    12.000000000000
         C            3.108866124812     0.648033850244    -0.000045656616    12.000000000000
         C           -3.264345875188    -0.073536149756     0.000002343384    12.000000000000
         C           -2.446155875188    -1.204657149756    -0.000071656616    12.000000000000
         H            1.610834124812     2.230892850244    -0.000211656616     1.007825032230
         H           -0.762937875188     2.215210850244     0.000158343384     1.007825032230
         H            1.510482124812    -2.114588149756     0.000158343384     1.007825032230
         H            4.099779124812     1.077388850244    -0.000071656616     1.007825032230
         H           -3.252188875188     2.089167850244     0.000145343384     1.007825032230
         H           -4.345713875188    -0.176713149756    -0.000001656616     1.007825032230
         H           -2.881238875188    -2.203050149756    -0.000130656616     1.007825032230

  Basis Set: AUG-CC-PVTZ
    Blend: AUG-CC-PVTZ
  Basis Set: (AUG-CC-PVTZ AUX)
    Blend: AUG-CC-PVTZ-JKFIT
	 Reference Energy          =    -474.3267554330848839 [Eh]
	 Singles Energy            =      -0.0000000000000000 [Eh]
	 Same-Spin Energy          =      -0.5143776092376353 [Eh]
	 Opposite-Spin Energy      =      -1.5586181840838913 [Eh]
	 Correlation Energy        =      -2.0729957933215264 [Eh]
	 Total Energy              =    -476.3997512264064085 [Eh]

	 ================> DF-SCS-MP2 Energies <==================
	-----------------------------------------------------------
	 SCS Same-Spin Scale       =       0.3333333333333333 [-]
	 SCS Opposite-Spin Scale   =       1.2000000000000000 [-]
	 SCS Same-Spin Energy      =      -0.1714592030792118 [Eh]
	 SCS Opposite-Spin Energy  =      -1.8703418209006695 [Eh]
	 SCS Correlation Energy    =      -2.0418010239798812 [Eh]
	 SCS Total Energy          =    -476.3685564570647557 [Eh]
	-----------------------------------------------------------

  Dipole Moment: [D]
     X:    -1.5761      Y:     2.0530      Z:     0.0001     Total:     2.5882

*** Psi4 exiting successfully. Buy a developer a beer!
