                               Psi4 1.3.2 release

  ==> Input File <==

--------------------------------------------------------------------------
#psi4
#
memory 32 gb

molecule  {
0 1
  O        3.0870850    -0.7380670     0.0000600
  N       -1.0742560    -1.1771330    -0.0000800
  C        0.9680574     0.1965332    -0.0000045
  C       -0.4881060     0.0430670    -0.0000040
  C        1.8814630     1.1555170    -0.0001020
  C       -1.2332690     1.2310260     0.0000830
  C        1.7670490    -1.0798270     0.0000780
  C       -2.6240280     1.1598410     0.0000810
  C        3.1400070     0.6275730    -0.0000460
  C       -3.2332050    -0.0939970     0.0000020
  C       -2.4150150    -1.2251180    -0.0000720
  H        1.6419750     2.2104320    -0.0002120
  H       -0.7317970     2.1947500     0.0001580
  H        1.5416230    -2.1350490     0.0001580
  H        4.1309200     1.0569280    -0.0000720
  H       -3.2210480     2.0687070     0.0001450
  H       -4.3145730    -0.1971740    -0.0000020
  H       -2.8500980    -2.2235110    -0.0001310
units angstrom
no_reorient  #important for SAPT in psi4, default
symmetry c1  #important for SAPT in psi4, default
}

set PROPERTIES_ORIGIN ["COM"]
properties('MP2/aug-cc-pvtz', properties = ['dipole'])
--------------------------------------------------------------------------

    Molecular point group: c1
  Charge       = 0
  Multiplicity = 1
  Basis Set: AUG-CC-PVTZ
    Blend: AUG-CC-PVTZ
  Basis Set: (AUG-CC-PVTZ AUX)
    Blend: AUG-CC-PVTZ-JKFIT

    Orbital Energies [Eh]
    ---------------------

    Doubly Occupied:

       1A    -20.642090     2A    -15.567003     3A    -11.308926
       4A    -11.293999     5A    -11.289861     6A    -11.280512
       7A    -11.261670     8A    -11.245509     9A    -11.239772
      10A    -11.239716    11A    -11.232875    12A     -1.463353
      13A     -1.257896    14A     -1.118009    15A     -1.087442
      16A     -1.039262    17A     -0.985666    18A     -0.877786
      19A     -0.862439    20A     -0.792546    21A     -0.785632
      22A     -0.745375    23A     -0.689480    24A     -0.662773
      25A     -0.649044    26A     -0.636106    27A     -0.609424
      28A     -0.597045    29A     -0.578132    30A     -0.568479
      31A     -0.549245    32A     -0.533334    33A     -0.513639
      34A     -0.434567    35A     -0.419225    36A     -0.384668
      37A     -0.349356    38A     -0.279512

  @DF-RHF Final Energy:  -474.29557622802611

   => Energetics <=

    Nuclear Repulsion Energy =            539.5719433819319875
    One-Electron Energy =               -1713.5923103577545135
    Two-Electron Energy =                 699.7247907477964191
    Total Energy =                       -474.2955762280261069
  Basis Set: (AUG-CC-PVTZ AUX)
    Blend: AUG-CC-PVTZ-RI
    Molecular point group: c1

    Geometry (in Angstrom), charge = 0, multiplicity = 1:

       Center              X                  Y                   Z               Mass
    ------------   -----------------  -----------------  -----------------  -----------------
         O            3.061870320516    -0.730379772190     0.000059518842    15.994914619570
         N           -1.099470679484    -1.169445772190    -0.000080481158    14.003074004430
         C            0.942842720516     0.204220427810    -0.000004981158    12.000000000000
         C           -0.513320679484     0.050754227810    -0.000004481158    12.000000000000
         C            1.856248320516     1.163204227810    -0.000102481158    12.000000000000
         C           -1.258483679484     1.238713227810     0.000082518842    12.000000000000
         C            1.741834320516    -1.072139772190     0.000077518842    12.000000000000
         C           -2.649242679484     1.167528227810     0.000080518842    12.000000000000
         C            3.114792320516     0.635260227810    -0.000046481158    12.000000000000
         C           -3.258419679484    -0.086309772190     0.000001518842    12.000000000000
         C           -2.440229679484    -1.217430772190    -0.000072481158    12.000000000000
         H            1.616760320516     2.218119227810    -0.000212481158     1.007825032230
         H           -0.757011679484     2.202437227810     0.000157518842     1.007825032230
         H            1.516408320516    -2.127361772190     0.000157518842     1.007825032230
         H            4.105705320516     1.064615227810    -0.000072481158     1.007825032230
         H           -3.246262679484     2.076394227810     0.000144518842     1.007825032230
         H           -4.339787679484    -0.189486772190    -0.000002481158     1.007825032230
         H           -2.875312679484    -2.215823772190    -0.000131481158     1.007825032230

  Basis Set: AUG-CC-PVTZ
    Blend: AUG-CC-PVTZ
  Basis Set: (AUG-CC-PVTZ AUX)
    Blend: AUG-CC-PVTZ-JKFIT
	 Reference Energy          =    -474.2955762280261069 [Eh]
	 Singles Energy            =      -0.0000000000000000 [Eh]
	 Same-Spin Energy          =      -0.5188358909041696 [Eh]
	 Opposite-Spin Energy      =      -1.5634318998278081 [Eh]
	 Correlation Energy        =      -2.0822677907319775 [Eh]
	 Total Energy              =    -476.3778440187580827 [Eh]

	 ================> DF-SCS-MP2 Energies <==================
	-----------------------------------------------------------
	 SCS Same-Spin Scale       =       0.3333333333333333 [-]
	 SCS Opposite-Spin Scale   =       1.2000000000000000 [-]
	 SCS Same-Spin Energy      =      -0.1729452969680565 [Eh]
	 SCS Opposite-Spin Energy  =      -1.8761182797933695 [Eh]
	 SCS Correlation Energy    =      -2.0490635767614260 [Eh]
	 SCS Total Energy          =    -476.3446398047875050 [Eh]
	-----------------------------------------------------------

  Dipole Moment: [D]
     X:    -1.2704      Y:     2.0482      Z:     0.0001     Total:     2.4102

*** Psi4 exiting successfully. Buy a developer a beer!
