                               Psi4 1.4a3.dev225

  ==> Input File <==

--------------------------------------------------------------------------
#psi4
#
memory 32 gb

molecule  {
0 1
  O        3.0870850    -0.7380670     0.0000600
  N       -1.0742560    -1.1771330    -0.0000800
  C        0.9761220     0.0434820    -0.0000150
  C       -0.4681060     0.0430727    -0.0000042
  C        1.8814630     1.1555170    -0.0001020
  C       -1.2332690     1.2310260     0.0000830
  C        1.7670490    -1.0798270     0.0000780
  C       -2.6240280     1.1598410     0.0000810
  C        3.1400070     0.6275730    -0.0000460
  C       -3.2332050    -0.0939970     0.0000020
  C       -2.4150150    -1.2251180    -0.0000720
  H        1.6419750     2.2104320    -0.0002120
  H       -0.7317970     2.1947500     0.0001580
  H        1.5416230    -2.1350490     0.0001580
  H        4.1309200     1.0569280    -0.0000720
  H       -3.2210480     2.0687070     0.0001450
  H       -4.3145730    -0.1971740    -0.0000020
  H       -2.8500980    -2.2235110    -0.0001310
units angstrom
no_reorient  #important for SAPT in psi4, default
symmetry c1  #important for SAPT in psi4, default
}

set PROPERTIES_ORIGIN ["COM"]
properties('MP2/aug-cc-pvtz', properties = ['dipole'])
--------------------------------------------------------------------------

    Molecular point group: c1
  Charge       = 0
  Multiplicity = 1
  Basis Set: AUG-CC-PVTZ
    Blend: AUG-CC-PVTZ
  Basis Set: (AUG-CC-PVTZ AUX)
    Blend: AUG-CC-PVTZ-JKFIT

    Orbital Energies [Eh]
    ---------------------

    Doubly Occupied:

       1A    -20.629877     2A    -15.565289     3A    -11.295619
       4A    -11.294312     5A    -11.292903     6A    -11.278778
       7A    -11.262630     8A    -11.244010     9A    -11.240484
      10A    -11.239201    11A    -11.238091    12A     -1.460133
      13A     -1.255057    14A     -1.108232    15A     -1.086668
      16A     -1.033757    17A     -0.998641    18A     -0.877927
      19A     -0.861609    20A     -0.796718    21A     -0.778581
      22A     -0.745963    23A     -0.686687    24A     -0.660933
      25A     -0.646560    26A     -0.636889    27A     -0.607635
      28A     -0.585986    29A     -0.575989    30A     -0.572467
      31A     -0.547041    32A     -0.539065    33A     -0.522133
      34A     -0.426630    35A     -0.419241    36A     -0.382783
      37A     -0.348707    38A     -0.297868

  @DF-RHF Final Energy:  -474.32977381369562

   => Energetics <=

    Nuclear Repulsion Energy =            539.8513336666841269
    One-Electron Energy =               -1714.2800250140958269
    Two-Electron Energy =                 700.0989175337159622
    Total Energy =                       -474.3297738136956241
  Basis Set: (AUG-CC-PVTZ AUX)
    Blend: AUG-CC-PVTZ-RI
    Molecular point group: c1

    Geometry (in Angstrom), charge = 0, multiplicity = 1:

       Center              X                  Y                   Z               Mass
    ------------   -----------------  -----------------  -----------------  -----------------
         O            3.059548577786    -0.717718544983     0.000060404037    15.994914619570
         N           -1.101792422214    -1.156784544983    -0.000079595963    14.003074004430
         C            0.948585577786     0.063830455017    -0.000014595963    12.000000000000
         C           -0.495642422214     0.063421155017    -0.000003795963    12.000000000000
         C            1.853926577786     1.175865455017    -0.000101595963    12.000000000000
         C           -1.260805422214     1.251374455017     0.000083404037    12.000000000000
         C            1.739512577786    -1.059478544983     0.000078404037    12.000000000000
         C           -2.651564422214     1.180189455017     0.000081404037    12.000000000000
         C            3.112470577786     0.647921455017    -0.000045595963    12.000000000000
         C           -3.260741422214    -0.073648544983     0.000002404037    12.000000000000
         C           -2.442551422214    -1.204769544983    -0.000071595963    12.000000000000
         H            1.614438577786     2.230780455017    -0.000211595963     1.007825032230
         H           -0.759333422214     2.215098455017     0.000158404037     1.007825032230
         H            1.514086577786    -2.114700544983     0.000158404037     1.007825032230
         H            4.103383577786     1.077276455017    -0.000071595963     1.007825032230
         H           -3.248584422214     2.089055455017     0.000145404037     1.007825032230
         H           -4.342109422214    -0.176825544983    -0.000001595963     1.007825032230
         H           -2.877634422214    -2.203162544983    -0.000130595963     1.007825032230

  Basis Set: AUG-CC-PVTZ
    Blend: AUG-CC-PVTZ
  Basis Set: (AUG-CC-PVTZ AUX)
    Blend: AUG-CC-PVTZ-JKFIT
	 Reference Energy          =    -474.3297738136956241 [Eh]
	 Singles Energy            =      -0.0000000000000000 [Eh]
	 Same-Spin Energy          =      -0.5145250403072090 [Eh]
	 Opposite-Spin Energy      =      -1.5574916876181213 [Eh]
	 Correlation Energy        =      -2.0720167279253303 [Eh]
	 Total Energy              =    -476.4017905416209260 [Eh]

	 ================> DF-SCS-MP2 Energies <==================
	-----------------------------------------------------------
	 SCS Same-Spin Scale       =       0.3333333333333333 [-]
	 SCS Opposite-Spin Scale   =       1.2000000000000000 [-]
	 SCS Same-Spin Energy      =      -0.1715083467690697 [Eh]
	 SCS Opposite-Spin Energy  =      -1.8689900251417455 [Eh]
	 SCS Correlation Energy    =      -2.0404983719108150 [Eh]
	 SCS Total Energy          =    -476.3702721856064386 [Eh]
	-----------------------------------------------------------

  Dipole Moment: [D]
     X:    -1.2421      Y:     2.0216      Z:     0.0001     Total:     2.3727

*** Psi4 exiting successfully. Buy a developer a beer!
