                               Psi4 1.3.2 release

  ==> Input File <==

--------------------------------------------------------------------------
#psi4
#
memory 32 gb

molecule  {
0 1
  O        3.0870850    -0.7380670     0.0000600
  N       -1.0742560    -1.1771330    -0.0000800
  C        0.9007557     0.1093443    -0.0000213
  C       -0.4881060     0.0430670    -0.0000040
  C        1.8814630     1.1555170    -0.0001020
  C       -1.2332690     1.2310260     0.0000830
  C        1.7670490    -1.0798270     0.0000780
  C       -2.6240280     1.1598410     0.0000810
  C        3.1400070     0.6275730    -0.0000460
  C       -3.2332050    -0.0939970     0.0000020
  C       -2.4150150    -1.2251180    -0.0000720
  H        1.6419750     2.2104320    -0.0002120
  H       -0.7317970     2.1947500     0.0001580
  H        1.5416230    -2.1350490     0.0001580
  H        4.1309200     1.0569280    -0.0000720
  H       -3.2210480     2.0687070     0.0001450
  H       -4.3145730    -0.1971740    -0.0000020
  H       -2.8500980    -2.2235110    -0.0001310
units angstrom
no_reorient  #important for SAPT in psi4, default
symmetry c1  #important for SAPT in psi4, default
}

set PROPERTIES_ORIGIN ["COM"]
properties('MP2/aug-cc-pvtz', properties = ['dipole'])
--------------------------------------------------------------------------

    Molecular point group: c1
  Charge       = 0
  Multiplicity = 1
  Basis Set: AUG-CC-PVTZ
    Blend: AUG-CC-PVTZ
  Basis Set: (AUG-CC-PVTZ AUX)
    Blend: AUG-CC-PVTZ-JKFIT

    Orbital Energies [Eh]
    ---------------------

    Doubly Occupied:

       1A    -20.638787     2A    -15.564187     3A    -11.311812
       4A    -11.293277     5A    -11.286834     6A    -11.279143
       7A    -11.261724     8A    -11.246172     9A    -11.242089
      10A    -11.240505    11A    -11.238941    12A     -1.462743
      13A     -1.259466    14A     -1.106967    15A     -1.087333
      16A     -1.036725    17A     -0.990228    18A     -0.886209
      19A     -0.863728    20A     -0.789786    21A     -0.781138
      22A     -0.745557    23A     -0.688135    24A     -0.663385
      25A     -0.651909    26A     -0.636705    27A     -0.610085
      28A     -0.591415    29A     -0.576705    30A     -0.570181
      31A     -0.551256    32A     -0.526098    33A     -0.522730
      34A     -0.427784    35A     -0.420615    36A     -0.383358
      37A     -0.349931    38A     -0.284243

  @DF-RHF Final Energy:  -474.31123592707939

   => Energetics <=

    Nuclear Repulsion Energy =            539.7137586247446279
    One-Electron Energy =               -1713.9142145493649423
    Two-Electron Energy =                 699.8892199975408630
    Total Energy =                       -474.3112359270793377
  Basis Set: (AUG-CC-PVTZ AUX)
    Blend: AUG-CC-PVTZ-RI
    Molecular point group: c1

    Geometry (in Angstrom), charge = 0, multiplicity = 1:

       Center              X                  Y                   Z               Mass
    ------------   -----------------  -----------------  -----------------  -----------------
         O            3.067438090330    -0.723166763818     0.000060908681    15.994914619570
         N           -1.093902909670    -1.162232763818    -0.000079091319    14.003074004430
         C            0.881108790330     0.124244536182    -0.000020391319    12.000000000000
         C           -0.507752909670     0.057967236182    -0.000003091319    12.000000000000
         C            1.861816090330     1.170417236182    -0.000101091319    12.000000000000
         C           -1.252915909670     1.245926236182     0.000083908681    12.000000000000
         C            1.747402090330    -1.064926763818     0.000078908681    12.000000000000
         C           -2.643674909670     1.174741236182     0.000081908681    12.000000000000
         C            3.120360090330     0.642473236182    -0.000045091319    12.000000000000
         C           -3.252851909670    -0.079096763818     0.000002908681    12.000000000000
         C           -2.434661909670    -1.210217763818    -0.000071091319    12.000000000000
         H            1.622328090330     2.225332236182    -0.000211091319     1.007825032230
         H           -0.751443909670     2.209650236182     0.000158908681     1.007825032230
         H            1.521976090330    -2.120148763818     0.000158908681     1.007825032230
         H            4.111273090330     1.071828236182    -0.000071091319     1.007825032230
         H           -3.240694909670     2.083607236182     0.000145908681     1.007825032230
         H           -4.334219909670    -0.182273763818    -0.000001091319     1.007825032230
         H           -2.869744909670    -2.208610763818    -0.000130091319     1.007825032230

  Basis Set: AUG-CC-PVTZ
    Blend: AUG-CC-PVTZ
  Basis Set: (AUG-CC-PVTZ AUX)
    Blend: AUG-CC-PVTZ-JKFIT
	 Reference Energy          =    -474.3112359270793945 [Eh]
	 Singles Energy            =      -0.0000000000000000 [Eh]
	 Same-Spin Energy          =      -0.5170074334586562 [Eh]
	 Opposite-Spin Energy      =      -1.5615161414751477 [Eh]
	 Correlation Energy        =      -2.0785235749338038 [Eh]
	 Total Energy              =    -476.3897595020131916 [Eh]

	 ================> DF-SCS-MP2 Energies <==================
	-----------------------------------------------------------
	 SCS Same-Spin Scale       =       0.3333333333333333 [-]
	 SCS Opposite-Spin Scale   =       1.2000000000000000 [-]
	 SCS Same-Spin Energy      =      -0.1723358111528854 [Eh]
	 SCS Opposite-Spin Energy  =      -1.8738193697701773 [Eh]
	 SCS Correlation Energy    =      -2.0461551809230625 [Eh]
	 SCS Total Energy          =    -476.3573911080024459 [Eh]
	-----------------------------------------------------------

  Dipole Moment: [D]
     X:    -1.2054      Y:     2.0221      Z:     0.0001     Total:     2.3541

*** Psi4 exiting successfully. Buy a developer a beer!
