                               Psi4 1.3.2 release

  ==> Input File <==

--------------------------------------------------------------------------
#psi4
#
memory 32 gb

molecule  {
0 1
  O        3.0870850    -0.7380670     0.0000600
  N       -1.0528713    -1.1871769    -0.0000808
  C        0.9761220     0.0434820    -0.0000150
  C       -0.4881060     0.0430670    -0.0000040
  C        1.8814630     1.1555170    -0.0001020
  C       -1.2332690     1.2310260     0.0000830
  C        1.7670490    -1.0798270     0.0000780
  C       -2.6240280     1.1598410     0.0000810
  C        3.1400070     0.6275730    -0.0000460
  C       -3.2332050    -0.0939970     0.0000020
  C       -2.4150150    -1.2251180    -0.0000720
  H        1.6419750     2.2104320    -0.0002120
  H       -0.7317970     2.1947500     0.0001580
  H        1.5416230    -2.1350490     0.0001580
  H        4.1309200     1.0569280    -0.0000720
  H       -3.2210480     2.0687070     0.0001450
  H       -4.3145730    -0.1971740    -0.0000020
  H       -2.8500980    -2.2235110    -0.0001310
units angstrom
no_reorient  #important for SAPT in psi4, default
symmetry c1  #important for SAPT in psi4, default
}

set PROPERTIES_ORIGIN ["COM"]
properties('MP2/aug-cc-pvtz', properties = ['dipole'])
--------------------------------------------------------------------------

    Molecular point group: c1
  Charge       = 0
  Multiplicity = 1
  Basis Set: AUG-CC-PVTZ
    Blend: AUG-CC-PVTZ
  Basis Set: (AUG-CC-PVTZ AUX)
    Blend: AUG-CC-PVTZ-JKFIT

    Orbital Energies [Eh]
    ---------------------

    Doubly Occupied:

       1A    -20.628321     2A    -15.568605     3A    -11.293387
       4A    -11.292906     5A    -11.292377     6A    -11.282056
       7A    -11.264445     8A    -11.243816     9A    -11.242005
      10A    -11.238407    11A    -11.236777    12A     -1.458524
      13A     -1.254570    14A     -1.104703    15A     -1.088930
      16A     -1.033063    17A     -0.997933    18A     -0.874824
      19A     -0.864007    20A     -0.795250    21A     -0.776761
      22A     -0.744308    23A     -0.686827    24A     -0.661345
      25A     -0.646484    26A     -0.635315    27A     -0.606498
      28A     -0.585305    29A     -0.574913    30A     -0.571793
      31A     -0.547158    32A     -0.537803    33A     -0.518356
      34A     -0.426175    35A     -0.424501    36A     -0.382570
      37A     -0.348447    38A     -0.299301

  @DF-RHF Final Energy:  -474.32921255244008

   => Energetics <=

    Nuclear Repulsion Energy =            539.5988226462521880
    One-Electron Energy =               -1713.7985339027302416
    Two-Electron Energy =                 699.8704987040380274
    Total Energy =                       -474.3292125524401399
  Basis Set: (AUG-CC-PVTZ AUX)
    Blend: AUG-CC-PVTZ-RI
    Molecular point group: c1

    Geometry (in Angstrom), charge = 0, multiplicity = 1:

       Center              X                  Y                   Z               Mass
    ------------   -----------------  -----------------  -----------------  -----------------
         O            3.059138716332    -0.716748457470     0.000060464722    15.994914619570
         N           -1.080817583668    -1.165858357470    -0.000080335278    14.003074004430
         C            0.948175716332     0.064800542530    -0.000014535278    12.000000000000
         C           -0.516052283668     0.064385542530    -0.000003535278    12.000000000000
         C            1.853516716332     1.176835542530    -0.000101535278    12.000000000000
         C           -1.261215283668     1.252344542530     0.000083464722    12.000000000000
         C            1.739102716332    -1.058508457470     0.000078464722    12.000000000000
         C           -2.651974283668     1.181159542530     0.000081464722    12.000000000000
         C            3.112060716332     0.648891542530    -0.000045535278    12.000000000000
         C           -3.261151283668    -0.072678457470     0.000002464722    12.000000000000
         C           -2.442961283668    -1.203799457470    -0.000071535278    12.000000000000
         H            1.614028716332     2.231750542530    -0.000211535278     1.007825032230
         H           -0.759743283668     2.216068542530     0.000158464722     1.007825032230
         H            1.513676716332    -2.113730457470     0.000158464722     1.007825032230
         H            4.102973716332     1.078246542530    -0.000071535278     1.007825032230
         H           -3.248994283668     2.090025542530     0.000145464722     1.007825032230
         H           -4.342519283668    -0.175855457470    -0.000001535278     1.007825032230
         H           -2.878044283668    -2.202192457470    -0.000130535278     1.007825032230

  Basis Set: AUG-CC-PVTZ
    Blend: AUG-CC-PVTZ
  Basis Set: (AUG-CC-PVTZ AUX)
    Blend: AUG-CC-PVTZ-JKFIT
	 Reference Energy          =    -474.3292125524400831 [Eh]
	 Singles Energy            =      -0.0000000000000000 [Eh]
	 Same-Spin Energy          =      -0.5144250503131059 [Eh]
	 Opposite-Spin Energy      =      -1.5577380352168668 [Eh]
	 Correlation Energy        =      -2.0721630855299726 [Eh]
	 Total Energy              =    -476.4013756379700339 [Eh]

	 ================> DF-SCS-MP2 Energies <==================
	-----------------------------------------------------------
	 SCS Same-Spin Scale       =       0.3333333333333333 [-]
	 SCS Opposite-Spin Scale   =       1.2000000000000000 [-]
	 SCS Same-Spin Energy      =      -0.1714750167710353 [Eh]
	 SCS Opposite-Spin Energy  =      -1.8692856422602402 [Eh]
	 SCS Correlation Energy    =      -2.0407606590312755 [Eh]
	 SCS Total Energy          =    -476.3699732114713470 [Eh]
	-----------------------------------------------------------

  Dipole Moment: [D]
     X:    -1.3990      Y:     2.0440      Z:     0.0001     Total:     2.4769

*** Psi4 exiting successfully. Buy a developer a beer!
