                               Psi4 1.3.2 release

  ==> Input File <==

--------------------------------------------------------------------------
#psi4
#
memory 32 gb

molecule  {
0 1
  O        3.0870850    -0.7380670     0.0000600
  N       -1.0742560    -1.1771330    -0.0000800
  C        0.9761220     0.0434820    -0.0000150
  C       -0.4881060     0.0430670    -0.0000040
  C        1.8638047     1.1112728    -0.0000985
  C       -1.2332690     1.2310260     0.0000830
  C        1.7670490    -1.0798270     0.0000780
  C       -2.6240280     1.1598410     0.0000810
  C        3.1400070     0.6275730    -0.0000460
  C       -3.2332050    -0.0939970     0.0000020
  C       -2.4150150    -1.2251180    -0.0000720
  H        1.6419750     2.2104320    -0.0002120
  H       -0.7317970     2.1947500     0.0001580
  H        1.5416230    -2.1350490     0.0001580
  H        4.1309200     1.0569280    -0.0000720
  H       -3.2210480     2.0687070     0.0001450
  H       -4.3145730    -0.1971740    -0.0000020
  H       -2.8500980    -2.2235110    -0.0001310
units angstrom
no_reorient  #important for SAPT in psi4, default
symmetry c1  #important for SAPT in psi4, default
}

set PROPERTIES_ORIGIN ["COM"]
properties('MP2/aug-cc-pvtz', properties = ['dipole'])
--------------------------------------------------------------------------

    Molecular point group: c1
  Charge       = 0
  Multiplicity = 1
  Basis Set: AUG-CC-PVTZ
    Blend: AUG-CC-PVTZ
  Basis Set: (AUG-CC-PVTZ AUX)
    Blend: AUG-CC-PVTZ-JKFIT

    Orbital Energies [Eh]
    ---------------------

    Doubly Occupied:

       1A    -20.628788     2A    -15.566260     3A    -11.293548
       4A    -11.292828     5A    -11.290757     6A    -11.279785
       7A    -11.263631     8A    -11.243709     9A    -11.241578
      10A    -11.236712    11A    -11.235128    12A     -1.459623
      13A     -1.259163    14A     -1.112547    15A     -1.089049
      16A     -1.034540    17A     -0.997864    18A     -0.875921
      19A     -0.863890    20A     -0.791600    21A     -0.781552
      22A     -0.744325    23A     -0.688555    24A     -0.662106
      25A     -0.646009    26A     -0.636348    27A     -0.607047
      28A     -0.588432    29A     -0.576695    30A     -0.559273
      31A     -0.549434    32A     -0.541944    33A     -0.522559
      34A     -0.428712    35A     -0.422424    36A     -0.384333
      37A     -0.347855    38A     -0.298028

  @DF-RHF Final Energy:  -474.32705344878764

   => Energetics <=

    Nuclear Repulsion Energy =            540.7949493847171425
    One-Electron Energy =               -1716.1589021751319706
    Two-Electron Energy =                 701.0368993416270769
    Total Energy =                       -474.3270534487876375
  Basis Set: (AUG-CC-PVTZ AUX)
    Blend: AUG-CC-PVTZ-RI
    Molecular point group: c1

    Geometry (in Angstrom), charge = 0, multiplicity = 1:

       Center              X                  Y                   Z               Mass
    ------------   -----------------  -----------------  -----------------  -----------------
         O            3.062663993087    -0.714057816391     0.000060097942    15.994914619570
         N           -1.098677006913    -1.153123816391    -0.000079902058    14.003074004430
         C            0.951700993087     0.067491183609    -0.000014902058    12.000000000000
         C           -0.512527006913     0.067076183609    -0.000003902058    12.000000000000
         C            1.839383693087     1.135281983609    -0.000098402058    12.000000000000
         C           -1.257690006913     1.255035183609     0.000083097942    12.000000000000
         C            1.742627993087    -1.055817816391     0.000078097942    12.000000000000
         C           -2.648449006913     1.183850183609     0.000081097942    12.000000000000
         C            3.115585993087     0.651582183609    -0.000045902058    12.000000000000
         C           -3.257626006913    -0.069987816391     0.000002097942    12.000000000000
         C           -2.439436006913    -1.201108816391    -0.000071902058    12.000000000000
         H            1.617553993087     2.234441183609    -0.000211902058     1.007825032230
         H           -0.756218006913     2.218759183609     0.000158097942     1.007825032230
         H            1.517201993087    -2.111039816391     0.000158097942     1.007825032230
         H            4.106498993087     1.080937183609    -0.000071902058     1.007825032230
         H           -3.245469006913     2.092716183609     0.000145097942     1.007825032230
         H           -4.338994006913    -0.173164816391    -0.000001902058     1.007825032230
         H           -2.874519006913    -2.199501816391    -0.000130902058     1.007825032230

  Basis Set: AUG-CC-PVTZ
    Blend: AUG-CC-PVTZ
  Basis Set: (AUG-CC-PVTZ AUX)
    Blend: AUG-CC-PVTZ-JKFIT
	 Reference Energy          =    -474.3270534487876375 [Eh]
	 Singles Energy            =      -0.0000000000000000 [Eh]
	 Same-Spin Energy          =      -0.5150461174483346 [Eh]
	 Opposite-Spin Energy      =      -1.5576895936067685 [Eh]
	 Correlation Energy        =      -2.0727357110551030 [Eh]
	 Total Energy              =    -476.3997891598427259 [Eh]

	 ================> DF-SCS-MP2 Energies <==================
	-----------------------------------------------------------
	 SCS Same-Spin Scale       =       0.3333333333333333 [-]
	 SCS Opposite-Spin Scale   =       1.2000000000000000 [-]
	 SCS Same-Spin Energy      =      -0.1716820391494449 [Eh]
	 SCS Opposite-Spin Energy  =      -1.8692275123281221 [Eh]
	 SCS Correlation Energy    =      -2.0409095514775668 [Eh]
	 SCS Total Energy          =    -476.3679630002652061 [Eh]
	-----------------------------------------------------------

  Dipole Moment: [D]
     X:    -1.3683      Y:     2.0139      Z:     0.0001     Total:     2.4347

*** Psi4 exiting successfully. Buy a developer a beer!
