                               Psi4 1.4a3.dev225

  ==> Input File <==

--------------------------------------------------------------------------
#psi4
#
memory 32 gb

molecule  {
0 1
  O        3.0870850    -0.7380670     0.0000600
  N       -1.0742560    -1.1771330    -0.0000800
  C        0.9761220     0.0434820    -0.0000150
  C       -0.4881060     0.0430670    -0.0000040
  C        1.8814630     1.1555170    -0.0001020
  C       -1.2226415     1.2140833     0.0000818
  C        1.7670490    -1.0798270     0.0000780
  C       -2.6240280     1.1598410     0.0000810
  C        3.1400070     0.6275730    -0.0000460
  C       -3.2332050    -0.0939970     0.0000020
  C       -2.4150150    -1.2251180    -0.0000720
  H        1.6419750     2.2104320    -0.0002120
  H       -0.7317970     2.1947500     0.0001580
  H        1.5416230    -2.1350490     0.0001580
  H        4.1309200     1.0569280    -0.0000720
  H       -3.2210480     2.0687070     0.0001450
  H       -4.3145730    -0.1971740    -0.0000020
  H       -2.8500980    -2.2235110    -0.0001310
units angstrom
no_reorient  #important for SAPT in psi4, default
symmetry c1  #important for SAPT in psi4, default
}

set PROPERTIES_ORIGIN ["COM"]
properties('MP2/aug-cc-pvtz', properties = ['dipole'])
--------------------------------------------------------------------------

    Molecular point group: c1
  Charge       = 0
  Multiplicity = 1
  Basis Set: AUG-CC-PVTZ
    Blend: AUG-CC-PVTZ
  Basis Set: (AUG-CC-PVTZ AUX)
    Blend: AUG-CC-PVTZ-JKFIT

    Orbital Energies [Eh]
    ---------------------

    Doubly Occupied:

       1A    -20.628023     2A    -15.565714     3A    -11.293031
       4A    -11.292889     5A    -11.289401     6A    -11.279954
       7A    -11.264953     8A    -11.243073     9A    -11.241739
      10A    -11.238578    11A    -11.236736    12A     -1.458295
      13A     -1.259522    14A     -1.105500    15A     -1.087759
      16A     -1.035086    17A     -0.998273    18A     -0.875212
      19A     -0.864166    20A     -0.795445    21A     -0.777883
      22A     -0.745051    23A     -0.686311    24A     -0.663691
      25A     -0.645249    26A     -0.635184    27A     -0.606733
      28A     -0.585112    29A     -0.575825    30A     -0.572541
      31A     -0.549980    32A     -0.537426    33A     -0.517800
      34A     -0.424461    35A     -0.422897    36A     -0.382575
      37A     -0.349568    38A     -0.299590

  @DF-RHF Final Energy:  -474.33069828451499

   => Energetics <=

    Nuclear Repulsion Energy =            540.1764634844014381
    One-Electron Energy =               -1714.9518708149719259
    Two-Electron Energy =                 700.4447090460555501
    Total Energy =                       -474.3306982845149378
  Basis Set: (AUG-CC-PVTZ AUX)
    Blend: AUG-CC-PVTZ-RI
    Molecular point group: c1

    Geometry (in Angstrom), charge = 0, multiplicity = 1:

       Center              X                  Y                   Z               Mass
    ------------   -----------------  -----------------  -----------------  -----------------
         O            3.060323950809    -0.716316428991     0.000060486766    15.994914619570
         N           -1.101017049191    -1.155382428991    -0.000079513234    14.003074004430
         C            0.949360950809     0.065232571009    -0.000014513234    12.000000000000
         C           -0.514867049191     0.064817571009    -0.000003513234    12.000000000000
         C            1.854701950809     1.177267571009    -0.000101513234    12.000000000000
         C           -1.249402549191     1.235833871009     0.000082286766    12.000000000000
         C            1.740287950809    -1.058076428991     0.000078486766    12.000000000000
         C           -2.650789049191     1.181591571009     0.000081486766    12.000000000000
         C            3.113245950809     0.649323571009    -0.000045513234    12.000000000000
         C           -3.259966049191    -0.072246428991     0.000002486766    12.000000000000
         C           -2.441776049191    -1.203367428991    -0.000071513234    12.000000000000
         H            1.615213950809     2.232182571009    -0.000211513234     1.007825032230
         H           -0.758558049191     2.216500571009     0.000158486766     1.007825032230
         H            1.514861950809    -2.113298428991     0.000158486766     1.007825032230
         H            4.104158950809     1.078678571009    -0.000071513234     1.007825032230
         H           -3.247809049191     2.090457571009     0.000145486766     1.007825032230
         H           -4.341334049191    -0.175423428991    -0.000001513234     1.007825032230
         H           -2.876859049191    -2.201760428991    -0.000130513234     1.007825032230

  Basis Set: AUG-CC-PVTZ
    Blend: AUG-CC-PVTZ
  Basis Set: (AUG-CC-PVTZ AUX)
    Blend: AUG-CC-PVTZ-JKFIT
	 Reference Energy          =    -474.3306982845149946 [Eh]
	 Singles Energy            =      -0.0000000000000000 [Eh]
	 Same-Spin Energy          =      -0.5142114730908529 [Eh]
	 Opposite-Spin Energy      =      -1.5569979739364221 [Eh]
	 Correlation Energy        =      -2.0712094470272753 [Eh]
	 Total Energy              =    -476.4019077315422805 [Eh]

	 ================> DF-SCS-MP2 Energies <==================
	-----------------------------------------------------------
	 SCS Same-Spin Scale       =       0.3333333333333333 [-]
	 SCS Opposite-Spin Scale   =       1.2000000000000000 [-]
	 SCS Same-Spin Energy      =      -0.1714038243636176 [Eh]
	 SCS Opposite-Spin Energy  =      -1.8683975687237064 [Eh]
	 SCS Correlation Energy    =      -2.0398013930873242 [Eh]
	 SCS Total Energy          =    -476.3704996776023108 [Eh]
	-----------------------------------------------------------

  Dipole Moment: [D]
     X:    -1.3849      Y:     2.0201      Z:     0.0001     Total:     2.4492

*** Psi4 exiting successfully. Buy a developer a beer!
