                               Psi4 1.3.2 release

  ==> Input File <==

--------------------------------------------------------------------------
#psi4
#
memory 32 gb

molecule  {
0 1
  O        3.0870850    -0.7380670     0.0000600
  N       -1.0742560    -1.1771330    -0.0000800
  C        0.9761220     0.0434820    -0.0000150
  C       -0.4881060     0.0430670    -0.0000040
  C        1.8814630     1.1555170    -0.0001020
  C       -1.2332690     1.2310260     0.0000830
  C        1.7612855    -1.0567371     0.0000762
  C       -2.6240280     1.1598410     0.0000810
  C        3.1400070     0.6275730    -0.0000460
  C       -3.2332050    -0.0939970     0.0000020
  C       -2.4150150    -1.2251180    -0.0000720
  H        1.6419750     2.2104320    -0.0002120
  H       -0.7317970     2.1947500     0.0001580
  H        1.5416230    -2.1350490     0.0001580
  H        4.1309200     1.0569280    -0.0000720
  H       -3.2210480     2.0687070     0.0001450
  H       -4.3145730    -0.1971740    -0.0000020
  H       -2.8500980    -2.2235110    -0.0001310
units angstrom
no_reorient  #important for SAPT in psi4, default
symmetry c1  #important for SAPT in psi4, default
}

set PROPERTIES_ORIGIN ["COM"]
properties('MP2/aug-cc-pvtz', properties = ['dipole'])
--------------------------------------------------------------------------

    Molecular point group: c1
  Charge       = 0
  Multiplicity = 1
  Basis Set: AUG-CC-PVTZ
    Blend: AUG-CC-PVTZ
  Basis Set: (AUG-CC-PVTZ AUX)
    Blend: AUG-CC-PVTZ-JKFIT

    Orbital Energies [Eh]
    ---------------------

    Doubly Occupied:

       1A    -20.627841     2A    -15.566072     3A    -11.292983
       4A    -11.292797     5A    -11.292177     6A    -11.279762
       7A    -11.263682     8A    -11.243846     9A    -11.241551
      10A    -11.237306    11A    -11.236110    12A     -1.459442
      13A     -1.259054    14A     -1.108881    15A     -1.088982
      16A     -1.034016    17A     -0.998811    18A     -0.875567
      19A     -0.863820    20A     -0.798082    21A     -0.775028
      22A     -0.744154    23A     -0.687486    24A     -0.662848
      25A     -0.646732    26A     -0.636526    27A     -0.602174
      28A     -0.586190    29A     -0.573842    30A     -0.571893
      31A     -0.549317    32A     -0.540161    33A     -0.520795
      34A     -0.426314    35A     -0.422251    36A     -0.384113
      37A     -0.348844    38A     -0.301527

  @DF-RHF Final Energy:  -474.33111111487005

   => Energetics <=

    Nuclear Repulsion Energy =            540.3206524556268278
    One-Electron Energy =               -1715.2215791643873217
    Two-Electron Energy =                 700.5698155938903255
    Total Energy =                       -474.3311111148700547
  Basis Set: (AUG-CC-PVTZ AUX)
    Blend: AUG-CC-PVTZ-RI
    Molecular point group: c1

    Geometry (in Angstrom), charge = 0, multiplicity = 1:

       Center              X                  Y                   Z               Mass
    ------------   -----------------  -----------------  -----------------  -----------------
         O            3.061679953926    -0.719628266609     0.000060536403    15.994914619570
         N           -1.099661046074    -1.158694266609    -0.000079463597    14.003074004430
         C            0.950716953926     0.061920733391    -0.000014463597    12.000000000000
         C           -0.513511046074     0.061505733391    -0.000003463597    12.000000000000
         C            1.856057953926     1.173955733391    -0.000101463597    12.000000000000
         C           -1.258674046074     1.249464733391     0.000083536403    12.000000000000
         C            1.735880453926    -1.038298366609     0.000076736403    12.000000000000
         C           -2.649433046074     1.178279733391     0.000081536403    12.000000000000
         C            3.114601953926     0.646011733391    -0.000045463597    12.000000000000
         C           -3.258610046074    -0.075558266609     0.000002536403    12.000000000000
         C           -2.440420046074    -1.206679266609    -0.000071463597    12.000000000000
         H            1.616569953926     2.228870733391    -0.000211463597     1.007825032230
         H           -0.757202046074     2.213188733391     0.000158536403     1.007825032230
         H            1.516217953926    -2.116610266609     0.000158536403     1.007825032230
         H            4.105514953926     1.075366733391    -0.000071463597     1.007825032230
         H           -3.246453046074     2.087145733391     0.000145536403     1.007825032230
         H           -4.339978046074    -0.178735266609    -0.000001463597     1.007825032230
         H           -2.875503046074    -2.205072266609    -0.000130463597     1.007825032230

  Basis Set: AUG-CC-PVTZ
    Blend: AUG-CC-PVTZ
  Basis Set: (AUG-CC-PVTZ AUX)
    Blend: AUG-CC-PVTZ-JKFIT
	 Reference Energy          =    -474.3311111148700547 [Eh]
	 Singles Energy            =      -0.0000000000000000 [Eh]
	 Same-Spin Energy          =      -0.5139004359140025 [Eh]
	 Opposite-Spin Energy      =      -1.5565074394915754 [Eh]
	 Correlation Energy        =      -2.0704078754055777 [Eh]
	 Total Energy              =    -476.4015189902756333 [Eh]

	 ================> DF-SCS-MP2 Energies <==================
	-----------------------------------------------------------
	 SCS Same-Spin Scale       =       0.3333333333333333 [-]
	 SCS Opposite-Spin Scale   =       1.2000000000000000 [-]
	 SCS Same-Spin Energy      =      -0.1713001453046675 [Eh]
	 SCS Opposite-Spin Energy  =      -1.8678089273898903 [Eh]
	 SCS Correlation Energy    =      -2.0391090726945578 [Eh]
	 SCS Total Energy          =    -476.3702201875645983 [Eh]
	-----------------------------------------------------------

  Dipole Moment: [D]
     X:    -1.3860      Y:     2.0277      Z:     0.0001     Total:     2.4561

*** Psi4 exiting successfully. Buy a developer a beer!
