                               Psi4 1.4a3.dev225

  ==> Input File <==

--------------------------------------------------------------------------
#psi4
#
memory 32 gb

molecule  {
0 1
  O        3.0870850    -0.7380670     0.0000600
  N       -1.0742560    -1.1771330    -0.0000800
  C        0.9761220     0.0434820    -0.0000150
  C       -0.4381060     0.0430812    -0.0000044
  C        1.8814630     1.1555170    -0.0001020
  C       -1.2332690     1.2310260     0.0000830
  C        1.7670490    -1.0798270     0.0000780
  C       -2.6240280     1.1598410     0.0000810
  C        3.1400070     0.6275730    -0.0000460
  C       -3.2332050    -0.0939970     0.0000020
  C       -2.4150150    -1.2251180    -0.0000720
  H        1.6419750     2.2104320    -0.0002120
  H       -0.7317970     2.1947500     0.0001580
  H        1.5416230    -2.1350490     0.0001580
  H        4.1309200     1.0569280    -0.0000720
  H       -3.2210480     2.0687070     0.0001450
  H       -4.3145730    -0.1971740    -0.0000020
  H       -2.8500980    -2.2235110    -0.0001310
units angstrom
no_reorient  #important for SAPT in psi4, default
symmetry c1  #important for SAPT in psi4, default
}

set PROPERTIES_ORIGIN ["COM"]
properties('MP2/aug-cc-pvtz', properties = ['dipole'])
--------------------------------------------------------------------------

    Molecular point group: c1
  Charge       = 0
  Multiplicity = 1
  Basis Set: AUG-CC-PVTZ
    Blend: AUG-CC-PVTZ
  Basis Set: (AUG-CC-PVTZ AUX)
    Blend: AUG-CC-PVTZ-JKFIT

    Orbital Energies [Eh]
    ---------------------

    Doubly Occupied:

       1A    -20.631786     2A    -15.564650     3A    -11.298444
       4A    -11.295798     5A    -11.293848     6A    -11.277699
       7A    -11.261504     8A    -11.244926     9A    -11.240035
      10A    -11.239444    11A    -11.238397    12A     -1.462073
      13A     -1.249839    14A     -1.112505    15A     -1.083836
      16A     -1.033676    17A     -0.999021    18A     -0.881870
      19A     -0.858904    20A     -0.797626    21A     -0.779865
      22A     -0.747553    23A     -0.685832    24A     -0.658557
      25A     -0.647178    26A     -0.638770    27A     -0.608558
      28A     -0.586702    29A     -0.577044    30A     -0.573119
      31A     -0.544383    32A     -0.540516    33A     -0.523733
      34A     -0.429714    35A     -0.414812    36A     -0.381195
      37A     -0.348884    38A     -0.295791

  @DF-RHF Final Energy:  -474.32563104087092

   => Energetics <=

    Nuclear Repulsion Energy =            539.8233530106523403
    One-Electron Energy =               -1714.2017943388602816
    Two-Electron Energy =                 700.0528102873369107
    Total Energy =                       -474.3256310408709169
  Basis Set: (AUG-CC-PVTZ AUX)
    Blend: AUG-CC-PVTZ-RI
    Molecular point group: c1

    Geometry (in Angstrom), charge = 0, multiplicity = 1:

       Center              X                  Y                   Z               Mass
    ------------   -----------------  -----------------  -----------------  -----------------
         O            3.057066722284    -0.717719248176     0.000060420583    15.994914619570
         N           -1.104274277716    -1.156785248176    -0.000079579417    14.003074004430
         C            0.946103722284     0.063829751824    -0.000014579417    12.000000000000
         C           -0.468124277716     0.063428951824    -0.000003979417    12.000000000000
         C            1.851444722284     1.175864751824    -0.000101579417    12.000000000000
         C           -1.263287277716     1.251373751824     0.000083420583    12.000000000000
         C            1.737030722284    -1.059479248176     0.000078420583    12.000000000000
         C           -2.654046277716     1.180188751824     0.000081420583    12.000000000000
         C            3.109988722284     0.647920751824    -0.000045579417    12.000000000000
         C           -3.263223277716    -0.073649248176     0.000002420583    12.000000000000
         C           -2.445033277716    -1.204770248176    -0.000071579417    12.000000000000
         H            1.611956722284     2.230779751824    -0.000211579417     1.007825032230
         H           -0.761815277716     2.215097751824     0.000158420583     1.007825032230
         H            1.511604722284    -2.114701248176     0.000158420583     1.007825032230
         H            4.100901722284     1.077275751824    -0.000071579417     1.007825032230
         H           -3.251066277716     2.089054751824     0.000145420583     1.007825032230
         H           -4.344591277716    -0.176826248176    -0.000001579417     1.007825032230
         H           -2.880116277716    -2.203163248176    -0.000130579417     1.007825032230

  Basis Set: AUG-CC-PVTZ
    Blend: AUG-CC-PVTZ
  Basis Set: (AUG-CC-PVTZ AUX)
    Blend: AUG-CC-PVTZ-JKFIT
	 Reference Energy          =    -474.3256310408709169 [Eh]
	 Singles Energy            =      -0.0000000000000000 [Eh]
	 Same-Spin Energy          =      -0.5150959254413998 [Eh]
	 Opposite-Spin Energy      =      -1.5584622021379801 [Eh]
	 Correlation Energy        =      -2.0735581275793802 [Eh]
	 Total Energy              =    -476.3991891684502775 [Eh]

	 ================> DF-SCS-MP2 Energies <==================
	-----------------------------------------------------------
	 SCS Same-Spin Scale       =       0.3333333333333333 [-]
	 SCS Opposite-Spin Scale   =       1.2000000000000000 [-]
	 SCS Same-Spin Energy      =      -0.1716986418137999 [Eh]
	 SCS Opposite-Spin Energy  =      -1.8701546425655762 [Eh]
	 SCS Correlation Energy    =      -2.0418532843793762 [Eh]
	 SCS Total Energy          =    -476.3674843252503024 [Eh]
	-----------------------------------------------------------

  Dipole Moment: [D]
     X:    -1.0881      Y:     2.0216      Z:     0.0001     Total:     2.2959

*** Psi4 exiting successfully. Buy a developer a beer!
