                               Psi4 1.3.2 release

  ==> Input File <==

--------------------------------------------------------------------------
#psi4
#
memory 32 gb

molecule  {
0 1
  O        3.0870850    -0.7380670     0.0000600
  N       -1.1579450    -1.1332729    -0.0000762
  C        0.9761220     0.0434820    -0.0000150
  C       -0.4881060     0.0430670    -0.0000040
  C        1.8814630     1.1555170    -0.0001020
  C       -1.2332690     1.2310260     0.0000830
  C        1.7670490    -1.0798270     0.0000780
  C       -2.6240280     1.1598410     0.0000810
  C        3.1400070     0.6275730    -0.0000460
  C       -3.2332050    -0.0939970     0.0000020
  C       -2.4150150    -1.2251180    -0.0000720
  H        1.6419750     2.2104320    -0.0002120
  H       -0.7317970     2.1947500     0.0001580
  H        1.5416230    -2.1350490     0.0001580
  H        4.1309200     1.0569280    -0.0000720
  H       -3.2210480     2.0687070     0.0001450
  H       -4.3145730    -0.1971740    -0.0000020
  H       -2.8500980    -2.2235110    -0.0001310
units angstrom
no_reorient  #important for SAPT in psi4, default
symmetry c1  #important for SAPT in psi4, default
}

set PROPERTIES_ORIGIN ["COM"]
properties('MP2/aug-cc-pvtz', properties = ['dipole'])
--------------------------------------------------------------------------

    Molecular point group: c1
  Charge       = 0
  Multiplicity = 1
  Basis Set: AUG-CC-PVTZ
    Blend: AUG-CC-PVTZ
  Basis Set: (AUG-CC-PVTZ AUX)
    Blend: AUG-CC-PVTZ-JKFIT

    Orbital Energies [Eh]
    ---------------------

    Doubly Occupied:

       1A    -20.629875     2A    -15.553406     3A    -11.295370
       4A    -11.295062     5A    -11.292344     6A    -11.268629
       7A    -11.258970     8A    -11.242249     9A    -11.241989
      10A    -11.239097    11A    -11.237546    12A     -1.460249
      13A     -1.277357    14A     -1.110218    15A     -1.086514
      16A     -1.037335    17A     -0.999357    18A     -0.879680
      19A     -0.859454    20A     -0.799875    21A     -0.780820
      22A     -0.747735    23A     -0.690511    24A     -0.666121
      25A     -0.645638    26A     -0.637092    27A     -0.608834
      28A     -0.587610    29A     -0.576850    30A     -0.571937
      31A     -0.557575    32A     -0.539468    33A     -0.527311
      34A     -0.426282    35A     -0.403204    36A     -0.388983
      37A     -0.349582    38A     -0.297757

  @DF-RHF Final Energy:  -474.32774377716021

   => Energetics <=

    Nuclear Repulsion Energy =            541.1294077627645720
    One-Electron Energy =               -1716.7785358605667625
    Two-Electron Energy =                 701.3213843206418687
    Total Energy =                       -474.3277437771602081
  Basis Set: (AUG-CC-PVTZ AUX)
    Blend: AUG-CC-PVTZ-RI
    Molecular point group: c1

    Geometry (in Angstrom), charge = 0, multiplicity = 1:

       Center              X                  Y                   Z               Mass
    ------------   -----------------  -----------------  -----------------  -----------------
         O            3.069282299660    -0.721952230781     0.000060020648    15.994914619570
         N           -1.175747700340    -1.117158130781    -0.000076179352    14.003074004430
         C            0.958319299660     0.059596769219    -0.000014979352    12.000000000000
         C           -0.505908700340     0.059181769219    -0.000003979352    12.000000000000
         C            1.863660299660     1.171631769219    -0.000101979352    12.000000000000
         C           -1.251071700340     1.247140769219     0.000083020648    12.000000000000
         C            1.749246299660    -1.063712230781     0.000078020648    12.000000000000
         C           -2.641830700340     1.175955769219     0.000081020648    12.000000000000
         C            3.122204299660     0.643687769219    -0.000045979352    12.000000000000
         C           -3.251007700340    -0.077882230781     0.000002020648    12.000000000000
         C           -2.432817700340    -1.209003230781    -0.000071979352    12.000000000000
         H            1.624172299660     2.226546769219    -0.000211979352     1.007825032230
         H           -0.749599700340     2.210864769219     0.000158020648     1.007825032230
         H            1.523820299660    -2.118934230781     0.000158020648     1.007825032230
         H            4.113117299660     1.073042769219    -0.000071979352     1.007825032230
         H           -3.238850700340     2.084821769219     0.000145020648     1.007825032230
         H           -4.332375700340    -0.181059230781    -0.000001979352     1.007825032230
         H           -2.867900700340    -2.207396230781    -0.000130979352     1.007825032230

  Basis Set: AUG-CC-PVTZ
    Blend: AUG-CC-PVTZ
  Basis Set: (AUG-CC-PVTZ AUX)
    Blend: AUG-CC-PVTZ-JKFIT
	 Reference Energy          =    -474.3277437771602081 [Eh]
	 Singles Energy            =      -0.0000000000000000 [Eh]
	 Same-Spin Energy          =      -0.5134695048224589 [Eh]
	 Opposite-Spin Energy      =      -1.5545129057434779 [Eh]
	 Correlation Energy        =      -2.0679824105659366 [Eh]
	 Total Energy              =    -476.3957261877261544 [Eh]

	 ================> DF-SCS-MP2 Energies <==================
	-----------------------------------------------------------
	 SCS Same-Spin Scale       =       0.3333333333333333 [-]
	 SCS Opposite-Spin Scale   =       1.2000000000000000 [-]
	 SCS Same-Spin Energy      =      -0.1711565016074863 [Eh]
	 SCS Opposite-Spin Energy  =      -1.8654154868921733 [Eh]
	 SCS Correlation Energy    =      -2.0365719884996594 [Eh]
	 SCS Total Energy          =    -476.3643157656598532 [Eh]
	-----------------------------------------------------------

  Dipole Moment: [D]
     X:    -1.0943      Y:     1.9215      Z:     0.0001     Total:     2.2113

*** Psi4 exiting successfully. Buy a developer a beer!
