                               Psi4 1.3.2 release

  ==> Input File <==

--------------------------------------------------------------------------
#psi4
#
memory 32 gb

molecule  {
0 1
  O        3.0870850    -0.7380670     0.0000600
  N       -1.0742560    -1.1771330    -0.0000800
  C        0.9761220     0.0434820    -0.0000150
  C       -0.4881060     0.0430670    -0.0000040
  C        1.8814630     1.1555170    -0.0001020
  C       -1.1801313     1.1463125     0.0000768
  C        1.7670490    -1.0798270     0.0000780
  C       -2.6240280     1.1598410     0.0000810
  C        3.1400070     0.6275730    -0.0000460
  C       -3.2332050    -0.0939970     0.0000020
  C       -2.4150150    -1.2251180    -0.0000720
  H        1.6419750     2.2104320    -0.0002120
  H       -0.7317970     2.1947500     0.0001580
  H        1.5416230    -2.1350490     0.0001580
  H        4.1309200     1.0569280    -0.0000720
  H       -3.2210480     2.0687070     0.0001450
  H       -4.3145730    -0.1971740    -0.0000020
  H       -2.8500980    -2.2235110    -0.0001310
units angstrom
no_reorient  #important for SAPT in psi4, default
symmetry c1  #important for SAPT in psi4, default
}

set PROPERTIES_ORIGIN ["COM"]
properties('MP2/aug-cc-pvtz', properties = ['dipole'])
--------------------------------------------------------------------------

    Molecular point group: c1
  Charge       = 0
  Multiplicity = 1
  Basis Set: AUG-CC-PVTZ
    Blend: AUG-CC-PVTZ
  Basis Set: (AUG-CC-PVTZ AUX)
    Blend: AUG-CC-PVTZ-JKFIT

    Orbital Energies [Eh]
    ---------------------

    Doubly Occupied:

       1A    -20.625494     2A    -15.565709     3A    -11.291031
       4A    -11.289833     5A    -11.281957     6A    -11.276488
       7A    -11.271144     8A    -11.244245     9A    -11.241213
      10A    -11.236224    11A    -11.234572    12A     -1.455899
      13A     -1.263712    14A     -1.106009    15A     -1.084364
      16A     -1.040778    17A     -0.998282    18A     -0.878349
      19A     -0.862746    20A     -0.792878    21A     -0.778718
      22A     -0.745016    23A     -0.683490    24A     -0.669581
      25A     -0.640290    26A     -0.633206    27A     -0.605738
      28A     -0.583258    29A     -0.580437    30A     -0.571120
      31A     -0.554900    32A     -0.534981    33A     -0.503696
      34A     -0.425460    35A     -0.424418    36A     -0.377784
      37A     -0.353798    38A     -0.301731

  @DF-RHF Final Energy:  -474.31781329138107

   => Energetics <=

    Nuclear Repulsion Energy =            541.4304017653447545
    One-Electron Energy =               -1717.4793297962203269
    Two-Electron Energy =                 701.7311147394946147
    Total Energy =                       -474.3178132913810714
  Basis Set: (AUG-CC-PVTZ AUX)
    Blend: AUG-CC-PVTZ-RI
    Molecular point group: c1

    Geometry (in Angstrom), charge = 0, multiplicity = 1:

       Center              X                  Y                   Z               Mass
    ------------   -----------------  -----------------  -----------------  -----------------
         O            3.056807145017    -0.710709851229     0.000060900409    15.994914619570
         N           -1.104533854983    -1.149775851229    -0.000079099591    14.003074004430
         C            0.945844145017     0.070839148771    -0.000014099591    12.000000000000
         C           -0.518383854983     0.070424148771    -0.000003099591    12.000000000000
         C            1.851185145017     1.182874148771    -0.000101099591    12.000000000000
         C           -1.210409154983     1.173669648771     0.000077700409    12.000000000000
         C            1.736771145017    -1.052469851229     0.000078900409    12.000000000000
         C           -2.654305854983     1.187198148771     0.000081900409    12.000000000000
         C            3.109729145017     0.654930148771    -0.000045099591    12.000000000000
         C           -3.263482854983    -0.066639851229     0.000002900409    12.000000000000
         C           -2.445292854983    -1.197760851229    -0.000071099591    12.000000000000
         H            1.611697145017     2.237789148771    -0.000211099591     1.007825032230
         H           -0.762074854983     2.222107148771     0.000158900409     1.007825032230
         H            1.511345145017    -2.107691851229     0.000158900409     1.007825032230
         H            4.100642145017     1.084285148771    -0.000071099591     1.007825032230
         H           -3.251325854983     2.096064148771     0.000145900409     1.007825032230
         H           -4.344850854983    -0.169816851229    -0.000001099591     1.007825032230
         H           -2.880375854983    -2.196153851229    -0.000130099591     1.007825032230

  Basis Set: AUG-CC-PVTZ
    Blend: AUG-CC-PVTZ
  Basis Set: (AUG-CC-PVTZ AUX)
    Blend: AUG-CC-PVTZ-JKFIT
	 Reference Energy          =    -474.3178132913810714 [Eh]
	 Singles Energy            =      -0.0000000000000000 [Eh]
	 Same-Spin Energy          =      -0.5141313126682753 [Eh]
	 Opposite-Spin Energy      =      -1.5575322744270985 [Eh]
	 Correlation Energy        =      -2.0716635870953737 [Eh]
	 Total Energy              =    -476.3894768784764437 [Eh]

	 ================> DF-SCS-MP2 Energies <==================
	-----------------------------------------------------------
	 SCS Same-Spin Scale       =       0.3333333333333333 [-]
	 SCS Opposite-Spin Scale   =       1.2000000000000000 [-]
	 SCS Same-Spin Energy      =      -0.1713771042227584 [Eh]
	 SCS Opposite-Spin Energy  =      -1.8690387293125181 [Eh]
	 SCS Correlation Energy    =      -2.0404158335352767 [Eh]
	 SCS Total Energy          =    -476.3582291249163632 [Eh]
	-----------------------------------------------------------

  Dipole Moment: [D]
     X:    -1.5609      Y:     2.0020      Z:     0.0001     Total:     2.5385

*** Psi4 exiting successfully. Buy a developer a beer!
