                               Psi4 1.3.2 release

  ==> Input File <==

--------------------------------------------------------------------------
#psi4
#
memory 32 gb

molecule  {
0 1
  O        3.0870850    -0.7380670     0.0000600
  N       -1.0742560    -1.1771330    -0.0000800
  C        1.0154830     0.0125635    -0.0000110
  C       -0.4881060     0.0430670    -0.0000040
  C        1.8814630     1.1555170    -0.0001020
  C       -1.2332690     1.2310260     0.0000830
  C        1.7670490    -1.0798270     0.0000780
  C       -2.6240280     1.1598410     0.0000810
  C        3.1400070     0.6275730    -0.0000460
  C       -3.2332050    -0.0939970     0.0000020
  C       -2.4150150    -1.2251180    -0.0000720
  H        1.6419750     2.2104320    -0.0002120
  H       -0.7317970     2.1947500     0.0001580
  H        1.5416230    -2.1350490     0.0001580
  H        4.1309200     1.0569280    -0.0000720
  H       -3.2210480     2.0687070     0.0001450
  H       -4.3145730    -0.1971740    -0.0000020
  H       -2.8500980    -2.2235110    -0.0001310
units angstrom
no_reorient  #important for SAPT in psi4, default
symmetry c1  #important for SAPT in psi4, default
}

set PROPERTIES_ORIGIN ["COM"]
properties('MP2/aug-cc-pvtz', properties = ['dipole'])
--------------------------------------------------------------------------

    Molecular point group: c1
  Charge       = 0
  Multiplicity = 1
  Basis Set: AUG-CC-PVTZ
    Blend: AUG-CC-PVTZ
  Basis Set: (AUG-CC-PVTZ AUX)
    Blend: AUG-CC-PVTZ-JKFIT

    Orbital Energies [Eh]
    ---------------------

    Doubly Occupied:

       1A    -20.623816     2A    -15.566106     3A    -11.294564
       4A    -11.293570     5A    -11.284489     6A    -11.279492
       7A    -11.263946     8A    -11.244566     9A    -11.241849
      10A    -11.235889    11A    -11.234859    12A     -1.457717
      13A     -1.258017    14A     -1.106240    15A     -1.088986
      16A     -1.032828    17A     -1.003060    18A     -0.870518
      19A     -0.863054    20A     -0.799817    21A     -0.775274
      22A     -0.744514    23A     -0.686660    24A     -0.662194
      25A     -0.644459    26A     -0.635894    27A     -0.605624
      28A     -0.585119    29A     -0.577540    30A     -0.570030
      31A     -0.547828    32A     -0.541202    33A     -0.515579
      34A     -0.423892    35A     -0.422032    36A     -0.383956
      37A     -0.348309    38A     -0.306651

  @DF-RHF Final Energy:  -474.33055275909288

   => Energetics <=

    Nuclear Repulsion Energy =            540.0230068281686044
    One-Electron Energy =               -1714.6668413141578640
    Two-Electron Energy =                 700.3132817268965482
    Total Energy =                       -474.3305527590928250
  Basis Set: (AUG-CC-PVTZ AUX)
    Blend: AUG-CC-PVTZ-RI
    Molecular point group: c1

    Geometry (in Angstrom), charge = 0, multiplicity = 1:

       Center              X                  Y                   Z               Mass
    ------------   -----------------  -----------------  -----------------  -----------------
         O            3.057946870973    -0.715160231787     0.000060056578    15.994914619570
         N           -1.103394129027    -1.154226231787    -0.000079943422    14.003074004430
         C            0.986344870973     0.035470268213    -0.000010943422    12.000000000000
         C           -0.517244129027     0.065973768213    -0.000003943422    12.000000000000
         C            1.852324870973     1.178423768213    -0.000101943422    12.000000000000
         C           -1.262407129027     1.253932768213     0.000083056578    12.000000000000
         C            1.737910870973    -1.056920231787     0.000078056578    12.000000000000
         C           -2.653166129027     1.182747768213     0.000081056578    12.000000000000
         C            3.110868870973     0.650479768213    -0.000045943422    12.000000000000
         C           -3.262343129027    -0.071090231787     0.000002056578    12.000000000000
         C           -2.444153129027    -1.202211231787    -0.000071943422    12.000000000000
         H            1.612836870973     2.233338768213    -0.000211943422     1.007825032230
         H           -0.760935129027     2.217656768213     0.000158056578     1.007825032230
         H            1.512484870973    -2.112142231787     0.000158056578     1.007825032230
         H            4.101781870973     1.079834768213    -0.000071943422     1.007825032230
         H           -3.250186129027     2.091613768213     0.000145056578     1.007825032230
         H           -4.343711129027    -0.174267231787    -0.000001943422     1.007825032230
         H           -2.879236129027    -2.200604231787    -0.000130943422     1.007825032230

  Basis Set: AUG-CC-PVTZ
    Blend: AUG-CC-PVTZ
  Basis Set: (AUG-CC-PVTZ AUX)
    Blend: AUG-CC-PVTZ-JKFIT
	 Reference Energy          =    -474.3305527590928818 [Eh]
	 Singles Energy            =      -0.0000000000000000 [Eh]
	 Same-Spin Energy          =      -0.5130993399495543 [Eh]
	 Opposite-Spin Energy      =      -1.5552015972352504 [Eh]
	 Correlation Energy        =      -2.0683009371848047 [Eh]
	 Total Energy              =    -476.3988536962776834 [Eh]

	 ================> DF-SCS-MP2 Energies <==================
	-----------------------------------------------------------
	 SCS Same-Spin Scale       =       0.3333333333333333 [-]
	 SCS Opposite-Spin Scale   =       1.2000000000000000 [-]
	 SCS Same-Spin Energy      =      -0.1710331133165181 [Eh]
	 SCS Opposite-Spin Energy  =      -1.8662419166823003 [Eh]
	 SCS Correlation Energy    =      -2.0372750299988183 [Eh]
	 SCS Total Energy          =    -476.3678277890916775 [Eh]
	-----------------------------------------------------------

  Dipole Moment: [D]
     X:    -1.4174      Y:     2.0323      Z:     0.0001     Total:     2.4777

*** Psi4 exiting successfully. Buy a developer a beer!
