                               Psi4 1.3.2 release

  ==> Input File <==

--------------------------------------------------------------------------
#psi4
#
memory 32 gb

molecule  {
0 1
  O        3.0870850    -0.7380670     0.0000600
  N       -1.0742560    -1.1771330    -0.0000800
  C        0.9761220     0.0434820    -0.0000150
  C       -0.5094907     0.0531109    -0.0000032
  C        1.8814630     1.1555170    -0.0001020
  C       -1.2332690     1.2310260     0.0000830
  C        1.7670490    -1.0798270     0.0000780
  C       -2.6240280     1.1598410     0.0000810
  C        3.1400070     0.6275730    -0.0000460
  C       -3.2332050    -0.0939970     0.0000020
  C       -2.4150150    -1.2251180    -0.0000720
  H        1.6419750     2.2104320    -0.0002120
  H       -0.7317970     2.1947500     0.0001580
  H        1.5416230    -2.1350490     0.0001580
  H        4.1309200     1.0569280    -0.0000720
  H       -3.2210480     2.0687070     0.0001450
  H       -4.3145730    -0.1971740    -0.0000020
  H       -2.8500980    -2.2235110    -0.0001310
units angstrom
no_reorient  #important for SAPT in psi4, default
symmetry c1  #important for SAPT in psi4, default
}

set PROPERTIES_ORIGIN ["COM"]
properties('MP2/aug-cc-pvtz', properties = ['dipole'])
--------------------------------------------------------------------------

    Molecular point group: c1
  Charge       = 0
  Multiplicity = 1
  Basis Set: AUG-CC-PVTZ
    Blend: AUG-CC-PVTZ
  Basis Set: (AUG-CC-PVTZ AUX)
    Blend: AUG-CC-PVTZ-JKFIT

    Orbital Energies [Eh]
    ---------------------

    Doubly Occupied:

       1A    -20.627319     2A    -15.566767     3A    -11.292195
       4A    -11.291999     5A    -11.291290     6A    -11.280349
       7A    -11.264515     8A    -11.242072     9A    -11.241915
      10A    -11.239188    11A    -11.236002    12A     -1.457524
      13A     -1.260490    14A     -1.102869    15A     -1.090834
      16A     -1.034834    17A     -0.997701    18A     -0.873719
      19A     -0.864848    20A     -0.794931    21A     -0.776884
      22A     -0.743951    23A     -0.687360    24A     -0.664348
      25A     -0.646240    26A     -0.634349    27A     -0.606380
      28A     -0.585827    29A     -0.574390    30A     -0.571143
      31A     -0.550471    32A     -0.537160    33A     -0.517294
      34A     -0.425432    35A     -0.422581    36A     -0.384588
      37A     -0.349400    38A     -0.300163

  @DF-RHF Final Energy:  -474.33092991721088

   => Energetics <=

    Nuclear Repulsion Energy =            539.8873825940625011
    One-Electron Energy =               -1714.3779741774180820
    Two-Electron Energy =                 700.1596616661447570
    Total Energy =                       -474.3309299172108240
  Basis Set: (AUG-CC-PVTZ AUX)
    Blend: AUG-CC-PVTZ-RI
    Molecular point group: c1

    Geometry (in Angstrom), charge = 0, multiplicity = 1:

       Center              X                  Y                   Z               Mass
    ------------   -----------------  -----------------  -----------------  -----------------
         O            3.062972272632    -0.718548990380     0.000060321309    15.994914619570
         N           -1.098368727368    -1.157614990380    -0.000079678691    14.003074004430
         C            0.952009272632     0.063000009620    -0.000014678691    12.000000000000
         C           -0.533603427368     0.072628909620    -0.000002878691    12.000000000000
         C            1.857350272632     1.175035009620    -0.000101678691    12.000000000000
         C           -1.257381727368     1.250544009620     0.000083321309    12.000000000000
         C            1.742936272632    -1.060308990380     0.000078321309    12.000000000000
         C           -2.648140727368     1.179359009620     0.000081321309    12.000000000000
         C            3.115894272632     0.647091009620    -0.000045678691    12.000000000000
         C           -3.257317727368    -0.074478990380     0.000002321309    12.000000000000
         C           -2.439127727368    -1.205599990380    -0.000071678691    12.000000000000
         H            1.617862272632     2.229950009620    -0.000211678691     1.007825032230
         H           -0.755909727368     2.214268009620     0.000158321309     1.007825032230
         H            1.517510272632    -2.115530990380     0.000158321309     1.007825032230
         H            4.106807272632     1.076446009620    -0.000071678691     1.007825032230
         H           -3.245160727368     2.088225009620     0.000145321309     1.007825032230
         H           -4.338685727368    -0.177655990380    -0.000001678691     1.007825032230
         H           -2.874210727368    -2.203992990380    -0.000130678691     1.007825032230

  Basis Set: AUG-CC-PVTZ
    Blend: AUG-CC-PVTZ
  Basis Set: (AUG-CC-PVTZ AUX)
    Blend: AUG-CC-PVTZ-JKFIT
	 Reference Energy          =    -474.3309299172108808 [Eh]
	 Singles Energy            =      -0.0000000000000000 [Eh]
	 Same-Spin Energy          =      -0.5139606169675688 [Eh]
	 Opposite-Spin Energy      =      -1.5566563513011049 [Eh]
	 Correlation Energy        =      -2.0706169682686735 [Eh]
	 Total Energy              =    -476.4015468854795472 [Eh]

	 ================> DF-SCS-MP2 Energies <==================
	-----------------------------------------------------------
	 SCS Same-Spin Scale       =       0.3333333333333333 [-]
	 SCS Opposite-Spin Scale   =       1.2000000000000000 [-]
	 SCS Same-Spin Energy      =      -0.1713202056558563 [Eh]
	 SCS Opposite-Spin Energy  =      -1.8679876215613258 [Eh]
	 SCS Correlation Energy    =      -2.0393078272171818 [Eh]
	 SCS Total Energy          =    -476.3702377444280387 [Eh]
	-----------------------------------------------------------

  Dipole Moment: [D]
     X:    -1.4645      Y:     2.0250      Z:     0.0001     Total:     2.4991

*** Psi4 exiting successfully. Buy a developer a beer!
