                               Psi4 1.3.2 release

  ==> Input File <==

--------------------------------------------------------------------------
#psi4
#
memory 32 gb

molecule  {
0 1
  O        3.0870850    -0.7380670     0.0000600
  N       -1.0742560    -1.1771330    -0.0000800
  C        0.9761220     0.0434820    -0.0000150
  C       -0.4881060     0.0430670    -0.0000040
  C        1.8331723     1.0210712    -0.0000913
  C       -1.2332690     1.2310260     0.0000830
  C        1.7670490    -1.0798270     0.0000780
  C       -2.6240280     1.1598410     0.0000810
  C        3.1400070     0.6275730    -0.0000460
  C       -3.2332050    -0.0939970     0.0000020
  C       -2.4150150    -1.2251180    -0.0000720
  H        1.6419750     2.2104320    -0.0002120
  H       -0.7317970     2.1947500     0.0001580
  H        1.5416230    -2.1350490     0.0001580
  H        4.1309200     1.0569280    -0.0000720
  H       -3.2210480     2.0687070     0.0001450
  H       -4.3145730    -0.1971740    -0.0000020
  H       -2.8500980    -2.2235110    -0.0001310
units angstrom
no_reorient  #important for SAPT in psi4, default
symmetry c1  #important for SAPT in psi4, default
}

set PROPERTIES_ORIGIN ["COM"]
properties('MP2/aug-cc-pvtz', properties = ['dipole'])
--------------------------------------------------------------------------

    Molecular point group: c1
  Charge       = 0
  Multiplicity = 1
  Basis Set: AUG-CC-PVTZ
    Blend: AUG-CC-PVTZ
  Basis Set: (AUG-CC-PVTZ AUX)
    Blend: AUG-CC-PVTZ-JKFIT

    Orbital Energies [Eh]
    ---------------------

    Doubly Occupied:

       1A    -20.629677     2A    -15.567793     3A    -11.294295
       4A    -11.293865     5A    -11.285997     6A    -11.280567
       7A    -11.264295     8A    -11.244535     9A    -11.242799
      10A    -11.234972    11A    -11.227728    12A     -1.462191
      13A     -1.260619    14A     -1.129792    15A     -1.090027
      16A     -1.036265    17A     -0.997051    18A     -0.877298
      19A     -0.865256    20A     -0.792273    21A     -0.783401
      22A     -0.742636    23A     -0.692479    24A     -0.661885
      25A     -0.647940    26A     -0.638885    27A     -0.608769
      28A     -0.596373    29A     -0.578984    30A     -0.550773
      31A     -0.547100    32A     -0.526462    33A     -0.525100
      34A     -0.438710    35A     -0.423510    36A     -0.385457
      37A     -0.347067    38A     -0.295664

  @DF-RHF Final Energy:  -474.29920704849286

   => Energetics <=

    Nuclear Repulsion Energy =            542.7205442566967122
    One-Electron Energy =               -1719.9025263104169881
    Two-Electron Energy =                 702.8827750052273586
    Total Energy =                       -474.2992070484929172
  Basis Set: (AUG-CC-PVTZ AUX)
    Blend: AUG-CC-PVTZ-RI
    Molecular point group: c1

    Geometry (in Angstrom), charge = 0, multiplicity = 1:

       Center              X                  Y                   Z               Mass
    ------------   -----------------  -----------------  -----------------  -----------------
         O            3.065198166103    -0.706595571817     0.000059502297    15.994914619570
         N           -1.096142833897    -1.145661571817    -0.000080497703    14.003074004430
         C            0.954235166103     0.074953428183    -0.000015497703    12.000000000000
         C           -0.509992833897     0.074538428183    -0.000004497703    12.000000000000
         C            1.811285466103     1.052542628183    -0.000091797703    12.000000000000
         C           -1.255155833897     1.262497428183     0.000082502297    12.000000000000
         C            1.745162166103    -1.048355571817     0.000077502297    12.000000000000
         C           -2.645914833897     1.191312428183     0.000080502297    12.000000000000
         C            3.118120166103     0.659044428183    -0.000046497703    12.000000000000
         C           -3.255091833897    -0.062525571817     0.000001502297    12.000000000000
         C           -2.436901833897    -1.193646571817    -0.000072497703    12.000000000000
         H            1.620088166103     2.241903428183    -0.000212497703     1.007825032230
         H           -0.753683833897     2.226221428183     0.000157502297     1.007825032230
         H            1.519736166103    -2.103577571817     0.000157502297     1.007825032230
         H            4.109033166103     1.088399428183    -0.000072497703     1.007825032230
         H           -3.242934833897     2.100178428183     0.000144502297     1.007825032230
         H           -4.336459833897    -0.165702571817    -0.000002497703     1.007825032230
         H           -2.871984833897    -2.192039571817    -0.000131497703     1.007825032230

  Basis Set: AUG-CC-PVTZ
    Blend: AUG-CC-PVTZ
  Basis Set: (AUG-CC-PVTZ AUX)
    Blend: AUG-CC-PVTZ-JKFIT
	 Reference Energy          =    -474.2992070484928604 [Eh]
	 Singles Energy            =      -0.0000000000000000 [Eh]
	 Same-Spin Energy          =      -0.5171359915254369 [Eh]
	 Opposite-Spin Energy      =      -1.5601260066016509 [Eh]
	 Correlation Energy        =      -2.0772619981270877 [Eh]
	 Total Energy              =    -476.3764690466199454 [Eh]

	 ================> DF-SCS-MP2 Energies <==================
	-----------------------------------------------------------
	 SCS Same-Spin Scale       =       0.3333333333333333 [-]
	 SCS Opposite-Spin Scale   =       1.2000000000000000 [-]
	 SCS Same-Spin Energy      =      -0.1723786638418123 [Eh]
	 SCS Opposite-Spin Energy  =      -1.8721512079219811 [Eh]
	 SCS Correlation Energy    =      -2.0445298717637934 [Eh]
	 SCS Total Energy          =    -476.3437369202566742 [Eh]
	-----------------------------------------------------------

  Dipole Moment: [D]
     X:    -1.4411      Y:     1.9626      Z:     0.0001     Total:     2.4348

*** Psi4 exiting successfully. Buy a developer a beer!
