                               Psi4 1.3.2 release

  ==> Input File <==

--------------------------------------------------------------------------
#psi4
#
memory 32 gb

molecule  {
0 1
  O        3.0870850    -0.7380670     0.0000600
  N       -1.0742560    -1.1771330    -0.0000800
  C        0.9761220     0.0434820    -0.0000150
  C       -0.4881060     0.0430670    -0.0000040
  C        1.8814630     1.1555170    -0.0001020
  C       -1.2332690     1.2310260     0.0000830
  C        1.7941045    -1.1710755     0.0000853
  C       -2.6240280     1.1598410     0.0000810
  C        3.1400070     0.6275730    -0.0000460
  C       -3.2332050    -0.0939970     0.0000020
  C       -2.4150150    -1.2251180    -0.0000720
  H        1.6419750     2.2104320    -0.0002120
  H       -0.7317970     2.1947500     0.0001580
  H        1.5416230    -2.1350490     0.0001580
  H        4.1309200     1.0569280    -0.0000720
  H       -3.2210480     2.0687070     0.0001450
  H       -4.3145730    -0.1971740    -0.0000020
  H       -2.8500980    -2.2235110    -0.0001310
units angstrom
no_reorient  #important for SAPT in psi4, default
symmetry c1  #important for SAPT in psi4, default
}

set PROPERTIES_ORIGIN ["COM"]
properties('MP2/aug-cc-pvtz', properties = ['dipole'])
--------------------------------------------------------------------------

    Molecular point group: c1
  Charge       = 0
  Multiplicity = 1
  Basis Set: AUG-CC-PVTZ
    Blend: AUG-CC-PVTZ
  Basis Set: (AUG-CC-PVTZ AUX)
    Blend: AUG-CC-PVTZ-JKFIT

    Orbital Energies [Eh]
    ---------------------

    Doubly Occupied:

       1A    -20.632498     2A    -15.564257     3A    -11.300311
       4A    -11.295291     5A    -11.290446     6A    -11.278438
       7A    -11.262203     8A    -11.248984     9A    -11.241868
      10A    -11.239568    11A    -11.239348    12A     -1.457206
      13A     -1.256971    14A     -1.095408    15A     -1.087299
      16A     -1.035006    17A     -0.995652    18A     -0.876260
      19A     -0.861858    20A     -0.792595    21A     -0.788100
      22A     -0.746346    23A     -0.687268    24A     -0.661310
      25A     -0.649186    26A     -0.633195    27A     -0.624857
      28A     -0.583028    29A     -0.579644    30A     -0.569695
      31A     -0.547473    32A     -0.525537    33A     -0.518718
      34A     -0.420928    35A     -0.419568    36A     -0.382867
      37A     -0.348496    38A     -0.289187

  @DF-RHF Final Energy:  -474.31298528450378

   => Energetics <=

    Nuclear Repulsion Energy =            538.1827932709571769
    One-Electron Energy =               -1710.9378206658689123
    Two-Electron Energy =                 698.4420421104080106
    Total Energy =                       -474.3129852845038386
  Basis Set: (AUG-CC-PVTZ AUX)
    Blend: AUG-CC-PVTZ-RI
    Molecular point group: c1

    Geometry (in Angstrom), charge = 0, multiplicity = 1:

       Center              X                  Y                   Z               Mass
    ------------   -----------------  -----------------  -----------------  -----------------
         O            3.058964886736    -0.710169220373     0.000059783574    15.994914619570
         N           -1.102376113264    -1.149235220373    -0.000080216426    14.003074004430
         C            0.948001886736     0.071379779627    -0.000015216426    12.000000000000
         C           -0.516226113264     0.070964779627    -0.000004216426    12.000000000000
         C            1.853342886736     1.183414779627    -0.000102216426    12.000000000000
         C           -1.261389113264     1.258923779627     0.000082783574    12.000000000000
         C            1.765984386736    -1.143177720373     0.000085083574    12.000000000000
         C           -2.652148113264     1.187738779627     0.000080783574    12.000000000000
         C            3.111886886736     0.655470779627    -0.000046216426    12.000000000000
         C           -3.261325113264    -0.066099220373     0.000001783574    12.000000000000
         C           -2.443135113264    -1.197220220373    -0.000072216426    12.000000000000
         H            1.613854886736     2.238329779627    -0.000212216426     1.007825032230
         H           -0.759917113264     2.222647779627     0.000157783574     1.007825032230
         H            1.513502886736    -2.107151220373     0.000157783574     1.007825032230
         H            4.102799886736     1.084825779627    -0.000072216426     1.007825032230
         H           -3.249168113264     2.096604779627     0.000144783574     1.007825032230
         H           -4.342693113264    -0.169276220373    -0.000002216426     1.007825032230
         H           -2.878218113264    -2.195613220373    -0.000131216426     1.007825032230

  Basis Set: AUG-CC-PVTZ
    Blend: AUG-CC-PVTZ
  Basis Set: (AUG-CC-PVTZ AUX)
    Blend: AUG-CC-PVTZ-JKFIT
	 Reference Energy          =    -474.3129852845037817 [Eh]
	 Singles Energy            =      -0.0000000000000000 [Eh]
	 Same-Spin Energy          =      -0.5158242621049396 [Eh]
	 Opposite-Spin Energy      =      -1.5597522649891267 [Eh]
	 Correlation Energy        =      -2.0755765270940660 [Eh]
	 Total Energy              =    -476.3885618115978673 [Eh]

	 ================> DF-SCS-MP2 Energies <==================
	-----------------------------------------------------------
	 SCS Same-Spin Scale       =       0.3333333333333333 [-]
	 SCS Opposite-Spin Scale   =       1.2000000000000000 [-]
	 SCS Same-Spin Energy      =      -0.1719414207016465 [Eh]
	 SCS Opposite-Spin Energy  =      -1.8717027179869519 [Eh]
	 SCS Correlation Energy    =      -2.0436441386885984 [Eh]
	 SCS Total Energy          =    -476.3566294231923735 [Eh]
	-----------------------------------------------------------

  Dipole Moment: [D]
     X:    -1.1818      Y:     2.0325      Z:     0.0001     Total:     2.3511

*** Psi4 exiting successfully. Buy a developer a beer!
