                               Psi4 1.3.2 release

  ==> Input File <==

--------------------------------------------------------------------------
#psi4
#
memory 32 gb

molecule  {
0 1
  O        3.0870850    -0.7380670     0.0000600
  N       -1.0742560    -1.1771330    -0.0000800
  C        0.9761220     0.0434820    -0.0000150
  C       -0.4800414    -0.1099842     0.0000094
  C        1.8814630     1.1555170    -0.0001020
  C       -1.2332690     1.2310260     0.0000830
  C        1.7670490    -1.0798270     0.0000780
  C       -2.6240280     1.1598410     0.0000810
  C        3.1400070     0.6275730    -0.0000460
  C       -3.2332050    -0.0939970     0.0000020
  C       -2.4150150    -1.2251180    -0.0000720
  H        1.6419750     2.2104320    -0.0002120
  H       -0.7317970     2.1947500     0.0001580
  H        1.5416230    -2.1350490     0.0001580
  H        4.1309200     1.0569280    -0.0000720
  H       -3.2210480     2.0687070     0.0001450
  H       -4.3145730    -0.1971740    -0.0000020
  H       -2.8500980    -2.2235110    -0.0001310
units angstrom
no_reorient  #important for SAPT in psi4, default
symmetry c1  #important for SAPT in psi4, default
}

set PROPERTIES_ORIGIN ["COM"]
properties('MP2/aug-cc-pvtz', properties = ['dipole'])
--------------------------------------------------------------------------

    Molecular point group: c1
  Charge       = 0
  Multiplicity = 1
  Basis Set: AUG-CC-PVTZ
    Blend: AUG-CC-PVTZ
  Basis Set: (AUG-CC-PVTZ AUX)
    Blend: AUG-CC-PVTZ-JKFIT

    Orbital Energies [Eh]
    ---------------------

    Doubly Occupied:

       1A    -20.629791     2A    -15.554408     3A    -11.295866
       4A    -11.294029     5A    -11.293930     6A    -11.277842
       7A    -11.256615     8A    -11.249783     9A    -11.242212
      10A    -11.240184    11A    -11.238591    12A     -1.460290
      13A     -1.294233    14A     -1.106530    15A     -1.089636
      16A     -1.028263    17A     -0.996370    18A     -0.878233
      19A     -0.860839    20A     -0.801529    21A     -0.774560
      22A     -0.745468    23A     -0.695411    24A     -0.658121
      25A     -0.646229    26A     -0.637327    27A     -0.606114
      28A     -0.581435    29A     -0.579459    30A     -0.570361
      31A     -0.562381    32A     -0.540015    33A     -0.527911
      34A     -0.427024    35A     -0.403070    36A     -0.392549
      37A     -0.341707    38A     -0.297902

  @DF-RHF Final Energy:  -474.30702463321188

   => Energetics <=

    Nuclear Repulsion Energy =            540.4692134291879029
    One-Electron Energy =               -1715.4000430483119999
    Two-Electron Energy =                 700.6238049859122157
    Total Energy =                       -474.3070246332118813
  Basis Set: (AUG-CC-PVTZ AUX)
    Blend: AUG-CC-PVTZ-RI
    Molecular point group: c1

    Geometry (in Angstrom), charge = 0, multiplicity = 1:

       Center              X                  Y                   Z               Mass
    ------------   -----------------  -----------------  -----------------  -----------------
         O            3.060535975724    -0.705056374672     0.000059278930    15.994914619570
         N           -1.100805024276    -1.144122374672    -0.000080721070    14.003074004430
         C            0.949572975724     0.076492625328    -0.000015721070    12.000000000000
         C           -0.506590424276    -0.076973574672     0.000008678930    12.000000000000
         C            1.854913975724     1.188527625328    -0.000102721070    12.000000000000
         C           -1.259818024276     1.264036625328     0.000082278930    12.000000000000
         C            1.740499975724    -1.046816374672     0.000077278930    12.000000000000
         C           -2.650577024276     1.192851625328     0.000080278930    12.000000000000
         C            3.113457975724     0.660583625328    -0.000046721070    12.000000000000
         C           -3.259754024276    -0.060986374672     0.000001278930    12.000000000000
         C           -2.441564024276    -1.192107374672    -0.000072721070    12.000000000000
         H            1.615425975724     2.243442625328    -0.000212721070     1.007825032230
         H           -0.758346024276     2.227760625328     0.000157278930     1.007825032230
         H            1.515073975724    -2.102038374672     0.000157278930     1.007825032230
         H            4.104370975724     1.089938625328    -0.000072721070     1.007825032230
         H           -3.247597024276     2.101717625328     0.000144278930     1.007825032230
         H           -4.341122024276    -0.164163374672    -0.000002721070     1.007825032230
         H           -2.876647024276    -2.190500374672    -0.000131721070     1.007825032230

  Basis Set: AUG-CC-PVTZ
    Blend: AUG-CC-PVTZ
  Basis Set: (AUG-CC-PVTZ AUX)
    Blend: AUG-CC-PVTZ-JKFIT
	 Reference Energy          =    -474.3070246332118813 [Eh]
	 Singles Energy            =      -0.0000000000000000 [Eh]
	 Same-Spin Energy          =      -0.5127081102983012 [Eh]
	 Opposite-Spin Energy      =      -1.5553525509599178 [Eh]
	 Correlation Energy        =      -2.0680606612582189 [Eh]
	 Total Energy              =    -476.3750852944701251 [Eh]

	 ================> DF-SCS-MP2 Energies <==================
	-----------------------------------------------------------
	 SCS Same-Spin Scale       =       0.3333333333333333 [-]
	 SCS Opposite-Spin Scale   =       1.2000000000000000 [-]
	 SCS Same-Spin Energy      =      -0.1709027034327671 [Eh]
	 SCS Opposite-Spin Energy  =      -1.8664230611519013 [Eh]
	 SCS Correlation Energy    =      -2.0373257645846685 [Eh]
	 SCS Total Energy          =    -476.3443503977965747 [Eh]
	-----------------------------------------------------------

  Dipole Moment: [D]
     X:    -1.0740      Y:     1.8802      Z:     0.0001     Total:     2.1653

*** Psi4 exiting successfully. Buy a developer a beer!
