                               Psi4 1.3.2 release

  ==> Input File <==

--------------------------------------------------------------------------
#psi4
#
memory 32 gb

molecule  {
0 1
  O        3.0870850    -0.7380670     0.0000600
  N       -1.0742560    -1.1771330    -0.0000800
  C        0.9761220     0.0434820    -0.0000150
  C       -0.4881060     0.0430670    -0.0000040
  C        1.8814630     1.1555170    -0.0001020
  C       -1.2332690     1.2310260     0.0000830
  C        1.7670490    -1.0798270     0.0000780
  C       -2.6240280     1.1598410     0.0000810
  C        3.1306014     0.6056888    -0.0000437
  C       -3.2332050    -0.0939970     0.0000020
  C       -2.4150150    -1.2251180    -0.0000720
  H        1.6419750     2.2104320    -0.0002120
  H       -0.7317970     2.1947500     0.0001580
  H        1.5416230    -2.1350490     0.0001580
  H        4.1309200     1.0569280    -0.0000720
  H       -3.2210480     2.0687070     0.0001450
  H       -4.3145730    -0.1971740    -0.0000020
  H       -2.8500980    -2.2235110    -0.0001310
units angstrom
no_reorient  #important for SAPT in psi4, default
symmetry c1  #important for SAPT in psi4, default
}

set PROPERTIES_ORIGIN ["COM"]
properties('MP2/aug-cc-pvtz', properties = ['dipole'])
--------------------------------------------------------------------------

    Molecular point group: c1
  Charge       = 0
  Multiplicity = 1
  Basis Set: AUG-CC-PVTZ
    Blend: AUG-CC-PVTZ
  Basis Set: (AUG-CC-PVTZ AUX)
    Blend: AUG-CC-PVTZ-JKFIT

    Orbital Energies [Eh]
    ---------------------

    Doubly Occupied:

       1A    -20.631436     2A    -15.565847     3A    -11.293927
       4A    -11.292252     5A    -11.292162     6A    -11.279516
       7A    -11.263434     8A    -11.243616     9A    -11.241358
      10A    -11.239459    11A    -11.235125    12A     -1.468505
      13A     -1.258703    14A     -1.106393    15A     -1.088738
      16A     -1.033836    17A     -0.999002    18A     -0.876713
      19A     -0.863522    20A     -0.797356    21A     -0.775721
      22A     -0.745465    23A     -0.687846    24A     -0.662440
      25A     -0.647106    26A     -0.641153    27A     -0.606157
      28A     -0.586453    29A     -0.576399    30A     -0.571331
      31A     -0.549152    32A     -0.536926    33A     -0.519915
      34A     -0.425020    35A     -0.422064    36A     -0.383785
      37A     -0.347498    38A     -0.299266

  @DF-RHF Final Energy:  -474.33110634006687

   => Energetics <=

    Nuclear Repulsion Energy =            540.3520282372746806
    One-Electron Energy =               -1715.2570784428344268
    Two-Electron Energy =                 700.5739438654928790
    Total Energy =                       -474.3311063400668672
  Basis Set: (AUG-CC-PVTZ AUX)
    Blend: AUG-CC-PVTZ-RI
    Molecular point group: c1

    Geometry (in Angstrom), charge = 0, multiplicity = 1:

       Center              X                  Y                   Z               Mass
    ------------   -----------------  -----------------  -----------------  -----------------
         O            3.061981259457    -0.715907626025     0.000060197216    15.994914619570
         N           -1.099359740543    -1.154973626025    -0.000079802784    14.003074004430
         C            0.951018259457     0.065641373975    -0.000014802784    12.000000000000
         C           -0.513209740543     0.065226373975    -0.000003802784    12.000000000000
         C            1.856359259457     1.177676373975    -0.000101802784    12.000000000000
         C           -1.258372740543     1.253185373975     0.000083197216    12.000000000000
         C            1.741945259457    -1.057667626025     0.000078197216    12.000000000000
         C           -2.649131740543     1.182000373975     0.000081197216    12.000000000000
         C            3.105497659457     0.627848173975    -0.000043502784    12.000000000000
         C           -3.258308740543    -0.071837626025     0.000002197216    12.000000000000
         C           -2.440118740543    -1.202958626025    -0.000071802784    12.000000000000
         H            1.616871259457     2.232591373975    -0.000211802784     1.007825032230
         H           -0.756900740543     2.216909373975     0.000158197216     1.007825032230
         H            1.516519259457    -2.112889626025     0.000158197216     1.007825032230
         H            4.105816259457     1.079087373975    -0.000071802784     1.007825032230
         H           -3.246151740543     2.090866373975     0.000145197216     1.007825032230
         H           -4.339676740543    -0.175014626025    -0.000001802784     1.007825032230
         H           -2.875201740543    -2.201351626025    -0.000130802784     1.007825032230

  Basis Set: AUG-CC-PVTZ
    Blend: AUG-CC-PVTZ
  Basis Set: (AUG-CC-PVTZ AUX)
    Blend: AUG-CC-PVTZ-JKFIT
	 Reference Energy          =    -474.3311063400668672 [Eh]
	 Singles Energy            =      -0.0000000000000000 [Eh]
	 Same-Spin Energy          =      -0.5141953405651916 [Eh]
	 Opposite-Spin Energy      =      -1.5565222142714374 [Eh]
	 Correlation Energy        =      -2.0707175548366292 [Eh]
	 Total Energy              =    -476.4018238949034867 [Eh]

	 ================> DF-SCS-MP2 Energies <==================
	-----------------------------------------------------------
	 SCS Same-Spin Scale       =       0.3333333333333333 [-]
	 SCS Opposite-Spin Scale   =       1.2000000000000000 [-]
	 SCS Same-Spin Energy      =      -0.1713984468550638 [Eh]
	 SCS Opposite-Spin Energy  =      -1.8678266571257249 [Eh]
	 SCS Correlation Energy    =      -2.0392251039807889 [Eh]
	 SCS Total Energy          =    -476.3703314440476788 [Eh]
	-----------------------------------------------------------

  Dipole Moment: [D]
     X:    -1.3464      Y:     1.9853      Z:     0.0001     Total:     2.3988

*** Psi4 exiting successfully. Buy a developer a beer!
