                               Psi4 1.3.2 release

  ==> Input File <==

--------------------------------------------------------------------------
#psi4
#
memory 32 gb

molecule  {
0 1
  O        3.0870850    -0.7380670     0.0000600
  N       -1.0742560    -1.1771330    -0.0000800
  C        0.9761220     0.0434820    -0.0000150
  C       -0.4471008     0.0697965    -0.0000018
  C        1.8814630     1.1555170    -0.0001020
  C       -1.2332690     1.2310260     0.0000830
  C        1.7670490    -1.0798270     0.0000780
  C       -2.6240280     1.1598410     0.0000810
  C        3.1400070     0.6275730    -0.0000460
  C       -3.2332050    -0.0939970     0.0000020
  C       -2.4150150    -1.2251180    -0.0000720
  H        1.6419750     2.2104320    -0.0002120
  H       -0.7317970     2.1947500     0.0001580
  H        1.5416230    -2.1350490     0.0001580
  H        4.1309200     1.0569280    -0.0000720
  H       -3.2210480     2.0687070     0.0001450
  H       -4.3145730    -0.1971740    -0.0000020
  H       -2.8500980    -2.2235110    -0.0001310
units angstrom
no_reorient  #important for SAPT in psi4, default
symmetry c1  #important for SAPT in psi4, default
}

set PROPERTIES_ORIGIN ["COM"]
properties('MP2/aug-cc-pvtz', properties = ['dipole'])
--------------------------------------------------------------------------

    Molecular point group: c1
  Charge       = 0
  Multiplicity = 1
  Basis Set: AUG-CC-PVTZ
    Blend: AUG-CC-PVTZ
  Basis Set: (AUG-CC-PVTZ AUX)
    Blend: AUG-CC-PVTZ-JKFIT

    Orbital Energies [Eh]
    ---------------------

    Doubly Occupied:

       1A    -20.630968     2A    -15.566415     3A    -11.297539
       4A    -11.294874     5A    -11.292639     6A    -11.278240
       7A    -11.262778     8A    -11.243115     9A    -11.240268
      10A    -11.239191    11A    -11.238186    12A     -1.461201
      13A     -1.246894    14A     -1.111185    15A     -1.084661
      16A     -1.034552    17A     -0.999342    18A     -0.881125
      19A     -0.859351    20A     -0.796209    21A     -0.780189
      22A     -0.746946    23A     -0.685424    24A     -0.659299
      25A     -0.646709    26A     -0.637908    27A     -0.608713
      28A     -0.587654    29A     -0.576144    30A     -0.572736
      31A     -0.543903    32A     -0.540619    33A     -0.520583
      34A     -0.428768    35A     -0.417484    36A     -0.380703
      37A     -0.349723    38A     -0.296816

  @DF-RHF Final Energy:  -474.32570622770953

   => Energetics <=

    Nuclear Repulsion Energy =            539.7546679308065904
    One-Electron Energy =               -1714.0826456664242414
    Two-Electron Energy =                 700.0022715079081763
    Total Energy =                       -474.3257062277094747
  Basis Set: (AUG-CC-PVTZ AUX)
    Blend: AUG-CC-PVTZ-RI
    Molecular point group: c1

    Geometry (in Angstrom), charge = 0, multiplicity = 1:

       Center              X                  Y                   Z               Mass
    ------------   -----------------  -----------------  -----------------  -----------------
         O            3.057810848746    -0.719929365319     0.000060205489    15.994914619570
         N           -1.103530151254    -1.158995365319    -0.000079794511    14.003074004430
         C            0.946847848746     0.061619634681    -0.000014794511    12.000000000000
         C           -0.476374951254     0.087934134681    -0.000001594511    12.000000000000
         C            1.852188848746     1.173654634681    -0.000101794511    12.000000000000
         C           -1.262543151254     1.249163634681     0.000083205489    12.000000000000
         C            1.737774848746    -1.061689365319     0.000078205489    12.000000000000
         C           -2.653302151254     1.177978634681     0.000081205489    12.000000000000
         C            3.110732848746     0.645710634681    -0.000045794511    12.000000000000
         C           -3.262479151254    -0.075859365319     0.000002205489    12.000000000000
         C           -2.444289151254    -1.206980365319    -0.000071794511    12.000000000000
         H            1.612700848746     2.228569634681    -0.000211794511     1.007825032230
         H           -0.761071151254     2.212887634681     0.000158205489     1.007825032230
         H            1.512348848746    -2.116911365319     0.000158205489     1.007825032230
         H            4.101645848746     1.075065634681    -0.000071794511     1.007825032230
         H           -3.250322151254     2.086844634681     0.000145205489     1.007825032230
         H           -4.343847151254    -0.179036365319    -0.000001794511     1.007825032230
         H           -2.879372151254    -2.205373365319    -0.000130794511     1.007825032230

  Basis Set: AUG-CC-PVTZ
    Blend: AUG-CC-PVTZ
  Basis Set: (AUG-CC-PVTZ AUX)
    Blend: AUG-CC-PVTZ-JKFIT
	 Reference Energy          =    -474.3257062277095315 [Eh]
	 Singles Energy            =      -0.0000000000000000 [Eh]
	 Same-Spin Energy          =      -0.5150640321398782 [Eh]
	 Opposite-Spin Energy      =      -1.5586830238799982 [Eh]
	 Correlation Energy        =      -2.0737470560198763 [Eh]
	 Total Energy              =    -476.3994532837294287 [Eh]

	 ================> DF-SCS-MP2 Energies <==================
	-----------------------------------------------------------
	 SCS Same-Spin Scale       =       0.3333333333333333 [-]
	 SCS Opposite-Spin Scale   =       1.2000000000000000 [-]
	 SCS Same-Spin Energy      =      -0.1716880107132927 [Eh]
	 SCS Opposite-Spin Energy  =      -1.8704196286559978 [Eh]
	 SCS Correlation Energy    =      -2.0421076393692905 [Eh]
	 SCS Total Energy          =    -476.3678138670788371 [Eh]
	-----------------------------------------------------------

  Dipole Moment: [D]
     X:    -1.1703      Y:     2.0272      Z:     0.0001     Total:     2.3408

*** Psi4 exiting successfully. Buy a developer a beer!
