                               Psi4 1.3.2 release

  ==> Input File <==

--------------------------------------------------------------------------
#psi4
#
memory 32 gb

molecule  {
0 1
  O        3.0870850    -0.7380670     0.0000600
  N       -1.0742560    -1.1771330    -0.0000800
  C        0.9761220     0.0434820    -0.0000150
  C       -0.4881060     0.0430670    -0.0000040
  C        1.8814630     1.1555170    -0.0001020
  C       -1.2332690     1.2310260     0.0000830
  C        1.7732146    -1.1028128     0.0000798
  C       -2.6240280     1.1598410     0.0000810
  C        3.1400070     0.6275730    -0.0000460
  C       -3.2332050    -0.0939970     0.0000020
  C       -2.4150150    -1.2251180    -0.0000720
  H        1.6419750     2.2104320    -0.0002120
  H       -0.7317970     2.1947500     0.0001580
  H        1.5416230    -2.1350490     0.0001580
  H        4.1309200     1.0569280    -0.0000720
  H       -3.2210480     2.0687070     0.0001450
  H       -4.3145730    -0.1971740    -0.0000020
  H       -2.8500980    -2.2235110    -0.0001310
units angstrom
no_reorient  #important for SAPT in psi4, default
symmetry c1  #important for SAPT in psi4, default
}

set PROPERTIES_ORIGIN ["COM"]
properties('MP2/aug-cc-pvtz', properties = ['dipole'])
--------------------------------------------------------------------------

    Molecular point group: c1
  Charge       = 0
  Multiplicity = 1
  Basis Set: AUG-CC-PVTZ
    Blend: AUG-CC-PVTZ
  Basis Set: (AUG-CC-PVTZ AUX)
    Blend: AUG-CC-PVTZ-JKFIT

    Orbital Energies [Eh]
    ---------------------

    Doubly Occupied:

       1A    -20.629530     2A    -15.565324     3A    -11.295472
       4A    -11.293770     5A    -11.291799     6A    -11.279233
       7A    -11.263072     8A    -11.242987     9A    -11.241687
      10A    -11.240712    11A    -11.237759    12A     -1.458398
      13A     -1.258196    14A     -1.102567    15A     -1.088276
      16A     -1.034078    17A     -0.997576    18A     -0.875605
      19A     -0.863019    20A     -0.794050    21A     -0.780743
      22A     -0.745584    23A     -0.687075    24A     -0.662195
      25A     -0.646251    26A     -0.634937    27A     -0.612152
      28A     -0.585001    29A     -0.576774    30A     -0.571388
      31A     -0.548553    32A     -0.535489    33A     -0.520236
      34A     -0.423161    35A     -0.421741    36A     -0.383586
      37A     -0.348670    38A     -0.296538

  @DF-RHF Final Energy:  -474.32927848105817

   => Energetics <=

    Nuclear Repulsion Energy =            539.4449832346102767
    One-Electron Energy =               -1713.4821572931093669
    Two-Electron Energy =                 699.7078955774410360
    Total Energy =                       -474.3292784810581679
  Basis Set: (AUG-CC-PVTZ AUX)
    Blend: AUG-CC-PVTZ-RI
    Molecular point group: c1

    Geometry (in Angstrom), charge = 0, multiplicity = 1:

       Center              X                  Y                   Z               Mass
    ------------   -----------------  -----------------  -----------------  -----------------
         O            3.060693077177    -0.715816492291     0.000060238580    15.994914619570
         N           -1.100647922823    -1.154882492291    -0.000079761420    14.003074004430
         C            0.949730077177     0.065732507709    -0.000014761420    12.000000000000
         C           -0.514497922823     0.065317507709    -0.000003761420    12.000000000000
         C            1.855071077177     1.177767507709    -0.000101761420    12.000000000000
         C           -1.259660922823     1.253276507709     0.000083238580    12.000000000000
         C            1.746822677177    -1.080562292291     0.000080038580    12.000000000000
         C           -2.650419922823     1.182091507709     0.000081238580    12.000000000000
         C            3.113615077177     0.649823507709    -0.000045761420    12.000000000000
         C           -3.259596922823    -0.071746492291     0.000002238580    12.000000000000
         C           -2.441406922823    -1.202867492291    -0.000071761420    12.000000000000
         H            1.615583077177     2.232682507709    -0.000211761420     1.007825032230
         H           -0.758188922823     2.217000507709     0.000158238580     1.007825032230
         H            1.515231077177    -2.112798492291     0.000158238580     1.007825032230
         H            4.104528077177     1.079178507709    -0.000071761420     1.007825032230
         H           -3.247439922823     2.090957507709     0.000145238580     1.007825032230
         H           -4.340964922823    -0.174923492291    -0.000001761420     1.007825032230
         H           -2.876489922823    -2.201260492291    -0.000130761420     1.007825032230

  Basis Set: AUG-CC-PVTZ
    Blend: AUG-CC-PVTZ
  Basis Set: (AUG-CC-PVTZ AUX)
    Blend: AUG-CC-PVTZ-JKFIT
	 Reference Energy          =    -474.3292784810581679 [Eh]
	 Singles Energy            =      -0.0000000000000000 [Eh]
	 Same-Spin Energy          =      -0.5145445077194239 [Eh]
	 Opposite-Spin Energy      =      -1.5574958848853007 [Eh]
	 Correlation Energy        =      -2.0720403926047246 [Eh]
	 Total Energy              =    -476.4013188736628877 [Eh]

	 ================> DF-SCS-MP2 Energies <==================
	-----------------------------------------------------------
	 SCS Same-Spin Scale       =       0.3333333333333333 [-]
	 SCS Opposite-Spin Scale   =       1.2000000000000000 [-]
	 SCS Same-Spin Energy      =      -0.1715148359064746 [Eh]
	 SCS Opposite-Spin Energy  =      -1.8689950618623608 [Eh]
	 SCS Correlation Energy    =      -2.0405098977688354 [Eh]
	 SCS Total Energy          =    -476.3697883788270246 [Eh]
	-----------------------------------------------------------

  Dipole Moment: [D]
     X:    -1.3025      Y:     2.0198      Z:     0.0001     Total:     2.4034

*** Psi4 exiting successfully. Buy a developer a beer!
