                               Psi4 1.3.2 release

  ==> Input File <==

--------------------------------------------------------------------------
#psi4
#
memory 32 gb

molecule  {
0 1
  O       -1.5212240    -0.7093150     0.0000610
  N        1.9332132    -0.2871001    -0.0000492
  C       -0.2218810    -0.2669650     0.0000160
  C        0.8549480    -1.1405170    -0.0000250
  C        0.2804280     1.0605730     0.0000120
  C        1.6640340     0.9642470    -0.0000360
  C       -2.4886080     0.3325760     0.0000260
  H        0.8850560    -2.2196710    -0.0000390
  H       -0.2825830     1.9831120     0.0000370
  H        2.9325900    -0.7289320    -0.0000930
  H        2.4244870     1.7323050    -0.0000480
  H       -3.4598190    -0.1623920     0.0000440
  H       -2.3971420     0.9606620    -0.8937380
  H       -2.3971430     0.9607210     0.8937490
units angstrom
no_reorient  #important for SAPT in psi4, default
symmetry c1  #important for SAPT in psi4, default
}

set PROPERTIES_ORIGIN ["COM"]
properties('MP2/aug-cc-pvtz', properties = ['dipole'])
--------------------------------------------------------------------------

    Molecular point group: c1
  Charge       = 0
  Multiplicity = 1
  Basis Set: AUG-CC-PVTZ
    Blend: AUG-CC-PVTZ
  Basis Set: (AUG-CC-PVTZ AUX)
    Blend: AUG-CC-PVTZ-JKFIT

    Orbital Energies [Eh]
    ---------------------

    Doubly Occupied:

       1A    -20.569069     2A    -15.616190     3A    -11.271573
       4A    -11.271282     5A    -11.253316     6A    -11.234620
       7A    -11.203356     8A     -1.387753     9A     -1.312782
      10A     -1.030174    11A     -0.993524    12A     -0.926065
      13A     -0.785895    14A     -0.757797    15A     -0.740856
      16A     -0.641106    17A     -0.630165    18A     -0.616819
      19A     -0.606254    20A     -0.581902    21A     -0.556960
      22A     -0.527570    23A     -0.483306    24A     -0.481854
      25A     -0.326308    26A     -0.288392

  @DF-RHF Final Energy:  -322.78622398817208

   => Energetics <=

    Nuclear Repulsion Energy =            294.0408593371457187
    One-Electron Energy =               -1021.4643914481074489
    Two-Electron Energy =                 404.6373081227897046
    Total Energy =                       -322.7862239881720825
  Basis Set: (AUG-CC-PVTZ AUX)
    Blend: AUG-CC-PVTZ-RI
    Molecular point group: c1

    Geometry (in Angstrom), charge = 0, multiplicity = 1:

       Center              X                  Y                   Z               Mass
    ------------   -----------------  -----------------  -----------------  -----------------
         O           -1.536613799223    -0.694671632326     0.000059824867    15.994914619570
         N            1.917823400777    -0.272456732326    -0.000050375133    14.003074004430
         C           -0.237270799223    -0.252321632326     0.000014824867    12.000000000000
         C            0.839558200777    -1.125873632326    -0.000026175133    12.000000000000
         C            0.265038200777     1.075216367674     0.000010824867    12.000000000000
         C            1.648644200777     0.978890367674    -0.000037175133    12.000000000000
         C           -2.503997799223     0.347219367674     0.000024824867    12.000000000000
         H            0.869666200777    -2.205027632326    -0.000040175133     1.007825032230
         H           -0.297972799223     1.997755367674     0.000035824867     1.007825032230
         H            2.917200200777    -0.714288632326    -0.000094175133     1.007825032230
         H            2.409097200777     1.746948367674    -0.000049175133     1.007825032230
         H           -3.475208799223    -0.147748632326     0.000042824867     1.007825032230
         H           -2.412531799223     0.975305367674    -0.893739175133     1.007825032230
         H           -2.412532799223     0.975364367674     0.893747824867     1.007825032230

  Basis Set: AUG-CC-PVTZ
    Blend: AUG-CC-PVTZ
  Basis Set: (AUG-CC-PVTZ AUX)
    Blend: AUG-CC-PVTZ-JKFIT
	 Reference Energy          =    -322.7862239881720825 [Eh]
	 Singles Energy            =      -0.0000000000000000 [Eh]
	 Same-Spin Energy          =      -0.3407566270879454 [Eh]
	 Opposite-Spin Energy      =      -1.0639344039822847 [Eh]
	 Correlation Energy        =      -1.4046910310702301 [Eh]
	 Total Energy              =    -324.1909150192423112 [Eh]

	 ================> DF-SCS-MP2 Energies <==================
	-----------------------------------------------------------
	 SCS Same-Spin Scale       =       0.3333333333333333 [-]
	 SCS Opposite-Spin Scale   =       1.2000000000000000 [-]
	 SCS Same-Spin Energy      =      -0.1135855423626485 [Eh]
	 SCS Opposite-Spin Energy  =      -1.2767212847787415 [Eh]
	 SCS Correlation Energy    =      -1.3903068271413899 [Eh]
	 SCS Total Energy          =    -324.1765308153134697 [Eh]
	-----------------------------------------------------------

  Dipole Moment: [D]
     X:     1.6401      Y:     0.4687      Z:    -0.0001     Total:     1.7057

*** Psi4 exiting successfully. Buy a developer a beer!
