                               Psi4 1.3.2 release

  ==> Input File <==

--------------------------------------------------------------------------
#psi4
#
memory 32 gb

molecule  {
0 1
  O       -1.5212240    -0.7093150     0.0000610
  N        1.9901180    -0.3643950    -0.0000520
  C       -0.2143588    -0.2897090     0.0000170
  C        0.8549480    -1.1405170    -0.0000250
  C        0.2804280     1.0605730     0.0000120
  C        1.6640340     0.9642470    -0.0000360
  C       -2.4886080     0.3325760     0.0000260
  H        0.8850560    -2.2196710    -0.0000390
  H       -0.2825830     1.9831120     0.0000370
  H        2.9325900    -0.7289320    -0.0000930
  H        2.4244870     1.7323050    -0.0000480
  H       -3.4598190    -0.1623920     0.0000440
  H       -2.3971420     0.9606620    -0.8937380
  H       -2.3971430     0.9607210     0.8937490
units angstrom
no_reorient  #important for SAPT in psi4, default
symmetry c1  #important for SAPT in psi4, default
}

set PROPERTIES_ORIGIN ["COM"]
properties('MP2/aug-cc-pvtz', properties = ['dipole'])
--------------------------------------------------------------------------

    Molecular point group: c1
  Charge       = 0
  Multiplicity = 1
  Basis Set: AUG-CC-PVTZ
    Blend: AUG-CC-PVTZ
  Basis Set: (AUG-CC-PVTZ AUX)
    Blend: AUG-CC-PVTZ-JKFIT

    Orbital Energies [Eh]
    ---------------------

    Doubly Occupied:

       1A    -20.569580     2A    -15.605972     3A    -11.274104
       4A    -11.271665     5A    -11.260761     6A    -11.238938
       7A    -11.213999     8A     -1.387954     9A     -1.287625
      10A     -1.037681    11A     -0.987667    12A     -0.923552
      13A     -0.797926    14A     -0.754946    15A     -0.736504
      16A     -0.645543    17A     -0.641788    18A     -0.616504
      19A     -0.584802    20A     -0.568480    21A     -0.567296
      22A     -0.538311    23A     -0.482954    24A     -0.481608
      25A     -0.332640    26A     -0.287983

  @DF-RHF Final Energy:  -322.80224285953295

   => Energetics <=

    Nuclear Repulsion Energy =            292.1898255446640746
    One-Electron Energy =               -1017.7905715229816224
    Two-Electron Energy =                 402.7985031187845379
    Total Energy =                       -322.8022428595329529
  Basis Set: (AUG-CC-PVTZ AUX)
    Blend: AUG-CC-PVTZ-RI
    Molecular point group: c1

    Geometry (in Angstrom), charge = 0, multiplicity = 1:

       Center              X                  Y                   Z               Mass
    ------------   -----------------  -----------------  -----------------  -----------------
         O           -1.545754275913    -0.680707123217     0.000060105215    15.994914619570
         N            1.965587724087    -0.335787123217    -0.000052894785    14.003074004430
         C           -0.238889075913    -0.261101123217     0.000016105215    12.000000000000
         C            0.830417724087    -1.111909123217    -0.000025894785    12.000000000000
         C            0.255897724087     1.089180876783     0.000011105215    12.000000000000
         C            1.639503724087     0.992854876783    -0.000036894785    12.000000000000
         C           -2.513138275913     0.361183876783     0.000025105215    12.000000000000
         H            0.860525724087    -2.191063123217    -0.000039894785     1.007825032230
         H           -0.307113275913     2.011719876783     0.000036105215     1.007825032230
         H            2.908059724087    -0.700324123217    -0.000093894785     1.007825032230
         H            2.399956724087     1.760912876783    -0.000048894785     1.007825032230
         H           -3.484349275913    -0.133784123217     0.000043105215     1.007825032230
         H           -2.421672275913     0.989269876783    -0.893738894785     1.007825032230
         H           -2.421673275913     0.989328876783     0.893748105215     1.007825032230

  Basis Set: AUG-CC-PVTZ
    Blend: AUG-CC-PVTZ
  Basis Set: (AUG-CC-PVTZ AUX)
    Blend: AUG-CC-PVTZ-JKFIT
	 Reference Energy          =    -322.8022428595329529 [Eh]
	 Singles Energy            =      -0.0000000000000000 [Eh]
	 Same-Spin Energy          =      -0.3392229935032425 [Eh]
	 Opposite-Spin Energy      =      -1.0628597327004008 [Eh]
	 Correlation Energy        =      -1.4020827262036433 [Eh]
	 Total Energy              =    -324.2043255857365693 [Eh]

	 ================> DF-SCS-MP2 Energies <==================
	-----------------------------------------------------------
	 SCS Same-Spin Scale       =       0.3333333333333333 [-]
	 SCS Opposite-Spin Scale   =       1.2000000000000000 [-]
	 SCS Same-Spin Energy      =      -0.1130743311677475 [Eh]
	 SCS Opposite-Spin Energy  =      -1.2754316792404810 [Eh]
	 SCS Correlation Energy    =      -1.3885060104082285 [Eh]
	 SCS Total Energy          =    -324.1907488699411601 [Eh]
	-----------------------------------------------------------

  Dipole Moment: [D]
     X:     1.3739      Y:     0.5623      Z:    -0.0001     Total:     1.4845

*** Psi4 exiting successfully. Buy a developer a beer!
