                               Psi4 1.4a3.dev225

  ==> Input File <==

--------------------------------------------------------------------------
#psi4
#
memory 32 gb

molecule  {
0 1
  O       -1.5212240    -0.7093150     0.0000610
  N        1.9901180    -0.3643950    -0.0000520
  C       -0.1745487    -0.2508511     0.0000144
  C        0.8549480    -1.1405170    -0.0000250
  C        0.2804280     1.0605730     0.0000120
  C        1.6640340     0.9642470    -0.0000360
  C       -2.4886080     0.3325760     0.0000260
  H        0.8850560    -2.2196710    -0.0000390
  H       -0.2825830     1.9831120     0.0000370
  H        2.9325900    -0.7289320    -0.0000930
  H        2.4244870     1.7323050    -0.0000480
  H       -3.4598190    -0.1623920     0.0000440
  H       -2.3971420     0.9606620    -0.8937380
  H       -2.3971430     0.9607210     0.8937490
units angstrom
no_reorient  #important for SAPT in psi4, default
symmetry c1  #important for SAPT in psi4, default
}

set PROPERTIES_ORIGIN ["COM"]
properties('MP2/aug-cc-pvtz', properties = ['dipole'])
--------------------------------------------------------------------------

    Molecular point group: c1
  Charge       = 0
  Multiplicity = 1
  Basis Set: AUG-CC-PVTZ
    Blend: AUG-CC-PVTZ
  Basis Set: (AUG-CC-PVTZ AUX)
    Blend: AUG-CC-PVTZ-JKFIT

    Orbital Energies [Eh]
    ---------------------

    Doubly Occupied:

       1A    -20.563750     2A    -15.609886     3A    -11.269166
       4A    -11.267961     5A    -11.261850     6A    -11.240740
       7A    -11.212627     8A     -1.368439     9A     -1.293083
      10A     -1.048074    11A     -0.987618    12A     -0.916426
      13A     -0.804355    14A     -0.753538    15A     -0.737174
      16A     -0.638170    17A     -0.634162    18A     -0.609537
      19A     -0.587877    20A     -0.571242    21A     -0.569782
      22A     -0.540168    23A     -0.483865    24A     -0.472194
      25A     -0.341775    26A     -0.289761

  @DF-RHF Final Energy:  -322.79765586857820

   => Energetics <=

    Nuclear Repulsion Energy =            292.3816243347255295
    One-Electron Energy =               -1018.2121235831928061
    Two-Electron Energy =                 403.0328433798890728
    Total Energy =                       -322.7976558685782038
  Basis Set: (AUG-CC-PVTZ AUX)
    Blend: AUG-CC-PVTZ-RI
    Molecular point group: c1

    Geometry (in Angstrom), charge = 0, multiplicity = 1:

       Center              X                  Y                   Z               Mass
    ------------   -----------------  -----------------  -----------------  -----------------
         O           -1.550676559226    -0.685511672634     0.000060426690    15.994914619570
         N            1.960665440774    -0.340591672634    -0.000052573310    14.003074004430
         C           -0.204001259226    -0.227047772634     0.000013826690    12.000000000000
         C            0.825495440774    -1.116713672634    -0.000025573310    12.000000000000
         C            0.250975440774     1.084376327366     0.000011426690    12.000000000000
         C            1.634581440774     0.988050327366    -0.000036573310    12.000000000000
         C           -2.518060559226     0.356379327366     0.000025426690    12.000000000000
         H            0.855603440774    -2.195867672634    -0.000039573310     1.007825032230
         H           -0.312035559226     2.006915327366     0.000036426690     1.007825032230
         H            2.903137440774    -0.705128672634    -0.000093573310     1.007825032230
         H            2.395034440774     1.756108327366    -0.000048573310     1.007825032230
         H           -3.489271559226    -0.138588672634     0.000043426690     1.007825032230
         H           -2.426594559226     0.984465327366    -0.893738573310     1.007825032230
         H           -2.426595559226     0.984524327366     0.893748426690     1.007825032230

  Basis Set: AUG-CC-PVTZ
    Blend: AUG-CC-PVTZ
  Basis Set: (AUG-CC-PVTZ AUX)
    Blend: AUG-CC-PVTZ-JKFIT
	 Reference Energy          =    -322.7976558685782038 [Eh]
	 Singles Energy            =      -0.0000000000000000 [Eh]
	 Same-Spin Energy          =      -0.3398490523233615 [Eh]
	 Opposite-Spin Energy      =      -1.0640517162898731 [Eh]
	 Correlation Energy        =      -1.4039007686132345 [Eh]
	 Total Energy              =    -324.2015566371914588 [Eh]

	 ================> DF-SCS-MP2 Energies <==================
	-----------------------------------------------------------
	 SCS Same-Spin Scale       =       0.3333333333333333 [-]
	 SCS Opposite-Spin Scale   =       1.2000000000000000 [-]
	 SCS Same-Spin Energy      =      -0.1132830174411205 [Eh]
	 SCS Opposite-Spin Energy  =      -1.2768620595478477 [Eh]
	 SCS Correlation Energy    =      -1.3901450769889683 [Eh]
	 SCS Total Energy          =    -324.1878009455671759 [Eh]
	-----------------------------------------------------------

  Dipole Moment: [D]
     X:     1.6731      Y:     0.6137      Z:    -0.0001     Total:     1.7821

*** Psi4 exiting successfully. Buy a developer a beer!
