                               Psi4 1.3.2 release

  ==> Input File <==

--------------------------------------------------------------------------
#psi4
#
memory 32 gb

molecule  {
0 1
  O       -1.5212240    -0.7093150     0.0000610
  N        1.9623402    -0.3252509    -0.0000506
  C       -0.2218810    -0.2669650     0.0000160
  C        0.8549480    -1.1405170    -0.0000250
  C        0.2804280     1.0605730     0.0000120
  C        1.6640340     0.9642470    -0.0000360
  C       -2.4886080     0.3325760     0.0000260
  H        0.8850560    -2.2196710    -0.0000390
  H       -0.2825830     1.9831120     0.0000370
  H        2.9325900    -0.7289320    -0.0000930
  H        2.4244870     1.7323050    -0.0000480
  H       -3.4598190    -0.1623920     0.0000440
  H       -2.3971420     0.9606620    -0.8937380
  H       -2.3971430     0.9607210     0.8937490
units angstrom
no_reorient  #important for SAPT in psi4, default
symmetry c1  #important for SAPT in psi4, default
}

set PROPERTIES_ORIGIN ["COM"]
properties('MP2/aug-cc-pvtz', properties = ['dipole'])
--------------------------------------------------------------------------

    Molecular point group: c1
  Charge       = 0
  Multiplicity = 1
  Basis Set: AUG-CC-PVTZ
    Blend: AUG-CC-PVTZ
  Basis Set: (AUG-CC-PVTZ AUX)
    Blend: AUG-CC-PVTZ-JKFIT

    Orbital Energies [Eh]
    ---------------------

    Doubly Occupied:

       1A    -20.569785     2A    -15.612145     3A    -11.272708
       4A    -11.271678     5A    -11.256589     6A    -11.237419
       7A    -11.208276     8A     -1.388311     9A     -1.299360
      10A     -1.034306    11A     -0.989352    12A     -0.924365
      13A     -0.792930    14A     -0.756391    15A     -0.738207
      16A     -0.641596    17A     -0.637452    18A     -0.617055
      19A     -0.596020    20A     -0.573927    21A     -0.562807
      22A     -0.532417    23A     -0.484919    24A     -0.481833
      25A     -0.330634    26A     -0.286145

  @DF-RHF Final Energy:  -322.79774962535612

   => Energetics <=

    Nuclear Repulsion Energy =            293.0971739303036543
    One-Electron Energy =               -1019.5965896872661460
    Two-Electron Energy =                 403.7016661316063164
    Total Energy =                       -322.7977496253561185
  Basis Set: (AUG-CC-PVTZ AUX)
    Blend: AUG-CC-PVTZ-RI
    Molecular point group: c1

    Geometry (in Angstrom), charge = 0, multiplicity = 1:

       Center              X                  Y                   Z               Mass
    ------------   -----------------  -----------------  -----------------  -----------------
         O           -1.540816333189    -0.689167116488     0.000060026863    15.994914619570
         N            1.942747866811    -0.305103016488    -0.000051573137    14.003074004430
         C           -0.241473333189    -0.246817116488     0.000015026863    12.000000000000
         C            0.835355666811    -1.120369116488    -0.000025973137    12.000000000000
         C            0.260835666811     1.080720883512     0.000011026863    12.000000000000
         C            1.644441666811     0.984394883512    -0.000036973137    12.000000000000
         C           -2.508200333189     0.352723883512     0.000025026863    12.000000000000
         H            0.865463666811    -2.199523116488    -0.000039973137     1.007825032230
         H           -0.302175333189     2.003259883512     0.000036026863     1.007825032230
         H            2.912997666811    -0.708784116488    -0.000093973137     1.007825032230
         H            2.404894666811     1.752452883512    -0.000048973137     1.007825032230
         H           -3.479411333189    -0.142244116488     0.000043026863     1.007825032230
         H           -2.416734333189     0.980809883512    -0.893738973137     1.007825032230
         H           -2.416735333189     0.980868883512     0.893748026863     1.007825032230

  Basis Set: AUG-CC-PVTZ
    Blend: AUG-CC-PVTZ
  Basis Set: (AUG-CC-PVTZ AUX)
    Blend: AUG-CC-PVTZ-JKFIT
	 Reference Energy          =    -322.7977496253561185 [Eh]
	 Singles Energy            =      -0.0000000000000000 [Eh]
	 Same-Spin Energy          =      -0.3402437024579880 [Eh]
	 Opposite-Spin Energy      =      -1.0636480952729572 [Eh]
	 Correlation Energy        =      -1.4038917977309451 [Eh]
	 Total Energy              =    -324.2016414230870396 [Eh]

	 ================> DF-SCS-MP2 Energies <==================
	-----------------------------------------------------------
	 SCS Same-Spin Scale       =       0.3333333333333333 [-]
	 SCS Opposite-Spin Scale   =       1.2000000000000000 [-]
	 SCS Same-Spin Energy      =      -0.1134145674859960 [Eh]
	 SCS Opposite-Spin Energy  =      -1.2763777143275485 [Eh]
	 SCS Correlation Energy    =      -1.3897922818135444 [Eh]
	 SCS Total Energy          =    -324.1875419071696456 [Eh]
	-----------------------------------------------------------

  Dipole Moment: [D]
     X:     1.5074      Y:     0.5138      Z:    -0.0001     Total:     1.5925

*** Psi4 exiting successfully. Buy a developer a beer!
