                               Psi4 1.3.2 release

  ==> Input File <==

--------------------------------------------------------------------------
#psi4
#
memory 32 gb

molecule  {
0 1
  O       -1.5358703    -0.6636991     0.0000621
  N        1.9901180    -0.3643950    -0.0000520
  C       -0.2218810    -0.2669650     0.0000160
  C        0.8549480    -1.1405170    -0.0000250
  C        0.2804280     1.0605730     0.0000120
  C        1.6640340     0.9642470    -0.0000360
  C       -2.4886080     0.3325760     0.0000260
  H        0.8850560    -2.2196710    -0.0000390
  H       -0.2825830     1.9831120     0.0000370
  H        2.9325900    -0.7289320    -0.0000930
  H        2.4244870     1.7323050    -0.0000480
  H       -3.4598190    -0.1623920     0.0000440
  H       -2.3971420     0.9606620    -0.8937380
  H       -2.3971430     0.9607210     0.8937490
units angstrom
no_reorient  #important for SAPT in psi4, default
symmetry c1  #important for SAPT in psi4, default
}

set PROPERTIES_ORIGIN ["COM"]
properties('MP2/aug-cc-pvtz', properties = ['dipole'])
--------------------------------------------------------------------------

    Molecular point group: c1
  Charge       = 0
  Multiplicity = 1
  Basis Set: AUG-CC-PVTZ
    Blend: AUG-CC-PVTZ
  Basis Set: (AUG-CC-PVTZ AUX)
    Blend: AUG-CC-PVTZ-JKFIT

    Orbital Energies [Eh]
    ---------------------

    Doubly Occupied:

       1A    -20.568356     2A    -15.609124     3A    -11.274498
       4A    -11.269622     5A    -11.260576     6A    -11.243139
       7A    -11.213071     8A     -1.400595     9A     -1.289293
      10A     -1.042828    11A     -0.987380    12A     -0.922115
      13A     -0.802117    14A     -0.756447    15A     -0.737195
      16A     -0.650446    17A     -0.649092    18A     -0.624994
      19A     -0.585941    20A     -0.568758    21A     -0.568028
      22A     -0.538870    23A     -0.480272    24A     -0.476045
      25A     -0.335772    26A     -0.285522

  @DF-RHF Final Energy:  -322.80204330584974

   => Energetics <=

    Nuclear Repulsion Energy =            292.8548159450776325
    One-Electron Energy =               -1019.0335246487564973
    Two-Electron Energy =                 403.3766653978291856
    Total Energy =                       -322.8020433058497360
  Basis Set: (AUG-CC-PVTZ AUX)
    Blend: AUG-CC-PVTZ-RI
    Molecular point group: c1

    Geometry (in Angstrom), charge = 0, multiplicity = 1:

       Center              X                  Y                   Z               Mass
    ------------   -----------------  -----------------  -----------------  -----------------
         O           -1.557056696716    -0.645421175565     0.000061147572    15.994914619570
         N            1.968931603284    -0.346117075565    -0.000052952428    14.003074004430
         C           -0.243067396716    -0.248687075565     0.000015047572    12.000000000000
         C            0.833761603284    -1.122239075565    -0.000025952428    12.000000000000
         C            0.259241603284     1.078850924435     0.000011047572    12.000000000000
         C            1.642847603284     0.982524924435    -0.000036952428    12.000000000000
         C           -2.509794396716     0.350853924435     0.000025047572    12.000000000000
         H            0.863869603284    -2.201393075565    -0.000039952428     1.007825032230
         H           -0.303769396716     2.001389924435     0.000036047572     1.007825032230
         H            2.911403603284    -0.710654075565    -0.000093952428     1.007825032230
         H            2.403300603284     1.750582924435    -0.000048952428     1.007825032230
         H           -3.481005396716    -0.144114075565     0.000043047572     1.007825032230
         H           -2.418328396716     0.978939924435    -0.893738952428     1.007825032230
         H           -2.418329396716     0.978998924435     0.893748047572     1.007825032230

  Basis Set: AUG-CC-PVTZ
    Blend: AUG-CC-PVTZ
  Basis Set: (AUG-CC-PVTZ AUX)
    Blend: AUG-CC-PVTZ-JKFIT
	 Reference Energy          =    -322.8020433058497360 [Eh]
	 Singles Energy            =      -0.0000000000000000 [Eh]
	 Same-Spin Energy          =      -0.3395022632045262 [Eh]
	 Opposite-Spin Energy      =      -1.0623582390906545 [Eh]
	 Correlation Energy        =      -1.4018605022951807 [Eh]
	 Total Energy              =    -324.2039038081449007 [Eh]

	 ================> DF-SCS-MP2 Energies <==================
	-----------------------------------------------------------
	 SCS Same-Spin Scale       =       0.3333333333333333 [-]
	 SCS Opposite-Spin Scale   =       1.2000000000000000 [-]
	 SCS Same-Spin Energy      =      -0.1131674210681754 [Eh]
	 SCS Opposite-Spin Energy  =      -1.2748298869087853 [Eh]
	 SCS Correlation Energy    =      -1.3879973079769607 [Eh]
	 SCS Total Energy          =    -324.1900406138266817 [Eh]
	-----------------------------------------------------------

  Dipole Moment: [D]
     X:     1.4929      Y:     0.4565      Z:    -0.0001     Total:     1.5612

*** Psi4 exiting successfully. Buy a developer a beer!
