                               Psi4 1.3.2 release

  ==> Input File <==

--------------------------------------------------------------------------
#psi4
#
memory 32 gb

molecule  {
0 1
  O       -1.5212240    -0.7093150     0.0000610
  N        2.0165128    -0.4044847    -0.0000532
  C       -0.2218810    -0.2669650     0.0000160
  C        0.8549480    -1.1405170    -0.0000250
  C        0.2804280     1.0605730     0.0000120
  C        1.6640340     0.9642470    -0.0000360
  C       -2.4886080     0.3325760     0.0000260
  H        0.8850560    -2.2196710    -0.0000390
  H       -0.2825830     1.9831120     0.0000370
  H        2.9325900    -0.7289320    -0.0000930
  H        2.4244870     1.7323050    -0.0000480
  H       -3.4598190    -0.1623920     0.0000440
  H       -2.3971420     0.9606620    -0.8937380
  H       -2.3971430     0.9607210     0.8937490
units angstrom
no_reorient  #important for SAPT in psi4, default
symmetry c1  #important for SAPT in psi4, default
}

set PROPERTIES_ORIGIN ["COM"]
properties('MP2/aug-cc-pvtz', properties = ['dipole'])
--------------------------------------------------------------------------

    Molecular point group: c1
  Charge       = 0
  Multiplicity = 1
  Basis Set: AUG-CC-PVTZ
    Blend: AUG-CC-PVTZ
  Basis Set: (AUG-CC-PVTZ AUX)
    Blend: AUG-CC-PVTZ-JKFIT

    Orbital Energies [Eh]
    ---------------------

    Doubly Occupied:

       1A    -20.571357     2A    -15.603900     3A    -11.275032
       4A    -11.272834     5A    -11.263152     6A    -11.243954
       7A    -11.218340     8A     -1.389789     9A     -1.277899
      10A     -1.045810    11A     -0.982380    12A     -0.921419
      13A     -0.807539    14A     -0.753421    15A     -0.733626
      16A     -0.653638    17A     -0.643127    18A     -0.617776
      19A     -0.573752    20A     -0.571380    21A     -0.561024
      22A     -0.539364    23A     -0.487945    24A     -0.481678
      25A     -0.340386    26A     -0.281608

  @DF-RHF Final Energy:  -322.79796049890814

   => Energetics <=

    Nuclear Repulsion Energy =            291.3729648970876838
    One-Electron Energy =               -1016.1175932671479814
    Two-Electron Energy =                 401.9466678711522150
    Total Energy =                       -322.7979604989081395
  Basis Set: (AUG-CC-PVTZ AUX)
    Blend: AUG-CC-PVTZ-RI
    Molecular point group: c1

    Geometry (in Angstrom), charge = 0, multiplicity = 1:

       Center              X                  Y                   Z               Mass
    ------------   -----------------  -----------------  -----------------  -----------------
         O           -1.548632524060    -0.677735017895     0.000060401999    15.994914619570
         N            1.989104275940    -0.372904717895    -0.000053798001    14.003074004430
         C           -0.249289524060    -0.235385017895     0.000015401999    12.000000000000
         C            0.827539475940    -1.108937017895    -0.000025598001    12.000000000000
         C            0.253019475940     1.092152982105     0.000011401999    12.000000000000
         C            1.636625475940     0.995826982105    -0.000036598001    12.000000000000
         C           -2.516016524060     0.364155982105     0.000025401999    12.000000000000
         H            0.857647475940    -2.188091017895    -0.000039598001     1.007825032230
         H           -0.309991524060     2.014691982105     0.000036401999     1.007825032230
         H            2.905181475940    -0.697352017895    -0.000093598001     1.007825032230
         H            2.397078475940     1.763884982105    -0.000048598001     1.007825032230
         H           -3.487227524060    -0.130812017895     0.000043401999     1.007825032230
         H           -2.424550524060     0.992241982105    -0.893738598001     1.007825032230
         H           -2.424551524060     0.992300982105     0.893748401999     1.007825032230

  Basis Set: AUG-CC-PVTZ
    Blend: AUG-CC-PVTZ
  Basis Set: (AUG-CC-PVTZ AUX)
    Blend: AUG-CC-PVTZ-JKFIT
	 Reference Energy          =    -322.7979604989081395 [Eh]
	 Singles Energy            =      -0.0000000000000000 [Eh]
	 Same-Spin Energy          =      -0.3394533063190310 [Eh]
	 Opposite-Spin Energy      =      -1.0639463157535622 [Eh]
	 Correlation Energy        =      -1.4033996220725933 [Eh]
	 Total Energy              =    -324.2013601209807234 [Eh]

	 ================> DF-SCS-MP2 Energies <==================
	-----------------------------------------------------------
	 SCS Same-Spin Scale       =       0.3333333333333333 [-]
	 SCS Opposite-Spin Scale   =       1.2000000000000000 [-]
	 SCS Same-Spin Energy      =      -0.1131511021063437 [Eh]
	 SCS Opposite-Spin Energy  =      -1.2767355789042747 [Eh]
	 SCS Correlation Energy    =      -1.3898866810106183 [Eh]
	 SCS Total Energy          =    -324.1878471799187764 [Eh]
	-----------------------------------------------------------

  Dipole Moment: [D]
     X:     1.2287      Y:     0.6401      Z:    -0.0001     Total:     1.3854

*** Psi4 exiting successfully. Buy a developer a beer!
