                               Psi4 1.3.2 release

  ==> Input File <==

--------------------------------------------------------------------------
#psi4
#
memory 32 gb

molecule  {
0 1
  O       -1.4872021    -0.7988750     0.0000587
  N        1.9901180    -0.3643950    -0.0000520
  C       -0.2218810    -0.2669650     0.0000160
  C        0.8549480    -1.1405170    -0.0000250
  C        0.2804280     1.0605730     0.0000120
  C        1.6640340     0.9642470    -0.0000360
  C       -2.4886080     0.3325760     0.0000260
  H        0.8850560    -2.2196710    -0.0000390
  H       -0.2825830     1.9831120     0.0000370
  H        2.9325900    -0.7289320    -0.0000930
  H        2.4244870     1.7323050    -0.0000480
  H       -3.4598190    -0.1623920     0.0000440
  H       -2.3971420     0.9606620    -0.8937380
  H       -2.3971430     0.9607210     0.8937490
units angstrom
no_reorient  #important for SAPT in psi4, default
symmetry c1  #important for SAPT in psi4, default
}

set PROPERTIES_ORIGIN ["COM"]
properties('MP2/aug-cc-pvtz', properties = ['dipole'])
--------------------------------------------------------------------------

    Molecular point group: c1
  Charge       = 0
  Multiplicity = 1
  Basis Set: AUG-CC-PVTZ
    Blend: AUG-CC-PVTZ
  Basis Set: (AUG-CC-PVTZ AUX)
    Blend: AUG-CC-PVTZ-JKFIT

    Orbital Energies [Eh]
    ---------------------

    Doubly Occupied:

       1A    -20.573976     2A    -15.606034     3A    -11.282700
       4A    -11.268424     5A    -11.258568     6A    -11.235684
       7A    -11.213876     8A     -1.369553     9A     -1.284647
      10A     -1.034881    11A     -0.981511    12A     -0.925249
      13A     -0.797011    14A     -0.751571    15A     -0.733065
      16A     -0.636340    17A     -0.631119    18A     -0.604143
      19A     -0.582852    20A     -0.566152    21A     -0.565480
      22A     -0.533868    23A     -0.491587    24A     -0.491332
      25A     -0.334630    26A     -0.280433

  @DF-RHF Final Energy:  -322.79090442187407

   => Energetics <=

    Nuclear Repulsion Energy =            291.0342542810674900
    One-Electron Energy =               -1015.5809515936047092
    Two-Electron Energy =                 401.7557928906630877
    Total Energy =                       -322.7909044218740746
  Basis Set: (AUG-CC-PVTZ AUX)
    Blend: AUG-CC-PVTZ-RI
    Molecular point group: c1

    Geometry (in Angstrom), charge = 0, multiplicity = 1:

       Center              X                  Y                   Z               Mass
    ------------   -----------------  -----------------  -----------------  -----------------
         O           -1.516409326549    -0.758319224905     0.000058307914    15.994914619570
         N            1.960910773451    -0.323839224905    -0.000052392086    14.003074004430
         C           -0.251088226549    -0.226409224905     0.000015607914    12.000000000000
         C            0.825740773451    -1.099961224905    -0.000025392086    12.000000000000
         C            0.251220773451     1.101128775095     0.000011607914    12.000000000000
         C            1.634826773451     1.004802775095    -0.000036392086    12.000000000000
         C           -2.517815226549     0.373131775095     0.000025607914    12.000000000000
         H            0.855848773451    -2.179115224905    -0.000039392086     1.007825032230
         H           -0.311790226549     2.023667775095     0.000036607914     1.007825032230
         H            2.903382773451    -0.688376224905    -0.000093392086     1.007825032230
         H            2.395279773451     1.772860775095    -0.000048392086     1.007825032230
         H           -3.489026226549    -0.121836224905     0.000043607914     1.007825032230
         H           -2.426349226549     1.001217775095    -0.893738392086     1.007825032230
         H           -2.426350226549     1.001276775095     0.893748607914     1.007825032230

  Basis Set: AUG-CC-PVTZ
    Blend: AUG-CC-PVTZ
  Basis Set: (AUG-CC-PVTZ AUX)
    Blend: AUG-CC-PVTZ-JKFIT
	 Reference Energy          =    -322.7909044218740746 [Eh]
	 Singles Energy            =      -0.0000000000000000 [Eh]
	 Same-Spin Energy          =      -0.3407242340672221 [Eh]
	 Opposite-Spin Energy      =      -1.0668781071098892 [Eh]
	 Correlation Energy        =      -1.4076023411771112 [Eh]
	 Total Energy              =    -324.1985067630511708 [Eh]

	 ================> DF-SCS-MP2 Energies <==================
	-----------------------------------------------------------
	 SCS Same-Spin Scale       =       0.3333333333333333 [-]
	 SCS Opposite-Spin Scale   =       1.2000000000000000 [-]
	 SCS Same-Spin Energy      =      -0.1135747446890740 [Eh]
	 SCS Opposite-Spin Energy  =      -1.2802537285318669 [Eh]
	 SCS Correlation Energy    =      -1.3938284732209409 [Eh]
	 SCS Total Energy          =    -324.1847328950950100 [Eh]
	-----------------------------------------------------------

  Dipole Moment: [D]
     X:     1.1480      Y:     0.7731      Z:    -0.0001     Total:     1.3840

*** Psi4 exiting successfully. Buy a developer a beer!
