                               Psi4 1.3.2 release

  ==> Input File <==

--------------------------------------------------------------------------
#psi4
#
memory 32 gb

molecule  {
0 1
  O       -1.5212240    -0.7093150     0.0000610
  N        1.9901180    -0.3643950    -0.0000520
  C       -0.2297990    -0.2443557     0.0000150
  C        0.8549480    -1.1405170    -0.0000250
  C        0.2804280     1.0605730     0.0000120
  C        1.6640340     0.9642470    -0.0000360
  C       -2.4886080     0.3325760     0.0000260
  H        0.8850560    -2.2196710    -0.0000390
  H       -0.2825830     1.9831120     0.0000370
  H        2.9325900    -0.7289320    -0.0000930
  H        2.4244870     1.7323050    -0.0000480
  H       -3.4598190    -0.1623920     0.0000440
  H       -2.3971420     0.9606620    -0.8937380
  H       -2.3971430     0.9607210     0.8937490
units angstrom
no_reorient  #important for SAPT in psi4, default
symmetry c1  #important for SAPT in psi4, default
}

set PROPERTIES_ORIGIN ["COM"]
properties('MP2/aug-cc-pvtz', properties = ['dipole'])
--------------------------------------------------------------------------

    Molecular point group: c1
  Charge       = 0
  Multiplicity = 1
  Basis Set: AUG-CC-PVTZ
    Blend: AUG-CC-PVTZ
  Basis Set: (AUG-CC-PVTZ AUX)
    Blend: AUG-CC-PVTZ-JKFIT

    Orbital Energies [Eh]
    ---------------------

    Doubly Occupied:

       1A    -20.571591     2A    -15.610148     3A    -11.273687
       4A    -11.272734     5A    -11.258940     6A    -11.242106
       7A    -11.212567     8A     -1.390111     9A     -1.287831
      10A     -1.042199    11A     -0.983134    12A     -0.921993
      13A     -0.802626    14A     -0.754701    15A     -0.735131
      16A     -0.645575    17A     -0.642884    18A     -0.618386
      19A     -0.585027    20A     -0.567489    21A     -0.566669
      22A     -0.533397    23A     -0.489645    24A     -0.482012
      25A     -0.338250    26A     -0.279819

  @DF-RHF Final Energy:  -322.79943974738069

   => Energetics <=

    Nuclear Repulsion Energy =            292.2268179506249908
    One-Electron Energy =               -1017.8352098880549192
    Two-Electron Energy =                 402.8089521900492400
    Total Energy =                       -322.7994397473806885
  Basis Set: (AUG-CC-PVTZ AUX)
    Blend: AUG-CC-PVTZ-RI
    Molecular point group: c1

    Geometry (in Angstrom), charge = 0, multiplicity = 1:

       Center              X                  Y                   Z               Mass
    ------------   -----------------  -----------------  -----------------  -----------------
         O           -1.543845186540    -0.686314790411     0.000060352503    15.994914619570
         N            1.967496813460    -0.341394790411    -0.000052647497    14.003074004430
         C           -0.252420186540    -0.221355490411     0.000014352503    12.000000000000
         C            0.832326813460    -1.117516790411    -0.000025647497    12.000000000000
         C            0.257806813460     1.083573209589     0.000011352503    12.000000000000
         C            1.641412813460     0.987247209589    -0.000036647497    12.000000000000
         C           -2.511229186540     0.355576209589     0.000025352503    12.000000000000
         H            0.862434813460    -2.196670790411    -0.000039647497     1.007825032230
         H           -0.305204186540     2.006112209589     0.000036352503     1.007825032230
         H            2.909968813460    -0.705931790411    -0.000093647497     1.007825032230
         H            2.401865813460     1.755305209589    -0.000048647497     1.007825032230
         H           -3.482440186540    -0.139391790411     0.000043352503     1.007825032230
         H           -2.419763186540     0.983662209589    -0.893738647497     1.007825032230
         H           -2.419764186540     0.983721209589     0.893748352503     1.007825032230

  Basis Set: AUG-CC-PVTZ
    Blend: AUG-CC-PVTZ
  Basis Set: (AUG-CC-PVTZ AUX)
    Blend: AUG-CC-PVTZ-JKFIT
	 Reference Energy          =    -322.7994397473806885 [Eh]
	 Singles Energy            =      -0.0000000000000000 [Eh]
	 Same-Spin Energy          =      -0.3403967210185043 [Eh]
	 Opposite-Spin Energy      =      -1.0645000966456044 [Eh]
	 Correlation Energy        =      -1.4048968176641088 [Eh]
	 Total Energy              =    -324.2043365650447981 [Eh]

	 ================> DF-SCS-MP2 Energies <==================
	-----------------------------------------------------------
	 SCS Same-Spin Scale       =       0.3333333333333333 [-]
	 SCS Opposite-Spin Scale   =       1.2000000000000000 [-]
	 SCS Same-Spin Energy      =      -0.1134655736728347 [Eh]
	 SCS Opposite-Spin Energy  =      -1.2774001159747252 [Eh]
	 SCS Correlation Energy    =      -1.3908656896475600 [Eh]
	 SCS Total Energy          =    -324.1903054370282575 [Eh]
	-----------------------------------------------------------

  Dipole Moment: [D]
     X:     1.3606      Y:     0.5812      Z:    -0.0001     Total:     1.4796

*** Psi4 exiting successfully. Buy a developer a beer!
