                               Psi4 1.3.2 release

  ==> Input File <==

--------------------------------------------------------------------------
#psi4
#
memory 32 gb

molecule  {
0 1
  O       -1.4678679    -0.8427101     0.0000574
  N        1.9901180    -0.3643950    -0.0000520
  C       -0.2218810    -0.2669650     0.0000160
  C        0.8549480    -1.1405170    -0.0000250
  C        0.2804280     1.0605730     0.0000120
  C        1.6640340     0.9642470    -0.0000360
  C       -2.4886080     0.3325760     0.0000260
  H        0.8850560    -2.2196710    -0.0000390
  H       -0.2825830     1.9831120     0.0000370
  H        2.9325900    -0.7289320    -0.0000930
  H        2.4244870     1.7323050    -0.0000480
  H       -3.4598190    -0.1623920     0.0000440
  H       -2.3971420     0.9606620    -0.8937380
  H       -2.3971430     0.9607210     0.8937490
units angstrom
no_reorient  #important for SAPT in psi4, default
symmetry c1  #important for SAPT in psi4, default
}

set PROPERTIES_ORIGIN ["COM"]
properties('MP2/aug-cc-pvtz', properties = ['dipole'])
--------------------------------------------------------------------------

    Molecular point group: c1
  Charge       = 0
  Multiplicity = 1
  Basis Set: AUG-CC-PVTZ
    Blend: AUG-CC-PVTZ
  Basis Set: (AUG-CC-PVTZ AUX)
    Blend: AUG-CC-PVTZ-JKFIT

    Orbital Energies [Eh]
    ---------------------

    Doubly Occupied:

       1A    -20.575154     2A    -15.605096     3A    -11.287207
       4A    -11.266862     5A    -11.257901     6A    -11.233403
       7A    -11.214176     8A     -1.361553     9A     -1.283097
      10A     -1.032999    11A     -0.979520    12A     -0.926990
      13A     -0.795697    14A     -0.749977    15A     -0.731634
      16A     -0.632270    17A     -0.626670    18A     -0.598800
      19A     -0.581728    20A     -0.565275    21A     -0.565082
      22A     -0.535125    23A     -0.495553    24A     -0.488945
      25A     -0.334245    26A     -0.278704

  @DF-RHF Final Energy:  -322.78174951633923

   => Energetics <=

    Nuclear Repulsion Energy =            290.5082045230603285
    One-Electron Energy =               -1014.5725848131711473
    Two-Electron Energy =                 401.2826307737716434
    Total Energy =                       -322.7817495163392323
  Basis Set: (AUG-CC-PVTZ AUX)
    Blend: AUG-CC-PVTZ-RI
    Molecular point group: c1

    Geometry (in Angstrom), charge = 0, multiplicity = 1:

       Center              X                  Y                   Z               Mass
    ------------   -----------------  -----------------  -----------------  -----------------
         O           -1.500261526050    -0.794930020784     0.000057222162    15.994914619570
         N            1.957724373950    -0.316614920784    -0.000052177838    14.003074004430
         C           -0.254274626050    -0.219184920784     0.000015822162    12.000000000000
         C            0.822554373950    -1.092736920784    -0.000025177838    12.000000000000
         C            0.248034373950     1.108353079216     0.000011822162    12.000000000000
         C            1.631640373950     1.012027079216    -0.000036177838    12.000000000000
         C           -2.521001626050     0.380356079216     0.000025822162    12.000000000000
         H            0.852662373950    -2.171890920784    -0.000039177838     1.007825032230
         H           -0.314976626050     2.030892079216     0.000036822162     1.007825032230
         H            2.900196373950    -0.681151920784    -0.000093177838     1.007825032230
         H            2.392093373950     1.780085079216    -0.000048177838     1.007825032230
         H           -3.492212626050    -0.114611920784     0.000043822162     1.007825032230
         H           -2.429535626050     1.008442079216    -0.893738177838     1.007825032230
         H           -2.429536626050     1.008501079216     0.893748822162     1.007825032230

  Basis Set: AUG-CC-PVTZ
    Blend: AUG-CC-PVTZ
  Basis Set: (AUG-CC-PVTZ AUX)
    Blend: AUG-CC-PVTZ-JKFIT
	 Reference Energy          =    -322.7817495163392323 [Eh]
	 Singles Energy            =      -0.0000000000000000 [Eh]
	 Same-Spin Energy          =      -0.3413227460123031 [Eh]
	 Opposite-Spin Energy      =      -1.0687887894521184 [Eh]
	 Correlation Energy        =      -1.4101115354644214 [Eh]
	 Total Energy              =    -324.1918610518036417 [Eh]

	 ================> DF-SCS-MP2 Energies <==================
	-----------------------------------------------------------
	 SCS Same-Spin Scale       =       0.3333333333333333 [-]
	 SCS Opposite-Spin Scale   =       1.2000000000000000 [-]
	 SCS Same-Spin Energy      =      -0.1137742486707677 [Eh]
	 SCS Opposite-Spin Energy  =      -1.2825465473425421 [Eh]
	 SCS Correlation Energy    =      -1.3963207960133097 [Eh]
	 SCS Total Energy          =    -324.1780703123525313 [Eh]
	-----------------------------------------------------------

  Dipole Moment: [D]
     X:     1.0485      Y:     0.8601      Z:    -0.0001     Total:     1.3562

*** Psi4 exiting successfully. Buy a developer a beer!
