                               Psi4 1.3.2 release

  ==> Input File <==

--------------------------------------------------------------------------
#psi4
#
memory 32 gb

molecule  {
0 1
  O       -1.5212240    -0.7093150     0.0000610
  N        1.9763999    -0.3447018    -0.0000514
  C       -0.2218810    -0.2669650     0.0000160
  C        0.8549480    -1.1405170    -0.0000250
  C        0.2804280     1.0605730     0.0000120
  C        1.6640340     0.9642470    -0.0000360
  C       -2.4886080     0.3325760     0.0000260
  H        0.8850560    -2.2196710    -0.0000390
  H       -0.2825830     1.9831120     0.0000370
  H        2.9325900    -0.7289320    -0.0000930
  H        2.4244870     1.7323050    -0.0000480
  H       -3.4598190    -0.1623920     0.0000440
  H       -2.3971420     0.9606620    -0.8937380
  H       -2.3971430     0.9607210     0.8937490
units angstrom
no_reorient  #important for SAPT in psi4, default
symmetry c1  #important for SAPT in psi4, default
}

set PROPERTIES_ORIGIN ["COM"]
properties('MP2/aug-cc-pvtz', properties = ['dipole'])
--------------------------------------------------------------------------

    Molecular point group: c1
  Charge       = 0
  Multiplicity = 1
  Basis Set: AUG-CC-PVTZ
    Blend: AUG-CC-PVTZ
  Basis Set: (AUG-CC-PVTZ AUX)
    Blend: AUG-CC-PVTZ-JKFIT

    Orbital Energies [Eh]
    ---------------------

    Doubly Occupied:

       1A    -20.570164     2A    -15.610097     3A    -11.273287
       4A    -11.271925     5A    -11.258243     6A    -11.238943
       7A    -11.210786     8A     -1.388646     9A     -1.293320
      10A     -1.036912    11A     -0.987330    12A     -0.923525
      13A     -0.796562    14A     -0.755628    15A     -0.736993
      16A     -0.641928    17A     -0.641395    18A     -0.617206
      19A     -0.590569    20A     -0.570324    21A     -0.565459
      22A     -0.534439    23A     -0.485696    24A     -0.481811
      25A     -0.332975    26A     -0.284990

  @DF-RHF Final Energy:  -322.80058266757396

   => Energetics <=

    Nuclear Repulsion Energy =            292.6459741368375944
    One-Electron Energy =               -1018.6948069320475270
    Two-Electron Energy =                 403.2482501276359699
    Total Energy =                       -322.8005826675739627
  Basis Set: (AUG-CC-PVTZ AUX)
    Blend: AUG-CC-PVTZ-RI
    Molecular point group: c1

    Geometry (in Angstrom), charge = 0, multiplicity = 1:

       Center              X                  Y                   Z               Mass
    ------------   -----------------  -----------------  -----------------  -----------------
         O           -1.542844910344    -0.686360680264     0.000060142289    15.994914619570
         N            1.954778989656    -0.321747480264    -0.000052257711    14.003074004430
         C           -0.243501910344    -0.244010680264     0.000015142289    12.000000000000
         C            0.833327089656    -1.117562680264    -0.000025857711    12.000000000000
         C            0.258807089656     1.083527319736     0.000011142289    12.000000000000
         C            1.642413089656     0.987201319736    -0.000036857711    12.000000000000
         C           -2.510228910344     0.355530319736     0.000025142289    12.000000000000
         H            0.863435089656    -2.196716680264    -0.000039857711     1.007825032230
         H           -0.304203910344     2.006066319736     0.000036142289     1.007825032230
         H            2.910969089656    -0.705977680264    -0.000093857711     1.007825032230
         H            2.402866089656     1.755259319736    -0.000048857711     1.007825032230
         H           -3.481439910344    -0.139437680264     0.000043142289     1.007825032230
         H           -2.418762910344     0.983616319736    -0.893738857711     1.007825032230
         H           -2.418763910344     0.983675319736     0.893748142289     1.007825032230

  Basis Set: AUG-CC-PVTZ
    Blend: AUG-CC-PVTZ
  Basis Set: (AUG-CC-PVTZ AUX)
    Blend: AUG-CC-PVTZ-JKFIT
	 Reference Energy          =    -322.8005826675739627 [Eh]
	 Singles Energy            =      -0.0000000000000000 [Eh]
	 Same-Spin Energy          =      -0.3400143721513518 [Eh]
	 Opposite-Spin Energy      =      -1.0636112059261698 [Eh]
	 Correlation Energy        =      -1.4036255780775215 [Eh]
	 Total Energy              =    -324.2042082456515004 [Eh]

	 ================> DF-SCS-MP2 Energies <==================
	-----------------------------------------------------------
	 SCS Same-Spin Scale       =       0.3333333333333333 [-]
	 SCS Opposite-Spin Scale   =       1.2000000000000000 [-]
	 SCS Same-Spin Energy      =      -0.1133381240504506 [Eh]
	 SCS Opposite-Spin Energy  =      -1.2763334471114036 [Eh]
	 SCS Correlation Energy    =      -1.3896715711618541 [Eh]
	 SCS Total Energy          =    -324.1902542387358039 [Eh]
	-----------------------------------------------------------

  Dipole Moment: [D]
     X:     1.4387      Y:     0.5414      Z:    -0.0001     Total:     1.5372

*** Psi4 exiting successfully. Buy a developer a beer!
