                               Psi4 1.3.2 release

  ==> Input File <==

--------------------------------------------------------------------------
#psi4
#
memory 32 gb

molecule  {
0 1
  O       -1.5489156    -0.6175999     0.0000623
  N        1.9901180    -0.3643950    -0.0000520
  C       -0.2218810    -0.2669650     0.0000160
  C        0.8549480    -1.1405170    -0.0000250
  C        0.2804280     1.0605730     0.0000120
  C        1.6640340     0.9642470    -0.0000360
  C       -2.4886080     0.3325760     0.0000260
  H        0.8850560    -2.2196710    -0.0000390
  H       -0.2825830     1.9831120     0.0000370
  H        2.9325900    -0.7289320    -0.0000930
  H        2.4244870     1.7323050    -0.0000480
  H       -3.4598190    -0.1623920     0.0000440
  H       -2.3971420     0.9606620    -0.8937380
  H       -2.3971430     0.9607210     0.8937490
units angstrom
no_reorient  #important for SAPT in psi4, default
symmetry c1  #important for SAPT in psi4, default
}

set PROPERTIES_ORIGIN ["COM"]
properties('MP2/aug-cc-pvtz', properties = ['dipole'])
--------------------------------------------------------------------------

    Molecular point group: c1
  Charge       = 0
  Multiplicity = 1
  Basis Set: AUG-CC-PVTZ
    Blend: AUG-CC-PVTZ
  Basis Set: (AUG-CC-PVTZ AUX)
    Blend: AUG-CC-PVTZ-JKFIT

    Orbital Energies [Eh]
    ---------------------

    Doubly Occupied:

       1A    -20.565899     2A    -15.610287     3A    -11.277120
       4A    -11.265559     5A    -11.261288     6A    -11.245860
       7A    -11.212889     8A     -1.413466     9A     -1.290889
      10A     -1.046418    11A     -0.989221    12A     -0.922037
      13A     -0.804151    14A     -0.757923    15A     -0.738556
      16A     -0.656718    17A     -0.655754    18A     -0.633020
      19A     -0.587008    20A     -0.569653    21A     -0.569259
      22A     -0.541637    23A     -0.472495    24A     -0.469863
      25A     -0.336134    26A     -0.287193

  @DF-RHF Final Energy:  -322.79865955184584

   => Energetics <=

    Nuclear Repulsion Energy =            293.5389625614100169
    One-Electron Energy =               -1020.3146580551258467
    Two-Electron Energy =                 403.9770359418699854
    Total Energy =                       -322.7986595518458444
  Basis Set: (AUG-CC-PVTZ AUX)
    Blend: AUG-CC-PVTZ-RI
    Molecular point group: c1

    Geometry (in Angstrom), charge = 0, multiplicity = 1:

       Center              X                  Y                   Z               Mass
    ------------   -----------------  -----------------  -----------------  -----------------
         O           -1.567952048055    -0.606919417809     0.000061314611    15.994914619570
         N            1.971081551945    -0.353714517809    -0.000052985389    14.003074004430
         C           -0.240917448055    -0.256284517809     0.000015014611    12.000000000000
         C            0.835911551945    -1.129836517809    -0.000025985389    12.000000000000
         C            0.261391551945     1.071253482191     0.000011014611    12.000000000000
         C            1.644997551945     0.974927482191    -0.000036985389    12.000000000000
         C           -2.507644448055     0.343256482191     0.000025014611    12.000000000000
         H            0.866019551945    -2.208990517809    -0.000039985389     1.007825032230
         H           -0.301619448055     1.993792482191     0.000036014611     1.007825032230
         H            2.913553551945    -0.718251517809    -0.000093985389     1.007825032230
         H            2.405450551945     1.742985482191    -0.000048985389     1.007825032230
         H           -3.478855448055    -0.151711517809     0.000043014611     1.007825032230
         H           -2.416178448055     0.971342482191    -0.893738985389     1.007825032230
         H           -2.416179448055     0.971401482191     0.893748014611     1.007825032230

  Basis Set: AUG-CC-PVTZ
    Blend: AUG-CC-PVTZ
  Basis Set: (AUG-CC-PVTZ AUX)
    Blend: AUG-CC-PVTZ-JKFIT
	 Reference Energy          =    -322.7986595518458444 [Eh]
	 Singles Energy            =      -0.0000000000000000 [Eh]
	 Same-Spin Energy          =      -0.3393136867804396 [Eh]
	 Opposite-Spin Energy      =      -1.0613040105530007 [Eh]
	 Correlation Energy        =      -1.4006176973334403 [Eh]
	 Total Energy              =    -324.1992772491792607 [Eh]

	 ================> DF-SCS-MP2 Energies <==================
	-----------------------------------------------------------
	 SCS Same-Spin Scale       =       0.3333333333333333 [-]
	 SCS Opposite-Spin Scale   =       1.2000000000000000 [-]
	 SCS Same-Spin Energy      =      -0.1131045622601465 [Eh]
	 SCS Opposite-Spin Energy  =      -1.2735648126636008 [Eh]
	 SCS Correlation Energy    =      -1.3866693749237473 [Eh]
	 SCS Total Energy          =    -324.1853289267696141 [Eh]
	-----------------------------------------------------------

  Dipole Moment: [D]
     X:     1.6276      Y:     0.3308      Z:    -0.0001     Total:     1.6609

*** Psi4 exiting successfully. Buy a developer a beer!
