                               Psi4 1.3.2 release

  ==> Input File <==

--------------------------------------------------------------------------
#psi4
#
memory 32 gb

molecule  {
0 1
  O       -1.5212240    -0.7093150     0.0000610
  N        1.9901180    -0.3643950    -0.0000520
  C       -0.0325519    -0.2025096     0.0000094
  C        0.8549480    -1.1405170    -0.0000250
  C        0.2804280     1.0605730     0.0000120
  C        1.6640340     0.9642470    -0.0000360
  C       -2.4886080     0.3325760     0.0000260
  H        0.8850560    -2.2196710    -0.0000390
  H       -0.2825830     1.9831120     0.0000370
  H        2.9325900    -0.7289320    -0.0000930
  H        2.4244870     1.7323050    -0.0000480
  H       -3.4598190    -0.1623920     0.0000440
  H       -2.3971420     0.9606620    -0.8937380
  H       -2.3971430     0.9607210     0.8937490
units angstrom
no_reorient  #important for SAPT in psi4, default
symmetry c1  #important for SAPT in psi4, default
}

set PROPERTIES_ORIGIN ["COM"]
properties('MP2/aug-cc-pvtz', properties = ['dipole'])
--------------------------------------------------------------------------

    Molecular point group: c1
  Charge       = 0
  Multiplicity = 1
  Basis Set: AUG-CC-PVTZ
    Blend: AUG-CC-PVTZ
  Basis Set: (AUG-CC-PVTZ AUX)
    Blend: AUG-CC-PVTZ-JKFIT

    Orbital Energies [Eh]
    ---------------------

    Doubly Occupied:

       1A    -20.541811     2A    -15.615765     3A    -11.269385
       4A    -11.261156     5A    -11.255821     6A    -11.240752
       7A    -11.211653     8A     -1.332042     9A     -1.301140
      10A     -1.073521    11A     -1.001023    12A     -0.896095
      13A     -0.820111    14A     -0.760629    15A     -0.732870
      16A     -0.622691    17A     -0.617894    18A     -0.614719
      19A     -0.595821    20A     -0.583908    21A     -0.563446
      22A     -0.544773    23A     -0.453370    24A     -0.446245
      25A     -0.361640    26A     -0.304062

  @DF-RHF Final Energy:  -322.74753779081186

   => Energetics <=

    Nuclear Repulsion Energy =            293.2511097483891263
    One-Electron Energy =               -1019.9526054137437541
    Two-Electron Energy =                 403.9539578745427661
    Total Energy =                       -322.7475377908118617
  Basis Set: (AUG-CC-PVTZ AUX)
    Blend: AUG-CC-PVTZ-RI
    Molecular point group: c1

    Geometry (in Angstrom), charge = 0, multiplicity = 1:

       Center              X                  Y                   Z               Mass
    ------------   -----------------  -----------------  -----------------  -----------------
         O           -1.568233623367    -0.691488813078     0.000061044910    15.994914619570
         N            1.943108376633    -0.346568813078    -0.000051955090    14.003074004430
         C           -0.079561523367    -0.184683413078     0.000009444910    12.000000000000
         C            0.807938376633    -1.122690813078    -0.000024955090    12.000000000000
         C            0.233418376633     1.078399186922     0.000012044910    12.000000000000
         C            1.617024376633     0.982073186922    -0.000035955090    12.000000000000
         C           -2.535617623367     0.350402186922     0.000026044910    12.000000000000
         H            0.838046376633    -2.201844813078    -0.000038955090     1.007825032230
         H           -0.329592623367     2.000938186922     0.000037044910     1.007825032230
         H            2.885580376633    -0.711105813078    -0.000092955090     1.007825032230
         H            2.377477376633     1.750131186922    -0.000047955090     1.007825032230
         H           -3.506828623367    -0.144565813078     0.000044044910     1.007825032230
         H           -2.444151623367     0.978488186922    -0.893737955090     1.007825032230
         H           -2.444152623367     0.978547186922     0.893749044910     1.007825032230

  Basis Set: AUG-CC-PVTZ
    Blend: AUG-CC-PVTZ
  Basis Set: (AUG-CC-PVTZ AUX)
    Blend: AUG-CC-PVTZ-JKFIT
	 Reference Energy          =    -322.7475377908118617 [Eh]
	 Singles Energy            =      -0.0000000000000000 [Eh]
	 Same-Spin Energy          =      -0.3415042247220078 [Eh]
	 Opposite-Spin Energy      =      -1.0674914672320339 [Eh]
	 Correlation Energy        =      -1.4089956919540416 [Eh]
	 Total Energy              =    -324.1565334827658944 [Eh]

	 ================> DF-SCS-MP2 Energies <==================
	-----------------------------------------------------------
	 SCS Same-Spin Scale       =       0.3333333333333333 [-]
	 SCS Opposite-Spin Scale   =       1.2000000000000000 [-]
	 SCS Same-Spin Energy      =      -0.1138347415740026 [Eh]
	 SCS Opposite-Spin Energy  =      -1.2809897606784406 [Eh]
	 SCS Correlation Energy    =      -1.3948245022524433 [Eh]
	 SCS Total Energy          =    -324.1423622930643091 [Eh]
	-----------------------------------------------------------

  Dipole Moment: [D]
     X:     2.4953      Y:     0.7444      Z:    -0.0002     Total:     2.6039

*** Psi4 exiting successfully. Buy a developer a beer!
