                               Psi4 1.4a3.dev225

  ==> Input File <==

--------------------------------------------------------------------------
#psi4
#
memory 32 gb

molecule  {
0 1
  O       -1.5212240    -0.7093150     0.0000610
  N        1.9901180    -0.3643950    -0.0000520
  C       -0.2408139    -0.2734105     0.0000167
  C        0.8549480    -1.1405170    -0.0000250
  C        0.2804280     1.0605730     0.0000120
  C        1.6640340     0.9642470    -0.0000360
  C       -2.4886080     0.3325760     0.0000260
  H        0.8850560    -2.2196710    -0.0000390
  H       -0.2825830     1.9831120     0.0000370
  H        2.9325900    -0.7289320    -0.0000930
  H        2.4244870     1.7323050    -0.0000480
  H       -3.4598190    -0.1623920     0.0000440
  H       -2.3971420     0.9606620    -0.8937380
  H       -2.3971430     0.9607210     0.8937490
units angstrom
no_reorient  #important for SAPT in psi4, default
symmetry c1  #important for SAPT in psi4, default
}

set PROPERTIES_ORIGIN ["COM"]
properties('MP2/aug-cc-pvtz', properties = ['dipole'])
--------------------------------------------------------------------------

    Molecular point group: c1
  Charge       = 0
  Multiplicity = 1
  Basis Set: AUG-CC-PVTZ
    Blend: AUG-CC-PVTZ
  Basis Set: (AUG-CC-PVTZ AUX)
    Blend: AUG-CC-PVTZ-JKFIT

    Orbital Energies [Eh]
    ---------------------

    Doubly Occupied:

       1A    -20.573345     2A    -15.607257     3A    -11.275848
       4A    -11.274125     5A    -11.259149     6A    -11.240349
       7A    -11.213567     8A     -1.398163     9A     -1.285620
      10A     -1.036483    11A     -0.985098    12A     -0.924979
      13A     -0.798819    14A     -0.755930    15A     -0.734868
      16A     -0.648467    17A     -0.645956    18A     -0.620986
      19A     -0.583758    20A     -0.567098    21A     -0.565345
      22A     -0.535589    23A     -0.485776    24A     -0.485607
      25A     -0.332942    26A     -0.281225

  @DF-RHF Final Energy:  -322.80107587972645

   => Energetics <=

    Nuclear Repulsion Energy =            292.1582079050626248
    One-Electron Energy =               -1017.6858680793699250
    Two-Electron Energy =                 402.7265842945809027
    Total Energy =                       -322.8010758797264543
  Basis Set: (AUG-CC-PVTZ AUX)
    Blend: AUG-CC-PVTZ-RI
    Molecular point group: c1

    Geometry (in Angstrom), charge = 0, multiplicity = 1:

       Center              X                  Y                   Z               Mass
    ------------   -----------------  -----------------  -----------------  -----------------
         O           -1.542483259329    -0.682722336305     0.000060142308    15.994914619570
         N            1.968858740671    -0.337802336305    -0.000052857692    14.003074004430
         C           -0.262073159329    -0.246817836305     0.000015842308    12.000000000000
         C            0.833688740671    -1.113924336305    -0.000025857692    12.000000000000
         C            0.259168740671     1.087165663695     0.000011142308    12.000000000000
         C            1.642774740671     0.990839663695    -0.000036857692    12.000000000000
         C           -2.509867259329     0.359168663695     0.000025142308    12.000000000000
         H            0.863796740671    -2.193078336305    -0.000039857692     1.007825032230
         H           -0.303842259329     2.009704663695     0.000036142308     1.007825032230
         H            2.911330740671    -0.702339336305    -0.000093857692     1.007825032230
         H            2.403227740671     1.758897663695    -0.000048857692     1.007825032230
         H           -3.481078259329    -0.135799336305     0.000043142308     1.007825032230
         H           -2.418401259329     0.987254663695    -0.893738857692     1.007825032230
         H           -2.418402259329     0.987313663695     0.893748142308     1.007825032230

  Basis Set: AUG-CC-PVTZ
    Blend: AUG-CC-PVTZ
  Basis Set: (AUG-CC-PVTZ AUX)
    Blend: AUG-CC-PVTZ-JKFIT
	 Reference Energy          =    -322.8010758797264543 [Eh]
	 Singles Energy            =      -0.0000000000000000 [Eh]
	 Same-Spin Energy          =      -0.3398571254256411 [Eh]
	 Opposite-Spin Energy      =      -1.0635957944085925 [Eh]
	 Correlation Energy        =      -1.4034529198342336 [Eh]
	 Total Energy              =    -324.2045287995607055 [Eh]

	 ================> DF-SCS-MP2 Energies <==================
	-----------------------------------------------------------
	 SCS Same-Spin Scale       =       0.3333333333333333 [-]
	 SCS Opposite-Spin Scale   =       1.2000000000000000 [-]
	 SCS Same-Spin Energy      =      -0.1132857084752137 [Eh]
	 SCS Opposite-Spin Energy  =      -1.2763149532903111 [Eh]
	 SCS Correlation Energy    =      -1.3896006617655248 [Eh]
	 SCS Total Energy          =    -324.1906765414919960 [Eh]
	-----------------------------------------------------------

  Dipole Moment: [D]
     X:     1.2403      Y:     0.5546      Z:    -0.0001     Total:     1.3586

*** Psi4 exiting successfully. Buy a developer a beer!
