                               Psi4 1.3.2 release

  ==> Input File <==

--------------------------------------------------------------------------
#psi4
#
memory 32 gb

molecule  {
0 1
  O       -1.5212240    -0.7093150     0.0000610
  N        1.9901180    -0.3643950    -0.0000520
  C       -0.2218810    -0.2669650     0.0000160
  C        0.8549480    -1.1405170    -0.0000250
  C        0.2804280     1.0605730     0.0000120
  C        1.6640340     0.9642470    -0.0000360
  C       -2.4886080     0.3325760     0.0000260
  H        0.8850560    -2.2196710    -0.0000390
  H       -0.2825830     1.9831120     0.0000370
  H        2.9325900    -0.7289320    -0.0000930
  H        2.4244870     1.7323050    -0.0000480
  H       -3.4598190    -0.1623920     0.0000440
  H       -2.3971420     0.9606620    -0.8937380
  H       -2.3971430     0.9607210     0.8937490
units angstrom
no_reorient  #important for SAPT in psi4, default
symmetry c1  #important for SAPT in psi4, default
}

set PROPERTIES_ORIGIN ["COM"]
properties('MP2/aug-cc-pvtz', properties = ['dipole'])
--------------------------------------------------------------------------

    Molecular point group: c1
  Charge       = 0
  Multiplicity = 1
  Basis Set: AUG-CC-PVTZ
    Blend: AUG-CC-PVTZ
  Basis Set: (AUG-CC-PVTZ AUX)
    Blend: AUG-CC-PVTZ-JKFIT

    Orbital Energies [Eh]
    ---------------------

    Doubly Occupied:

       1A    -20.570553     2A    -15.608036     3A    -11.273868
       4A    -11.272202     5A    -11.259895     6A    -11.240543
       7A    -11.213309     8A     -1.389008     9A     -1.287732
      10A     -1.039739    11A     -0.985469    12A     -0.922730
      13A     -0.800228    14A     -0.754859    15A     -0.735837
      16A     -0.645447    17A     -0.642299    18A     -0.617377
      19A     -0.584916    20A     -0.567886    21A     -0.566975
      22A     -0.536259    23A     -0.486459    24A     -0.481778
      25A     -0.335396    26A     -0.283839

  @DF-RHF Final Energy:  -322.80152998575272

   => Energetics <=

    Nuclear Repulsion Energy =            292.2083527542239381
    One-Electron Energy =               -1017.8144860628999595
    Two-Electron Energy =                 402.8046033229232989
    Total Energy =                       -322.8015299857527225
  Basis Set: (AUG-CC-PVTZ AUX)
    Blend: AUG-CC-PVTZ-RI
    Molecular point group: c1

    Geometry (in Angstrom), charge = 0, multiplicity = 1:

       Center              X                  Y                   Z               Mass
    ------------   -----------------  -----------------  -----------------  -----------------
         O           -1.544824200391    -0.683519284243     0.000060228859    15.994914619570
         N            1.966517799609    -0.338599284243    -0.000052771141    14.003074004430
         C           -0.245481200391    -0.241169284243     0.000015228859    12.000000000000
         C            0.831347799609    -1.114721284243    -0.000025771141    12.000000000000
         C            0.256827799609     1.086368715757     0.000011228859    12.000000000000
         C            1.640433799609     0.990042715757    -0.000036771141    12.000000000000
         C           -2.512208200391     0.358371715757     0.000025228859    12.000000000000
         H            0.861455799609    -2.193875284243    -0.000039771141     1.007825032230
         H           -0.306183200391     2.008907715757     0.000036228859     1.007825032230
         H            2.908989799609    -0.703136284243    -0.000093771141     1.007825032230
         H            2.400886799609     1.758100715757    -0.000048771141     1.007825032230
         H           -3.483419200391    -0.136596284243     0.000043228859     1.007825032230
         H           -2.420742200391     0.986457715757    -0.893738771141     1.007825032230
         H           -2.420743200391     0.986516715757     0.893748228859     1.007825032230

  Basis Set: AUG-CC-PVTZ
    Blend: AUG-CC-PVTZ
  Basis Set: (AUG-CC-PVTZ AUX)
    Blend: AUG-CC-PVTZ-JKFIT
	 Reference Energy          =    -322.8015299857527225 [Eh]
	 Singles Energy            =      -0.0000000000000000 [Eh]
	 Same-Spin Energy          =      -0.3398049446883669 [Eh]
	 Opposite-Spin Energy      =      -1.0636472599052209 [Eh]
	 Correlation Energy        =      -1.4034522045935878 [Eh]
	 Total Energy              =    -324.2049821903462998 [Eh]

	 ================> DF-SCS-MP2 Energies <==================
	-----------------------------------------------------------
	 SCS Same-Spin Scale       =       0.3333333333333333 [-]
	 SCS Opposite-Spin Scale   =       1.2000000000000000 [-]
	 SCS Same-Spin Energy      =      -0.1132683148961223 [Eh]
	 SCS Opposite-Spin Energy  =      -1.2763767118862650 [Eh]
	 SCS Correlation Energy    =      -1.3896450267823872 [Eh]
	 SCS Total Energy          =    -324.1911750125350977 [Eh]
	-----------------------------------------------------------

  Dipole Moment: [D]
     X:     1.3691      Y:     0.5718      Z:    -0.0001     Total:     1.4837

*** Psi4 exiting successfully. Buy a developer a beer!
