                               Psi4 1.3.2 release

  ==> Input File <==

--------------------------------------------------------------------------
#psi4
#
memory 32 gb

molecule  {
0 1
  O       -1.5212240    -0.7093150     0.0000610
  N        2.0034903    -0.3843247    -0.0000527
  C       -0.2218810    -0.2669650     0.0000160
  C        0.8549480    -1.1405170    -0.0000250
  C        0.2804280     1.0605730     0.0000120
  C        1.6640340     0.9642470    -0.0000360
  C       -2.4886080     0.3325760     0.0000260
  H        0.8850560    -2.2196710    -0.0000390
  H       -0.2825830     1.9831120     0.0000370
  H        2.9325900    -0.7289320    -0.0000930
  H        2.4244870     1.7323050    -0.0000480
  H       -3.4598190    -0.1623920     0.0000440
  H       -2.3971420     0.9606620    -0.8937380
  H       -2.3971430     0.9607210     0.8937490
units angstrom
no_reorient  #important for SAPT in psi4, default
symmetry c1  #important for SAPT in psi4, default
}

set PROPERTIES_ORIGIN ["COM"]
properties('MP2/aug-cc-pvtz', properties = ['dipole'])
--------------------------------------------------------------------------

    Molecular point group: c1
  Charge       = 0
  Multiplicity = 1
  Basis Set: AUG-CC-PVTZ
    Blend: AUG-CC-PVTZ
  Basis Set: (AUG-CC-PVTZ AUX)
    Blend: AUG-CC-PVTZ-JKFIT

    Orbital Energies [Eh]
    ---------------------

    Doubly Occupied:

       1A    -20.570952     2A    -15.605968     3A    -11.274450
       4A    -11.272505     5A    -11.261534     6A    -11.242215
       7A    -11.215831     8A     -1.389390     9A     -1.282594
      10A     -1.042722    11A     -0.983812    12A     -0.922016
      13A     -0.803896    14A     -0.754112    15A     -0.734721
      16A     -0.649547    17A     -0.642701    18A     -0.617568
      19A     -0.579107    20A     -0.570049    21A     -0.563877
      22A     -0.537901    23A     -0.487208    24A     -0.481734
      25A     -0.337873    26A     -0.282709

  @DF-RHF Final Energy:  -322.80063995784769

   => Energetics <=

    Nuclear Repulsion Energy =            291.7841027360075827
    One-Electron Energy =               -1016.9554978591182817
    Two-Electron Energy =                 402.3707551652629490
    Total Energy =                       -322.8006399578476930
  Basis Set: (AUG-CC-PVTZ AUX)
    Blend: AUG-CC-PVTZ-RI
    Molecular point group: c1

    Geometry (in Angstrom), charge = 0, multiplicity = 1:

       Center              X                  Y                   Z               Mass
    ------------   -----------------  -----------------  -----------------  -----------------
         O           -1.546753597340    -0.680643765268     0.000060329857    15.994914619570
         N            1.977960702660    -0.355653465268    -0.000053370143    14.003074004430
         C           -0.247410597340    -0.238293765268     0.000015329857    12.000000000000
         C            0.829418402660    -1.111845765268    -0.000025670143    12.000000000000
         C            0.254898402660     1.089244234732     0.000011329857    12.000000000000
         C            1.638504402660     0.992918234732    -0.000036670143    12.000000000000
         C           -2.514137597340     0.361247234732     0.000025329857    12.000000000000
         H            0.859526402660    -2.190999765268    -0.000039670143     1.007825032230
         H           -0.308112597340     2.011783234732     0.000036329857     1.007825032230
         H            2.907060402660    -0.700260765268    -0.000093670143     1.007825032230
         H            2.398957402660     1.760976234732    -0.000048670143     1.007825032230
         H           -3.485348597340    -0.133720765268     0.000043329857     1.007825032230
         H           -2.422671597340     0.989333234732    -0.893738670143     1.007825032230
         H           -2.422672597340     0.989392234732     0.893748329857     1.007825032230

  Basis Set: AUG-CC-PVTZ
    Blend: AUG-CC-PVTZ
  Basis Set: (AUG-CC-PVTZ AUX)
    Blend: AUG-CC-PVTZ-JKFIT
	 Reference Energy          =    -322.8006399578476930 [Eh]
	 Singles Energy            =      -0.0000000000000000 [Eh]
	 Same-Spin Energy          =      -0.3396172353433430 [Eh]
	 Opposite-Spin Energy      =      -1.0637582652200601 [Eh]
	 Correlation Energy        =      -1.4033755005634032 [Eh]
	 Total Energy              =    -324.2040154584111065 [Eh]

	 ================> DF-SCS-MP2 Energies <==================
	-----------------------------------------------------------
	 SCS Same-Spin Scale       =       0.3333333333333333 [-]
	 SCS Opposite-Spin Scale   =       1.2000000000000000 [-]
	 SCS Same-Spin Energy      =      -0.1132057451144477 [Eh]
	 SCS Opposite-Spin Energy  =      -1.2765099182640720 [Eh]
	 SCS Correlation Energy    =      -1.3897156633785197 [Eh]
	 SCS Total Energy          =    -324.1903556212262174 [Eh]
	-----------------------------------------------------------

  Dipole Moment: [D]
     X:     1.2990      Y:     0.6048      Z:    -0.0001     Total:     1.4329

*** Psi4 exiting successfully. Buy a developer a beer!
