                               Psi4 1.3.2 release

  ==> Input File <==

--------------------------------------------------------------------------
#psi4
#
memory 32 gb

molecule  {
0 1
  O       -1.5212240    -0.7093150     0.0000610
  N        1.9901180    -0.3643950    -0.0000520
  C       -0.2218810    -0.2669650     0.0000160
  C        0.8035737    -1.0594409    -0.0000216
  C        0.2804280     1.0605730     0.0000120
  C        1.6640340     0.9642470    -0.0000360
  C       -2.4886080     0.3325760     0.0000260
  H        0.8850560    -2.2196710    -0.0000390
  H       -0.2825830     1.9831120     0.0000370
  H        2.9325900    -0.7289320    -0.0000930
  H        2.4244870     1.7323050    -0.0000480
  H       -3.4598190    -0.1623920     0.0000440
  H       -2.3971420     0.9606620    -0.8937380
  H       -2.3971430     0.9607210     0.8937490
units angstrom
no_reorient  #important for SAPT in psi4, default
symmetry c1  #important for SAPT in psi4, default
}

set PROPERTIES_ORIGIN ["COM"]
properties('MP2/aug-cc-pvtz', properties = ['dipole'])
--------------------------------------------------------------------------

    Molecular point group: c1
  Charge       = 0
  Multiplicity = 1
  Basis Set: AUG-CC-PVTZ
    Blend: AUG-CC-PVTZ
  Basis Set: (AUG-CC-PVTZ AUX)
    Blend: AUG-CC-PVTZ-JKFIT

    Orbital Energies [Eh]
    ---------------------

    Doubly Occupied:

       1A    -20.570268     2A    -15.602800     3A    -11.274088
       4A    -11.260002     5A    -11.259511     6A    -11.237597
       7A    -11.211833     8A     -1.389774     9A     -1.291993
      10A     -1.051970    11A     -0.986278    12A     -0.923577
      13A     -0.801070    14A     -0.757517    15A     -0.727404
      16A     -0.657653    17A     -0.644194    18A     -0.615643
      19A     -0.571939    20A     -0.571644    21A     -0.555315
      22A     -0.538818    23A     -0.486163    24A     -0.482515
      25A     -0.336113    26A     -0.295949

  @DF-RHF Final Energy:  -322.79098567278550

   => Energetics <=

    Nuclear Repulsion Energy =            293.9860913629964330
    One-Electron Energy =               -1021.3508981491244185
    Two-Electron Energy =                 404.5738211133424329
    Total Energy =                       -322.7909856727854958
  Basis Set: (AUG-CC-PVTZ AUX)
    Blend: AUG-CC-PVTZ-RI
    Molecular point group: c1

    Geometry (in Angstrom), charge = 0, multiplicity = 1:

       Center              X                  Y                   Z               Mass
    ------------   -----------------  -----------------  -----------------  -----------------
         O           -1.538472072171    -0.693543864290     0.000059808469    15.994914619570
         N            1.972869927829    -0.348623864290    -0.000053191531    14.003074004430
         C           -0.239129072171    -0.251193864290     0.000014808469    12.000000000000
         C            0.786325627829    -1.043669764290    -0.000022791531    12.000000000000
         C            0.263179927829     1.076344135710     0.000010808469    12.000000000000
         C            1.646785927829     0.980018135710    -0.000037191531    12.000000000000
         C           -2.505856072171     0.348347135710     0.000024808469    12.000000000000
         H            0.867807927829    -2.203899864290    -0.000040191531     1.007825032230
         H           -0.299831072171     1.998883135710     0.000035808469     1.007825032230
         H            2.915341927829    -0.713160864290    -0.000094191531     1.007825032230
         H            2.407238927829     1.748076135710    -0.000049191531     1.007825032230
         H           -3.477067072171    -0.146620864290     0.000042808469     1.007825032230
         H           -2.414390072171     0.976433135710    -0.893739191531     1.007825032230
         H           -2.414391072171     0.976492135710     0.893747808469     1.007825032230

  Basis Set: AUG-CC-PVTZ
    Blend: AUG-CC-PVTZ
  Basis Set: (AUG-CC-PVTZ AUX)
    Blend: AUG-CC-PVTZ-JKFIT
	 Reference Energy          =    -322.7909856727854958 [Eh]
	 Singles Energy            =      -0.0000000000000000 [Eh]
	 Same-Spin Energy          =      -0.3386321368418874 [Eh]
	 Opposite-Spin Energy      =      -1.0619451198773224 [Eh]
	 Correlation Energy        =      -1.4005772567192099 [Eh]
	 Total Energy              =    -324.1915629295046983 [Eh]

	 ================> DF-SCS-MP2 Energies <==================
	-----------------------------------------------------------
	 SCS Same-Spin Scale       =       0.3333333333333333 [-]
	 SCS Opposite-Spin Scale   =       1.2000000000000000 [-]
	 SCS Same-Spin Energy      =      -0.1128773789472958 [Eh]
	 SCS Opposite-Spin Energy  =      -1.2743341438527869 [Eh]
	 SCS Correlation Energy    =      -1.3872115228000828 [Eh]
	 SCS Total Energy          =    -324.1781971955855965 [Eh]
	-----------------------------------------------------------

  Dipole Moment: [D]
     X:     1.3861      Y:     0.5717      Z:    -0.0001     Total:     1.4994

*** Psi4 exiting successfully. Buy a developer a beer!
