                               Psi4 1.3.2 release

  ==> Input File <==

--------------------------------------------------------------------------
#psi4
#
memory 32 gb

molecule  {
0 1
  O       -1.5212240    -0.7093150     0.0000610
  N        1.9027726    -0.2499891    -0.0000478
  C       -0.2218810    -0.2669650     0.0000160
  C        0.8549480    -1.1405170    -0.0000250
  C        0.2804280     1.0605730     0.0000120
  C        1.6640340     0.9642470    -0.0000360
  C       -2.4886080     0.3325760     0.0000260
  H        0.8850560    -2.2196710    -0.0000390
  H       -0.2825830     1.9831120     0.0000370
  H        2.9325900    -0.7289320    -0.0000930
  H        2.4244870     1.7323050    -0.0000480
  H       -3.4598190    -0.1623920     0.0000440
  H       -2.3971420     0.9606620    -0.8937380
  H       -2.3971430     0.9607210     0.8937490
units angstrom
no_reorient  #important for SAPT in psi4, default
symmetry c1  #important for SAPT in psi4, default
}

set PROPERTIES_ORIGIN ["COM"]
properties('MP2/aug-cc-pvtz', properties = ['dipole'])
--------------------------------------------------------------------------

    Molecular point group: c1
  Charge       = 0
  Multiplicity = 1
  Basis Set: AUG-CC-PVTZ
    Blend: AUG-CC-PVTZ
  Basis Set: (AUG-CC-PVTZ AUX)
    Blend: AUG-CC-PVTZ-JKFIT

    Orbital Energies [Eh]
    ---------------------

    Doubly Occupied:

       1A    -20.568426     2A    -15.620173     3A    -11.271049
       4A    -11.270489     5A    -11.250185     6A    -11.232200
       7A    -11.198690     8A     -1.387445     9A     -1.327891
      10A     -1.028594    11A     -0.996785    12A     -0.927655
      13A     -0.779429    14A     -0.758898    15A     -0.743829
      16A     -0.640990    17A     -0.624407    18A     -0.616925
      19A     -0.614958    20A     -0.590846    21A     -0.550853
      22A     -0.521157    23A     -0.481866    24A     -0.481557
      25A     -0.322727    26A     -0.290363

  @DF-RHF Final Energy:  -322.76652431572461

   => Energetics <=

    Nuclear Repulsion Energy =            295.0399382499613807
    One-Electron Energy =               -1023.4161540834497828
    Two-Electron Energy =                 405.6096915177638493
    Total Energy =                       -322.7665243157246096
  Basis Set: (AUG-CC-PVTZ AUX)
    Blend: AUG-CC-PVTZ-RI
    Molecular point group: c1

    Geometry (in Angstrom), charge = 0, multiplicity = 1:

       Center              X                  Y                   Z               Mass
    ------------   -----------------  -----------------  -----------------  -----------------
         O           -1.532221734972    -0.700026122593     0.000059622870    15.994914619570
         N            1.891774865028    -0.240700222593    -0.000049177130    14.003074004430
         C           -0.232878734972    -0.257676122593     0.000014622870    12.000000000000
         C            0.843950265028    -1.131228122593    -0.000026377130    12.000000000000
         C            0.269430265028     1.069861877407     0.000010622870    12.000000000000
         C            1.653036265028     0.973535877407    -0.000037377130    12.000000000000
         C           -2.499605734972     0.341864877407     0.000024622870    12.000000000000
         H            0.874058265028    -2.210382122593    -0.000040377130     1.007825032230
         H           -0.293580734972     1.992400877407     0.000035622870     1.007825032230
         H            2.921592265028    -0.719643122593    -0.000094377130     1.007825032230
         H            2.413489265028     1.741593877407    -0.000049377130     1.007825032230
         H           -3.470816734972    -0.153103122593     0.000042622870     1.007825032230
         H           -2.408139734972     0.969950877407    -0.893739377130     1.007825032230
         H           -2.408140734972     0.970009877407     0.893747622870     1.007825032230

  Basis Set: AUG-CC-PVTZ
    Blend: AUG-CC-PVTZ
  Basis Set: (AUG-CC-PVTZ AUX)
    Blend: AUG-CC-PVTZ-JKFIT
	 Reference Energy          =    -322.7665243157246096 [Eh]
	 Singles Energy            =      -0.0000000000000000 [Eh]
	 Same-Spin Energy          =      -0.3413375329659822 [Eh]
	 Opposite-Spin Energy      =      -1.0644988712176993 [Eh]
	 Correlation Energy        =      -1.4058364041836815 [Eh]
	 Total Energy              =    -324.1723607199082835 [Eh]

	 ================> DF-SCS-MP2 Energies <==================
	-----------------------------------------------------------
	 SCS Same-Spin Scale       =       0.3333333333333333 [-]
	 SCS Opposite-Spin Scale   =       1.2000000000000000 [-]
	 SCS Same-Spin Energy      =      -0.1137791776553274 [Eh]
	 SCS Opposite-Spin Energy  =      -1.2773986454612392 [Eh]
	 SCS Correlation Energy    =      -1.3911778231165666 [Eh]
	 SCS Total Energy          =    -324.1577021388411595 [Eh]
	-----------------------------------------------------------

  Dipole Moment: [D]
     X:     1.7627      Y:     0.4395      Z:    -0.0001     Total:     1.8166

*** Psi4 exiting successfully. Buy a developer a beer!
