                               Psi4 1.3.2 release

  ==> Input File <==

--------------------------------------------------------------------------
#psi4
#
memory 32 gb

molecule  {
0 1
  O       -1.5212240    -0.7093150     0.0000610
  N        1.9901180    -0.3643950    -0.0000520
  C       -0.2218810    -0.2669650     0.0000160
  C        0.8827258    -1.1796611    -0.0000260
  C        0.2804280     1.0605730     0.0000120
  C        1.6640340     0.9642470    -0.0000360
  C       -2.4886080     0.3325760     0.0000260
  H        0.8850560    -2.2196710    -0.0000390
  H       -0.2825830     1.9831120     0.0000370
  H        2.9325900    -0.7289320    -0.0000930
  H        2.4244870     1.7323050    -0.0000480
  H       -3.4598190    -0.1623920     0.0000440
  H       -2.3971420     0.9606620    -0.8937380
  H       -2.3971430     0.9607210     0.8937490
units angstrom
no_reorient  #important for SAPT in psi4, default
symmetry c1  #important for SAPT in psi4, default
}

set PROPERTIES_ORIGIN ["COM"]
properties('MP2/aug-cc-pvtz', properties = ['dipole'])
--------------------------------------------------------------------------

    Molecular point group: c1
  Charge       = 0
  Multiplicity = 1
  Basis Set: AUG-CC-PVTZ
    Blend: AUG-CC-PVTZ
  Basis Set: (AUG-CC-PVTZ AUX)
    Blend: AUG-CC-PVTZ-JKFIT

    Orbital Energies [Eh]
    ---------------------

    Doubly Occupied:

       1A    -20.570971     2A    -15.611178     3A    -11.277935
       4A    -11.273864     5A    -11.260378     6A    -11.242159
       7A    -11.214339     8A     -1.388873     9A     -1.286282
      10A     -1.036433    11A     -0.984403    12A     -0.922593
      13A     -0.800350    14A     -0.756482    15A     -0.738601
      16A     -0.641700    17A     -0.640072    18A     -0.620353
      19A     -0.595141    20A     -0.569119    21A     -0.565327
      22A     -0.531489    23A     -0.485715    24A     -0.481632
      25A     -0.336194    26A     -0.277842

  @DF-RHF Final Energy:  -322.79595490703070

   => Energetics <=

    Nuclear Repulsion Energy =            291.3790516420980339
    One-Electron Energy =               -1016.1311607953058456
    Two-Electron Energy =                 401.9561542461771069
    Total Energy =                       -322.7959549070307048
  Basis Set: (AUG-CC-PVTZ AUX)
    Blend: AUG-CC-PVTZ-RI
    Molecular point group: c1

    Geometry (in Angstrom), charge = 0, multiplicity = 1:

       Center              X                  Y                   Z               Mass
    ------------   -----------------  -----------------  -----------------  -----------------
         O           -1.548258761002    -0.678679347889     0.000060352503    15.994914619570
         N            1.963083238998    -0.333759347889    -0.000052647497    14.003074004430
         C           -0.248915761002    -0.236329347889     0.000015352503    12.000000000000
         C            0.855691038998    -1.149025447889    -0.000026647497    12.000000000000
         C            0.253393238998     1.091208652111     0.000011352503    12.000000000000
         C            1.636999238998     0.994882652111    -0.000036647497    12.000000000000
         C           -2.515642761002     0.363211652111     0.000025352503    12.000000000000
         H            0.858021238998    -2.189035347889    -0.000039647497     1.007825032230
         H           -0.309617761002     2.013747652111     0.000036352503     1.007825032230
         H            2.905555238998    -0.698296347889    -0.000093647497     1.007825032230
         H            2.397452238998     1.762940652111    -0.000048647497     1.007825032230
         H           -3.486853761002    -0.131756347889     0.000043352503     1.007825032230
         H           -2.424176761002     0.991297652111    -0.893738647497     1.007825032230
         H           -2.424177761002     0.991356652111     0.893748352503     1.007825032230

  Basis Set: AUG-CC-PVTZ
    Blend: AUG-CC-PVTZ
  Basis Set: (AUG-CC-PVTZ AUX)
    Blend: AUG-CC-PVTZ-JKFIT
	 Reference Energy          =    -322.7959549070307048 [Eh]
	 Singles Energy            =      -0.0000000000000000 [Eh]
	 Same-Spin Energy          =      -0.3405710673970582 [Eh]
	 Opposite-Spin Energy      =      -1.0650258255297389 [Eh]
	 Correlation Energy        =      -1.4055968929267970 [Eh]
	 Total Energy              =    -324.2015517999574854 [Eh]

	 ================> DF-SCS-MP2 Energies <==================
	-----------------------------------------------------------
	 SCS Same-Spin Scale       =       0.3333333333333333 [-]
	 SCS Opposite-Spin Scale   =       1.2000000000000000 [-]
	 SCS Same-Spin Energy      =      -0.1135236891323527 [Eh]
	 SCS Opposite-Spin Energy  =      -1.2780309906356866 [Eh]
	 SCS Correlation Energy    =      -1.3915546797680394 [Eh]
	 SCS Total Energy          =    -324.1875095867987397 [Eh]
	-----------------------------------------------------------

  Dipole Moment: [D]
     X:     1.3578      Y:     0.5905      Z:    -0.0001     Total:     1.4806

*** Psi4 exiting successfully. Buy a developer a beer!
