                               Psi4 1.3.2 release

  ==> Input File <==

--------------------------------------------------------------------------
#psi4
#
memory 32 gb

molecule  {
0 1
  O       -1.5133060    -0.7319243     0.0000604
  N        1.9901180    -0.3643950    -0.0000520
  C       -0.2218810    -0.2669650     0.0000160
  C        0.8549480    -1.1405170    -0.0000250
  C        0.2804280     1.0605730     0.0000120
  C        1.6640340     0.9642470    -0.0000360
  C       -2.4886080     0.3325760     0.0000260
  H        0.8850560    -2.2196710    -0.0000390
  H       -0.2825830     1.9831120     0.0000370
  H        2.9325900    -0.7289320    -0.0000930
  H        2.4244870     1.7323050    -0.0000480
  H       -3.4598190    -0.1623920     0.0000440
  H       -2.3971420     0.9606620    -0.8937380
  H       -2.3971430     0.9607210     0.8937490
units angstrom
no_reorient  #important for SAPT in psi4, default
symmetry c1  #important for SAPT in psi4, default
}

set PROPERTIES_ORIGIN ["COM"]
properties('MP2/aug-cc-pvtz', properties = ['dipole'])
--------------------------------------------------------------------------

    Molecular point group: c1
  Charge       = 0
  Multiplicity = 1
  Basis Set: AUG-CC-PVTZ
    Blend: AUG-CC-PVTZ
  Basis Set: (AUG-CC-PVTZ AUX)
    Blend: AUG-CC-PVTZ-JKFIT

    Orbital Energies [Eh]
    ---------------------

    Doubly Occupied:

       1A    -20.571537     2A    -15.607517     3A    -11.276042
       4A    -11.271163     5A    -11.259561     6A    -11.239288
       7A    -11.213443     8A     -1.383689     9A     -1.286959
      10A     -1.038370    11A     -0.984491    12A     -0.923214
      13A     -0.799350    14A     -0.754040    15A     -0.735153
      16A     -0.643057    17A     -0.639209    18A     -0.613787
      19A     -0.584409    20A     -0.567453    21A     -0.566521
      22A     -0.535174    23A     -0.488760    24A     -0.484450
      25A     -0.335205    26A     -0.282993

  @DF-RHF Final Energy:  -322.79997857923257

   => Energetics <=

    Nuclear Repulsion Energy =            291.8997727113173823
    One-Electron Energy =               -1017.2298329495702092
    Two-Electron Energy =                 402.5300816590202544
    Total Energy =                       -322.7999785792325724
  Basis Set: (AUG-CC-PVTZ AUX)
    Blend: AUG-CC-PVTZ-RI
    Molecular point group: c1

    Geometry (in Angstrom), charge = 0, multiplicity = 1:

       Center              X                  Y                   Z               Mass
    ------------   -----------------  -----------------  -----------------  -----------------
         O           -1.538211137303    -0.702402427370     0.000059727743    15.994914619570
         N            1.965212862697    -0.334873127370    -0.000052672257    14.003074004430
         C           -0.246786137303    -0.237443127370     0.000015327743    12.000000000000
         C            0.830042862697    -1.110995127370    -0.000025672257    12.000000000000
         C            0.255522862697     1.090094872630     0.000011327743    12.000000000000
         C            1.639128862697     0.993768872630    -0.000036672257    12.000000000000
         C           -2.513513137303     0.362097872630     0.000025327743    12.000000000000
         H            0.860150862697    -2.190149127370    -0.000039672257     1.007825032230
         H           -0.307488137303     2.012633872630     0.000036327743     1.007825032230
         H            2.907684862697    -0.699410127370    -0.000093672257     1.007825032230
         H            2.399581862697     1.761826872630    -0.000048672257     1.007825032230
         H           -3.484724137303    -0.132870127370     0.000043327743     1.007825032230
         H           -2.422047137303     0.990183872630    -0.893738672257     1.007825032230
         H           -2.422048137303     0.990242872630     0.893748327743     1.007825032230

  Basis Set: AUG-CC-PVTZ
    Blend: AUG-CC-PVTZ
  Basis Set: (AUG-CC-PVTZ AUX)
    Blend: AUG-CC-PVTZ-JKFIT
	 Reference Energy          =    -322.7999785792325724 [Eh]
	 Singles Energy            =      -0.0000000000000000 [Eh]
	 Same-Spin Energy          =      -0.3399970883374697 [Eh]
	 Opposite-Spin Energy      =      -1.0643760504134423 [Eh]
	 Correlation Energy        =      -1.4043731387509120 [Eh]
	 Total Energy              =    -324.2043517179834566 [Eh]

	 ================> DF-SCS-MP2 Energies <==================
	-----------------------------------------------------------
	 SCS Same-Spin Scale       =       0.3333333333333333 [-]
	 SCS Opposite-Spin Scale   =       1.2000000000000000 [-]
	 SCS Same-Spin Energy      =      -0.1133323627791566 [Eh]
	 SCS Opposite-Spin Energy  =      -1.2772512604961308 [Eh]
	 SCS Correlation Energy    =      -1.3905836232752873 [Eh]
	 SCS Total Energy          =    -324.1905622025078628 [Eh]
	-----------------------------------------------------------

  Dipole Moment: [D]
     X:     1.3108      Y:     0.6257      Z:    -0.0001     Total:     1.4525

*** Psi4 exiting successfully. Buy a developer a beer!
