                               Psi4 1.3.2 release

  ==> Input File <==

--------------------------------------------------------------------------
#psi4
#
memory 32 gb

molecule  {
0 1
  O       -1.5287462    -0.6865710     0.0000613
  N        1.9901180    -0.3643950    -0.0000520
  C       -0.2218810    -0.2669650     0.0000160
  C        0.8549480    -1.1405170    -0.0000250
  C        0.2804280     1.0605730     0.0000120
  C        1.6640340     0.9642470    -0.0000360
  C       -2.4886080     0.3325760     0.0000260
  H        0.8850560    -2.2196710    -0.0000390
  H       -0.2825830     1.9831120     0.0000370
  H        2.9325900    -0.7289320    -0.0000930
  H        2.4244870     1.7323050    -0.0000480
  H       -3.4598190    -0.1623920     0.0000440
  H       -2.3971420     0.9606620    -0.8937380
  H       -2.3971430     0.9607210     0.8937490
units angstrom
no_reorient  #important for SAPT in psi4, default
symmetry c1  #important for SAPT in psi4, default
}

set PROPERTIES_ORIGIN ["COM"]
properties('MP2/aug-cc-pvtz', properties = ['dipole'])
--------------------------------------------------------------------------

    Molecular point group: c1
  Charge       = 0
  Multiplicity = 1
  Basis Set: AUG-CC-PVTZ
    Blend: AUG-CC-PVTZ
  Basis Set: (AUG-CC-PVTZ AUX)
    Blend: AUG-CC-PVTZ-JKFIT

    Orbital Energies [Eh]
    ---------------------

    Doubly Occupied:

       1A    -20.569491     2A    -15.608572     3A    -11.273312
       4A    -11.271726     5A    -11.260232     6A    -11.241826
       7A    -11.213184     8A     -1.394642     9A     -1.288510
      10A     -1.041223    11A     -0.986432    12A     -0.922360
      13A     -0.801151    14A     -0.755664    15A     -0.736517
      16A     -0.647910    17A     -0.645593    18A     -0.621121
      19A     -0.585425    20A     -0.568320    21A     -0.567479
      22A     -0.537518    23A     -0.483599    24A     -0.478973
      25A     -0.335585    26A     -0.284682

  @DF-RHF Final Energy:  -322.80224018819916

   => Energetics <=

    Nuclear Repulsion Energy =            292.5267587234689017
    One-Electron Energy =               -1018.4159033683064308
    Two-Electron Energy =                 403.0869044566383650
    Total Energy =                       -322.8022401881991641
  Basis Set: (AUG-CC-PVTZ AUX)
    Blend: AUG-CC-PVTZ-RI
    Molecular point group: c1

    Geometry (in Angstrom), charge = 0, multiplicity = 1:

       Center              X                  Y                   Z               Mass
    ------------   -----------------  -----------------  -----------------  -----------------
         O           -1.551106693843    -0.664523640536     0.000060479417    15.994914619570
         N            1.967757506157    -0.342347640536    -0.000052820583    14.003074004430
         C           -0.244241493843    -0.244917640536     0.000015179417    12.000000000000
         C            0.832587506157    -1.118469640536    -0.000025820583    12.000000000000
         C            0.258067506157     1.082620359464     0.000011179417    12.000000000000
         C            1.641673506157     0.986294359464    -0.000036820583    12.000000000000
         C           -2.510968493843     0.354623359464     0.000025179417    12.000000000000
         H            0.862695506157    -2.197623640536    -0.000039820583     1.007825032230
         H           -0.304943493843     2.005159359464     0.000036179417     1.007825032230
         H            2.910229506157    -0.706884640536    -0.000093820583     1.007825032230
         H            2.402126506157     1.754352359464    -0.000048820583     1.007825032230
         H           -3.482179493843    -0.140344640536     0.000043179417     1.007825032230
         H           -2.419502493843     0.982709359464    -0.893738820583     1.007825032230
         H           -2.419503493843     0.982768359464     0.893748179417     1.007825032230

  Basis Set: AUG-CC-PVTZ
    Blend: AUG-CC-PVTZ
  Basis Set: (AUG-CC-PVTZ AUX)
    Blend: AUG-CC-PVTZ-JKFIT
	 Reference Energy          =    -322.8022401881991641 [Eh]
	 Singles Energy            =      -0.0000000000000000 [Eh]
	 Same-Spin Energy          =      -0.3396397009045128 [Eh]
	 Opposite-Spin Energy      =      -1.0629741180740910 [Eh]
	 Correlation Energy        =      -1.4026138189786039 [Eh]
	 Total Energy              =    -324.2048540071777438 [Eh]

	 ================> DF-SCS-MP2 Energies <==================
	-----------------------------------------------------------
	 SCS Same-Spin Scale       =       0.3333333333333333 [-]
	 SCS Opposite-Spin Scale   =       1.2000000000000000 [-]
	 SCS Same-Spin Energy      =      -0.1132132336348376 [Eh]
	 SCS Opposite-Spin Energy  =      -1.2755689416889091 [Eh]
	 SCS Correlation Energy    =      -1.3887821753237468 [Eh]
	 SCS Total Energy          =    -324.1910223635229045 [Eh]
	-----------------------------------------------------------

  Dipole Moment: [D]
     X:     1.4298      Y:     0.5154      Z:    -0.0001     Total:     1.5199

*** Psi4 exiting successfully. Buy a developer a beer!
