                               Psi4 1.3.2 release

  ==> Input File <==

--------------------------------------------------------------------------
#psi4
#
memory 32 gb

molecule  {
0 1
  O       -1.5212240    -0.7093150     0.0000610
  N        1.9901180    -0.3643950    -0.0000520
  C       -0.2218810    -0.2669650     0.0000160
  C        0.8686661    -1.1602102    -0.0000255
  C        0.2804280     1.0605730     0.0000120
  C        1.6640340     0.9642470    -0.0000360
  C       -2.4886080     0.3325760     0.0000260
  H        0.8850560    -2.2196710    -0.0000390
  H       -0.2825830     1.9831120     0.0000370
  H        2.9325900    -0.7289320    -0.0000930
  H        2.4244870     1.7323050    -0.0000480
  H       -3.4598190    -0.1623920     0.0000440
  H       -2.3971420     0.9606620    -0.8937380
  H       -2.3971430     0.9607210     0.8937490
units angstrom
no_reorient  #important for SAPT in psi4, default
symmetry c1  #important for SAPT in psi4, default
}

set PROPERTIES_ORIGIN ["COM"]
properties('MP2/aug-cc-pvtz', properties = ['dipole'])
--------------------------------------------------------------------------

    Molecular point group: c1
  Charge       = 0
  Multiplicity = 1
  Basis Set: AUG-CC-PVTZ
    Blend: AUG-CC-PVTZ
  Basis Set: (AUG-CC-PVTZ AUX)
    Blend: AUG-CC-PVTZ-JKFIT

    Orbital Energies [Eh]
    ---------------------

    Doubly Occupied:

       1A    -20.570742     2A    -15.609566     3A    -11.275112
       4A    -11.273858     5A    -11.260113     6A    -11.241341
       7A    -11.213807     8A     -1.388922     9A     -1.286955
      10A     -1.037867    11A     -0.984983    12A     -0.922635
      13A     -0.800219    14A     -0.755400    15A     -0.737392
      16A     -0.642662    17A     -0.641976    18A     -0.618570
      19A     -0.590299    20A     -0.568640    21A     -0.566098
      22A     -0.534034    23A     -0.486169    24A     -0.481689
      25A     -0.335728    26A     -0.280809

  @DF-RHF Final Energy:  -322.79959153872312

   => Energetics <=

    Nuclear Repulsion Energy =            291.7888172222042726
    One-Electron Energy =               -1016.9656404063006221
    Two-Electron Energy =                 402.3772316453731719
    Total Energy =                       -322.7995915387231207
  Basis Set: (AUG-CC-PVTZ AUX)
    Blend: AUG-CC-PVTZ-RI
    Molecular point group: c1

    Geometry (in Angstrom), charge = 0, multiplicity = 1:

       Center              X                  Y                   Z               Mass
    ------------   -----------------  -----------------  -----------------  -----------------
         O           -1.546520362287    -0.681084336585     0.000060290681    15.994914619570
         N            1.964821637713    -0.336164336585    -0.000052709319    14.003074004430
         C           -0.247177362287    -0.238734336585     0.000015290681    12.000000000000
         C            0.843369737713    -1.131979536585    -0.000026209319    12.000000000000
         C            0.255131637713     1.088803663415     0.000011290681    12.000000000000
         C            1.638737637713     0.992477663415    -0.000036709319    12.000000000000
         C           -2.513904362287     0.360806663415     0.000025290681    12.000000000000
         H            0.859759637713    -2.191440336585    -0.000039709319     1.007825032230
         H           -0.307879362287     2.011342663415     0.000036290681     1.007825032230
         H            2.907293637713    -0.700701336585    -0.000093709319     1.007825032230
         H            2.399190637713     1.760535663415    -0.000048709319     1.007825032230
         H           -3.485115362287    -0.134161336585     0.000043290681     1.007825032230
         H           -2.422438362287     0.988892663415    -0.893738709319     1.007825032230
         H           -2.422439362287     0.988951663415     0.893748290681     1.007825032230

  Basis Set: AUG-CC-PVTZ
    Blend: AUG-CC-PVTZ
  Basis Set: (AUG-CC-PVTZ AUX)
    Blend: AUG-CC-PVTZ-JKFIT
	 Reference Energy          =    -322.7995915387231207 [Eh]
	 Singles Energy            =      -0.0000000000000000 [Eh]
	 Same-Spin Energy          =      -0.3401743157450280 [Eh]
	 Opposite-Spin Energy      =      -1.0642920732427990 [Eh]
	 Correlation Energy        =      -1.4044663889878271 [Eh]
	 Total Energy              =    -324.2040579277109487 [Eh]

	 ================> DF-SCS-MP2 Energies <==================
	-----------------------------------------------------------
	 SCS Same-Spin Scale       =       0.3333333333333333 [-]
	 SCS Opposite-Spin Scale   =       1.2000000000000000 [-]
	 SCS Same-Spin Energy      =      -0.1133914385816760 [Eh]
	 SCS Opposite-Spin Energy  =      -1.2771504878913587 [Eh]
	 SCS Correlation Energy    =      -1.3905419264730345 [Eh]
	 SCS Total Energy          =    -324.1901334651961406 [Eh]
	-----------------------------------------------------------

  Dipole Moment: [D]
     X:     1.3636      Y:     0.5799      Z:    -0.0001     Total:     1.4818

*** Psi4 exiting successfully. Buy a developer a beer!
