                               Psi4 1.3.2 release

  ==> Input File <==

--------------------------------------------------------------------------
#psi4
#
memory 32 gb

molecule  {
0 1
  O       -1.5212240    -0.7093150     0.0000610
  N        2.0650263    -0.4873043    -0.0000554
  C       -0.2218810    -0.2669650     0.0000160
  C        0.8549480    -1.1405170    -0.0000250
  C        0.2804280     1.0605730     0.0000120
  C        1.6640340     0.9642470    -0.0000360
  C       -2.4886080     0.3325760     0.0000260
  H        0.8850560    -2.2196710    -0.0000390
  H       -0.2825830     1.9831120     0.0000370
  H        2.9325900    -0.7289320    -0.0000930
  H        2.4244870     1.7323050    -0.0000480
  H       -3.4598190    -0.1623920     0.0000440
  H       -2.3971420     0.9606620    -0.8937380
  H       -2.3971430     0.9607210     0.8937490
units angstrom
no_reorient  #important for SAPT in psi4, default
symmetry c1  #important for SAPT in psi4, default
}

set PROPERTIES_ORIGIN ["COM"]
properties('MP2/aug-cc-pvtz', properties = ['dipole'])
--------------------------------------------------------------------------

    Molecular point group: c1
  Charge       = 0
  Multiplicity = 1
  Basis Set: AUG-CC-PVTZ
    Blend: AUG-CC-PVTZ
  Basis Set: (AUG-CC-PVTZ AUX)
    Blend: AUG-CC-PVTZ-JKFIT

    Orbital Energies [Eh]
    ---------------------

    Doubly Occupied:

       1A    -20.573037     2A    -15.595838     3A    -11.277320
       4A    -11.274378     5A    -11.269286     6A    -11.251533
       7A    -11.228058     8A     -1.391491     9A     -1.263284
      10A     -1.058544    11A     -0.978864    12A     -0.920833
      13A     -0.821297    14A     -0.751878    15A     -0.729067
      16A     -0.668910    17A     -0.644968    18A     -0.618707
      19A     -0.578606    20A     -0.551872    21A     -0.551504
      22A     -0.539348    23A     -0.490777    24A     -0.481347
      25A     -0.350522    26A     -0.277647

  @DF-RHF Final Energy:  -322.77039034658861

   => Energetics <=

    Nuclear Repulsion Energy =            289.8525697386032220
    One-Electron Energy =               -1012.9680867832931881
    Two-Electron Energy =                 400.3451266981014101
    Total Energy =                       -322.7703903465886128
  Basis Set: (AUG-CC-PVTZ AUX)
    Blend: AUG-CC-PVTZ-RI
    Molecular point group: c1

    Geometry (in Angstrom), charge = 0, multiplicity = 1:

       Center              X                  Y                   Z               Mass
    ------------   -----------------  -----------------  -----------------  -----------------
         O           -1.555632202418    -0.665785548948     0.000060719422    15.994914619570
         N            2.030618097582    -0.443774848948    -0.000055680578    14.003074004430
         C           -0.256289202418    -0.223435548948     0.000015719422    12.000000000000
         C            0.820539797582    -1.096987548948    -0.000025280578    12.000000000000
         C            0.246019797582     1.104102451052     0.000011719422    12.000000000000
         C            1.629625797582     1.007776451052    -0.000036280578    12.000000000000
         C           -2.523016202418     0.376105451052     0.000025719422    12.000000000000
         H            0.850647797582    -2.176141548948    -0.000039280578     1.007825032230
         H           -0.316991202418     2.026641451052     0.000036719422     1.007825032230
         H            2.898181797582    -0.685402548948    -0.000093280578     1.007825032230
         H            2.390078797582     1.775834451052    -0.000048280578     1.007825032230
         H           -3.494227202418    -0.118862548948     0.000043719422     1.007825032230
         H           -2.431550202418     1.004191451052    -0.893738280578     1.007825032230
         H           -2.431551202418     1.004250451052     0.893748719422     1.007825032230

  Basis Set: AUG-CC-PVTZ
    Blend: AUG-CC-PVTZ
  Basis Set: (AUG-CC-PVTZ AUX)
    Blend: AUG-CC-PVTZ-JKFIT
	 Reference Energy          =    -322.7703903465886128 [Eh]
	 Singles Energy            =      -0.0000000000000000 [Eh]
	 Same-Spin Energy          =      -0.3390797293738658 [Eh]
	 Opposite-Spin Energy      =      -1.0654987457775995 [Eh]
	 Correlation Energy        =      -1.4045784751514654 [Eh]
	 Total Energy              =    -324.1749688217400944 [Eh]

	 ================> DF-SCS-MP2 Energies <==================
	-----------------------------------------------------------
	 SCS Same-Spin Scale       =       0.3333333333333333 [-]
	 SCS Opposite-Spin Scale   =       1.2000000000000000 [-]
	 SCS Same-Spin Energy      =      -0.1130265764579553 [Eh]
	 SCS Opposite-Spin Energy  =      -1.2785984949331193 [Eh]
	 SCS Correlation Energy    =      -1.3916250713910745 [Eh]
	 SCS Total Energy          =    -324.1620154179796600 [Eh]
	-----------------------------------------------------------

  Dipole Moment: [D]
     X:     0.9497      Y:     0.7989      Z:    -0.0001     Total:     1.2410

*** Psi4 exiting successfully. Buy a developer a beer!
