                               Psi4 1.4a3.dev225

  ==> Input File <==

--------------------------------------------------------------------------
#psi4
#
memory 32 gb

molecule  {
0 1
  O       -1.5212240    -0.7093150     0.0000610
  N        1.9901180    -0.3643950    -0.0000520
  C       -0.2029481    -0.2605195     0.0000153
  C        0.8549480    -1.1405170    -0.0000250
  C        0.2804280     1.0605730     0.0000120
  C        1.6640340     0.9642470    -0.0000360
  C       -2.4886080     0.3325760     0.0000260
  H        0.8850560    -2.2196710    -0.0000390
  H       -0.2825830     1.9831120     0.0000370
  H        2.9325900    -0.7289320    -0.0000930
  H        2.4244870     1.7323050    -0.0000480
  H       -3.4598190    -0.1623920     0.0000440
  H       -2.3971420     0.9606620    -0.8937380
  H       -2.3971430     0.9607210     0.8937490
units angstrom
no_reorient  #important for SAPT in psi4, default
symmetry c1  #important for SAPT in psi4, default
}

set PROPERTIES_ORIGIN ["COM"]
properties('MP2/aug-cc-pvtz', properties = ['dipole'])
--------------------------------------------------------------------------

    Molecular point group: c1
  Charge       = 0
  Multiplicity = 1
  Basis Set: AUG-CC-PVTZ
    Blend: AUG-CC-PVTZ
  Basis Set: (AUG-CC-PVTZ AUX)
    Blend: AUG-CC-PVTZ-JKFIT

    Orbital Energies [Eh]
    ---------------------

    Doubly Occupied:

       1A    -20.567813     2A    -15.608789     3A    -11.271949
       4A    -11.270405     5A    -11.260658     6A    -11.240664
       7A    -11.213038     8A     -1.380391     9A     -1.289864
      10A     -1.043049    11A     -0.986138    12A     -0.920298
      13A     -0.801786    14A     -0.754072    15A     -0.736581
      16A     -0.642473    17A     -0.638881    18A     -0.613996
      19A     -0.586073    20A     -0.568681    21A     -0.568652
      22A     -0.537553    23A     -0.486162    24A     -0.477876
      25A     -0.337910    26A     -0.286308

  @DF-RHF Final Energy:  -322.80081999316371

   => Energetics <=

    Nuclear Repulsion Energy =            292.2696789353928466
    One-Electron Energy =               -1017.9608757582045655
    Two-Electron Energy =                 402.8903768296479484
    Total Energy =                       -322.8008199931637137
  Basis Set: (AUG-CC-PVTZ AUX)
    Blend: AUG-CC-PVTZ-RI
    Molecular point group: c1

    Geometry (in Angstrom), charge = 0, multiplicity = 1:

       Center              X                  Y                   Z               Mass
    ------------   -----------------  -----------------  -----------------  -----------------
         O           -1.547165141452    -0.684316232181     0.000060315410    15.994914619570
         N            1.964176858548    -0.339396232181    -0.000052684590    14.003074004430
         C           -0.228889241452    -0.235520732181     0.000014615410    12.000000000000
         C            0.829006858548    -1.115518232181    -0.000025684590    12.000000000000
         C            0.254486858548     1.085571767819     0.000011315410    12.000000000000
         C            1.638092858548     0.989245767819    -0.000036684590    12.000000000000
         C           -2.514549141452     0.357574767819     0.000025315410    12.000000000000
         H            0.859114858548    -2.194672232181    -0.000039684590     1.007825032230
         H           -0.308524141452     2.008110767819     0.000036315410     1.007825032230
         H            2.906648858548    -0.703933232181    -0.000093684590     1.007825032230
         H            2.398545858548     1.757303767819    -0.000048684590     1.007825032230
         H           -3.485760141452    -0.137393232181     0.000043315410     1.007825032230
         H           -2.423083141452     0.985660767819    -0.893738684590     1.007825032230
         H           -2.423084141452     0.985719767819     0.893748315410     1.007825032230

  Basis Set: AUG-CC-PVTZ
    Blend: AUG-CC-PVTZ
  Basis Set: (AUG-CC-PVTZ AUX)
    Blend: AUG-CC-PVTZ-JKFIT
	 Reference Energy          =    -322.8008199931637137 [Eh]
	 Singles Energy            =      -0.0000000000000000 [Eh]
	 Same-Spin Energy          =      -0.3397922664891150 [Eh]
	 Opposite-Spin Energy      =      -1.0637618445590826 [Eh]
	 Correlation Energy        =      -1.4035541110481975 [Eh]
	 Total Energy              =    -324.2043741042119223 [Eh]

	 ================> DF-SCS-MP2 Energies <==================
	-----------------------------------------------------------
	 SCS Same-Spin Scale       =       0.3333333333333333 [-]
	 SCS Opposite-Spin Scale   =       1.2000000000000000 [-]
	 SCS Same-Spin Energy      =      -0.1132640888297050 [Eh]
	 SCS Opposite-Spin Energy  =      -1.2765142134708991 [Eh]
	 SCS Correlation Energy    =      -1.3897783023006041 [Eh]
	 SCS Total Energy          =    -324.1905982954643264 [Eh]
	-----------------------------------------------------------

  Dipole Moment: [D]
     X:     1.4936      Y:     0.5887      Z:    -0.0001     Total:     1.6054

*** Psi4 exiting successfully. Buy a developer a beer!
