                               Psi4 1.3.2 release

  ==> Input File <==

--------------------------------------------------------------------------
#psi4
#
memory 32 gb

molecule  {
0 1
  O       -1.5212240    -0.7093150     0.0000610
  N        1.9901180    -0.3643950    -0.0000520
  C       -0.4112101    -0.3314204     0.0000226
  C        0.8549480    -1.1405170    -0.0000250
  C        0.2804280     1.0605730     0.0000120
  C        1.6640340     0.9642470    -0.0000360
  C       -2.4886080     0.3325760     0.0000260
  H        0.8850560    -2.2196710    -0.0000390
  H       -0.2825830     1.9831120     0.0000370
  H        2.9325900    -0.7289320    -0.0000930
  H        2.4244870     1.7323050    -0.0000480
  H       -3.4598190    -0.1623920     0.0000440
  H       -2.3971420     0.9606620    -0.8937380
  H       -2.3971430     0.9607210     0.8937490
units angstrom
no_reorient  #important for SAPT in psi4, default
symmetry c1  #important for SAPT in psi4, default
}

set PROPERTIES_ORIGIN ["COM"]
properties('MP2/aug-cc-pvtz', properties = ['dipole'])
--------------------------------------------------------------------------

    Molecular point group: c1
  Charge       = 0
  Multiplicity = 1
  Basis Set: AUG-CC-PVTZ
    Blend: AUG-CC-PVTZ
  Basis Set: (AUG-CC-PVTZ AUX)
    Blend: AUG-CC-PVTZ-JKFIT

    Orbital Energies [Eh]
    ---------------------

    Doubly Occupied:

       1A    -20.604383     2A    -15.597995     3A    -11.298002
       4A    -11.296171     5A    -11.252477     6A    -11.233337
       7A    -11.213945     8A     -1.508611     9A     -1.266947
      10A     -1.022728    11A     -0.991555    12A     -0.928197
      13A     -0.801867    14A     -0.767663    15A     -0.723405
      16A     -0.693937    17A     -0.675219    18A     -0.654340
      19A     -0.574209    20A     -0.560222    21A     -0.555930
      22A     -0.551649    23A     -0.523092    24A     -0.440113
      25A     -0.313933    26A     -0.250610

  @DF-RHF Final Energy:  -322.73514558155097

   => Energetics <=

    Nuclear Repulsion Energy =            292.2934897092640654
    One-Electron Energy =               -1017.4561945929274316
    Two-Electron Energy =                 402.4275593021123427
    Total Energy =                       -322.7351455815509667
  Basis Set: (AUG-CC-PVTZ AUX)
    Blend: AUG-CC-PVTZ-RI
    Molecular point group: c1

    Geometry (in Angstrom), charge = 0, multiplicity = 1:

       Center              X                  Y                   Z               Mass
    ------------   -----------------  -----------------  -----------------  -----------------
         O           -1.521414777414    -0.675549755408     0.000059412808    15.994914619570
         N            1.989927222586    -0.330629755408    -0.000053587192    14.003074004430
         C           -0.411400877414    -0.297655155408     0.000021012808    12.000000000000
         C            0.854757222586    -1.106751755408    -0.000026587192    12.000000000000
         C            0.280237222586     1.094338244592     0.000010412808    12.000000000000
         C            1.663843222586     0.998012244592    -0.000037587192    12.000000000000
         C           -2.488798777414     0.366341244592     0.000024412808    12.000000000000
         H            0.884865222586    -2.185905755408    -0.000040587192     1.007825032230
         H           -0.282773777414     2.016877244592     0.000035412808     1.007825032230
         H            2.932399222586    -0.695166755408    -0.000094587192     1.007825032230
         H            2.424296222586     1.766070244592    -0.000049587192     1.007825032230
         H           -3.460009777414    -0.128626755408     0.000042412808     1.007825032230
         H           -2.397332777414     0.994427244592    -0.893739587192     1.007825032230
         H           -2.397333777414     0.994486244592     0.893747412808     1.007825032230

  Basis Set: AUG-CC-PVTZ
    Blend: AUG-CC-PVTZ
  Basis Set: (AUG-CC-PVTZ AUX)
    Blend: AUG-CC-PVTZ-JKFIT
	 Reference Energy          =    -322.7351455815509667 [Eh]
	 Singles Energy            =      -0.0000000000000000 [Eh]
	 Same-Spin Energy          =      -0.3417770396101835 [Eh]
	 Opposite-Spin Energy      =      -1.0656402866799546 [Eh]
	 Correlation Energy        =      -1.4074173262901382 [Eh]
	 Total Energy              =    -324.1425629078411248 [Eh]

	 ================> DF-SCS-MP2 Energies <==================
	-----------------------------------------------------------
	 SCS Same-Spin Scale       =       0.3333333333333333 [-]
	 SCS Opposite-Spin Scale   =       1.2000000000000000 [-]
	 SCS Same-Spin Energy      =      -0.1139256798700612 [Eh]
	 SCS Opposite-Spin Energy  =      -1.2787683440159454 [Eh]
	 SCS Correlation Energy    =      -1.3926940238860066 [Eh]
	 SCS Total Energy          =    -324.1278396054369750 [Eh]
	-----------------------------------------------------------

  Dipole Moment: [D]
     X:    -0.1675      Y:     0.3663      Z:    -0.0001     Total:     0.4028

*** Psi4 exiting successfully. Buy a developer a beer!
