                               Psi4 1.3.2 release

  ==> Input File <==

--------------------------------------------------------------------------
#psi4
#
memory 32 gb

molecule  {
0 1
  O       -1.5212240    -0.7093150     0.0000610
  N        1.9901180    -0.3643950    -0.0000520
  C       -0.2218810    -0.2669650     0.0000160
  C        0.8285532    -1.1004273    -0.0000241
  C        0.2804280     1.0605730     0.0000120
  C        1.6640340     0.9642470    -0.0000360
  C       -2.4886080     0.3325760     0.0000260
  H        0.8850560    -2.2196710    -0.0000390
  H       -0.2825830     1.9831120     0.0000370
  H        2.9325900    -0.7289320    -0.0000930
  H        2.4244870     1.7323050    -0.0000480
  H       -3.4598190    -0.1623920     0.0000440
  H       -2.3971420     0.9606620    -0.8937380
  H       -2.3971430     0.9607210     0.8937490
units angstrom
no_reorient  #important for SAPT in psi4, default
symmetry c1  #important for SAPT in psi4, default
}

set PROPERTIES_ORIGIN ["COM"]
properties('MP2/aug-cc-pvtz', properties = ['dipole'])
--------------------------------------------------------------------------

    Molecular point group: c1
  Charge       = 0
  Multiplicity = 1
  Basis Set: AUG-CC-PVTZ
    Blend: AUG-CC-PVTZ
  Basis Set: (AUG-CC-PVTZ AUX)
    Blend: AUG-CC-PVTZ-JKFIT

    Orbital Energies [Eh]
    ---------------------

    Doubly Occupied:

       1A    -20.570308     2A    -15.605234     3A    -11.273938
       4A    -11.266180     5A    -11.259600     6A    -11.239012
       7A    -11.212450     8A     -1.389300     9A     -1.289622
      10A     -1.044893    11A     -0.986102    12A     -0.923068
      13A     -0.800532    14A     -0.755350    15A     -0.731890
      16A     -0.651417    17A     -0.643112    18A     -0.616109
      19A     -0.575472    20A     -0.569068    21A     -0.563792
      22A     -0.539411    23A     -0.486616    24A     -0.482065
      25A     -0.335261    26A     -0.289977

  @DF-RHF Final Energy:  -322.80005621358976

   => Energetics <=

    Nuclear Repulsion Energy =            293.0771885411908784
    One-Electron Energy =               -1019.5549303777022487
    Two-Electron Energy =                 403.6776856229215582
    Total Energy =                       -322.8000562135897553
  Basis Set: (AUG-CC-PVTZ AUX)
    Blend: AUG-CC-PVTZ-RI
    Molecular point group: c1

    Geometry (in Angstrom), charge = 0, multiplicity = 1:

       Center              X                  Y                   Z               Mass
    ------------   -----------------  -----------------  -----------------  -----------------
         O           -1.541560639545    -0.688476138442     0.000060117580    15.994914619570
         N            1.969781360455    -0.343556138442    -0.000052882420    14.003074004430
         C           -0.242217639545    -0.246126138442     0.000015117580    12.000000000000
         C            0.808216560455    -1.079588438442    -0.000024982420    12.000000000000
         C            0.260091360455     1.081411861558     0.000011117580    12.000000000000
         C            1.643697360455     0.985085861558    -0.000036882420    12.000000000000
         C           -2.508944639545     0.353414861558     0.000025117580    12.000000000000
         H            0.864719360455    -2.198832138442    -0.000039882420     1.007825032230
         H           -0.302919639545     2.003950861558     0.000036117580     1.007825032230
         H            2.912253360455    -0.708093138442    -0.000093882420     1.007825032230
         H            2.404150360455     1.753143861558    -0.000048882420     1.007825032230
         H           -3.480155639545    -0.141553138442     0.000043117580     1.007825032230
         H           -2.417478639545     0.981500861558    -0.893738882420     1.007825032230
         H           -2.417479639545     0.981559861558     0.893748117580     1.007825032230

  Basis Set: AUG-CC-PVTZ
    Blend: AUG-CC-PVTZ
  Basis Set: (AUG-CC-PVTZ AUX)
    Blend: AUG-CC-PVTZ-JKFIT
	 Reference Energy          =    -322.8000562135897553 [Eh]
	 Singles Energy            =      -0.0000000000000000 [Eh]
	 Same-Spin Energy          =      -0.3391540873328526 [Eh]
	 Opposite-Spin Energy      =      -1.0626231391713208 [Eh]
	 Correlation Energy        =      -1.4017772265041732 [Eh]
	 Total Energy              =    -324.2018334400939352 [Eh]

	 ================> DF-SCS-MP2 Energies <==================
	-----------------------------------------------------------
	 SCS Same-Spin Scale       =       0.3333333333333333 [-]
	 SCS Opposite-Spin Scale   =       1.2000000000000000 [-]
	 SCS Same-Spin Energy      =      -0.1130513624442842 [Eh]
	 SCS Opposite-Spin Energy  =      -1.2751477670055849 [Eh]
	 SCS Correlation Energy    =      -1.3881991294498690 [Eh]
	 SCS Total Energy          =    -324.1882553430396001 [Eh]
	-----------------------------------------------------------

  Dipole Moment: [D]
     X:     1.3789      Y:     0.5646      Z:    -0.0001     Total:     1.4900

*** Psi4 exiting successfully. Buy a developer a beer!
