                               Psi4 1.3.2 release

  ==> Input File <==

--------------------------------------------------------------------------
#psi4
#
memory 32 gb

molecule  {
0 1
  O       -1.5212240    -0.7093150     0.0000610
  N        1.9901180    -0.3643950    -0.0000520
  C       -0.1941894    -0.3586801     0.0000201
  C        0.8549480    -1.1405170    -0.0000250
  C        0.2804280     1.0605730     0.0000120
  C        1.6640340     0.9642470    -0.0000360
  C       -2.4886080     0.3325760     0.0000260
  H        0.8850560    -2.2196710    -0.0000390
  H       -0.2825830     1.9831120     0.0000370
  H        2.9325900    -0.7289320    -0.0000930
  H        2.4244870     1.7323050    -0.0000480
  H       -3.4598190    -0.1623920     0.0000440
  H       -2.3971420     0.9606620    -0.8937380
  H       -2.3971430     0.9607210     0.8937490
units angstrom
no_reorient  #important for SAPT in psi4, default
symmetry c1  #important for SAPT in psi4, default
}

set PROPERTIES_ORIGIN ["COM"]
properties('MP2/aug-cc-pvtz', properties = ['dipole'])
--------------------------------------------------------------------------

    Molecular point group: c1
  Charge       = 0
  Multiplicity = 1
  Basis Set: AUG-CC-PVTZ
    Blend: AUG-CC-PVTZ
  Basis Set: (AUG-CC-PVTZ AUX)
    Blend: AUG-CC-PVTZ-JKFIT

    Orbital Energies [Eh]
    ---------------------

    Doubly Occupied:

       1A    -20.567070     2A    -15.600164     3A    -11.275131
       4A    -11.270113     5A    -11.262819     6A    -11.233991
       7A    -11.215673     8A     -1.385087     9A     -1.287261
      10A     -1.035007    11A     -0.992394    12A     -0.926458
      13A     -0.791889    14A     -0.754728    15A     -0.738153
      16A     -0.647162    17A     -0.640698    18A     -0.615225
      19A     -0.584557    20A     -0.570299    21A     -0.568385
      22A     -0.540090    23A     -0.481478    24A     -0.470654
      25A     -0.324978    26A     -0.301016

  @DF-RHF Final Energy:  -322.79587221930399

   => Energetics <=

    Nuclear Repulsion Energy =            292.1335174160086581
    One-Electron Energy =               -1017.6978225272556529
    Two-Electron Energy =                 402.7684328919430072
    Total Energy =                       -322.7958722193039875
  Basis Set: (AUG-CC-PVTZ AUX)
    Blend: AUG-CC-PVTZ-RI
    Molecular point group: c1

    Geometry (in Angstrom), charge = 0, multiplicity = 1:

       Center              X                  Y                   Z               Mass
    ------------   -----------------  -----------------  -----------------  -----------------
         O           -1.548248102883    -0.672179254796     0.000059721919    15.994914619570
         N            1.963093897117    -0.327259254796    -0.000053278081    14.003074004430
         C           -0.221213502883    -0.321544354796     0.000018821919    12.000000000000
         C            0.827923897117    -1.103381254796    -0.000026278081    12.000000000000
         C            0.253403897117     1.097708745204     0.000010721919    12.000000000000
         C            1.637009897117     1.001382745204    -0.000037278081    12.000000000000
         C           -2.515632102883     0.369711745204     0.000024721919    12.000000000000
         H            0.858031897117    -2.182535254796    -0.000040278081     1.007825032230
         H           -0.309607102883     2.020247745204     0.000035721919     1.007825032230
         H            2.905565897117    -0.691796254796    -0.000094278081     1.007825032230
         H            2.397462897117     1.769440745204    -0.000049278081     1.007825032230
         H           -3.486843102883    -0.125256254796     0.000042721919     1.007825032230
         H           -2.424166102883     0.997797745204    -0.893739278081     1.007825032230
         H           -2.424167102883     0.997856745204     0.893747721919     1.007825032230

  Basis Set: AUG-CC-PVTZ
    Blend: AUG-CC-PVTZ
  Basis Set: (AUG-CC-PVTZ AUX)
    Blend: AUG-CC-PVTZ-JKFIT
	 Reference Energy          =    -322.7958722193039875 [Eh]
	 Singles Energy            =      -0.0000000000000000 [Eh]
	 Same-Spin Energy          =      -0.3376016022124461 [Eh]
	 Opposite-Spin Energy      =      -1.0609320884455884 [Eh]
	 Correlation Energy        =      -1.3985336906580343 [Eh]
	 Total Energy              =    -324.1944059099620290 [Eh]

	 ================> DF-SCS-MP2 Energies <==================
	-----------------------------------------------------------
	 SCS Same-Spin Scale       =       0.3333333333333333 [-]
	 SCS Opposite-Spin Scale   =       1.2000000000000000 [-]
	 SCS Same-Spin Energy      =      -0.1125338674041487 [Eh]
	 SCS Opposite-Spin Energy  =      -1.2731185061347061 [Eh]
	 SCS Correlation Energy    =      -1.3856523735388548 [Eh]
	 SCS Total Energy          =    -324.1815245928428340 [Eh]
	-----------------------------------------------------------

  Dipole Moment: [D]
     X:     1.3661      Y:     0.5313      Z:    -0.0001     Total:     1.4658

*** Psi4 exiting successfully. Buy a developer a beer!
