                               Psi4 1.3.2 release

  ==> Input File <==

--------------------------------------------------------------------------
#psi4
#
memory 32 gb

molecule  {
0 1
  O       -1.5212240    -0.7093150     0.0000610
  N        1.9901180    -0.3643950    -0.0000520
  C       -0.2218810    -0.2669650     0.0000160
  C        0.9422934    -1.2549229    -0.0000280
  C        0.2804280     1.0605730     0.0000120
  C        1.6640340     0.9642470    -0.0000360
  C       -2.4886080     0.3325760     0.0000260
  H        0.8850560    -2.2196710    -0.0000390
  H       -0.2825830     1.9831120     0.0000370
  H        2.9325900    -0.7289320    -0.0000930
  H        2.4244870     1.7323050    -0.0000480
  H       -3.4598190    -0.1623920     0.0000440
  H       -2.3971420     0.9606620    -0.8937380
  H       -2.3971430     0.9607210     0.8937490
units angstrom
no_reorient  #important for SAPT in psi4, default
symmetry c1  #important for SAPT in psi4, default
}

set PROPERTIES_ORIGIN ["COM"]
properties('MP2/aug-cc-pvtz', properties = ['dipole'])
--------------------------------------------------------------------------

    Molecular point group: c1
  Charge       = 0
  Multiplicity = 1
  Basis Set: AUG-CC-PVTZ
    Blend: AUG-CC-PVTZ
  Basis Set: (AUG-CC-PVTZ AUX)
    Blend: AUG-CC-PVTZ-JKFIT

    Orbital Energies [Eh]
    ---------------------

    Doubly Occupied:

       1A    -20.572198     2A    -15.618365     3A    -11.288140
       4A    -11.273996     5A    -11.261890     6A    -11.245679
       7A    -11.216665     8A     -1.388968     9A     -1.284547
      10A     -1.034307    11A     -0.981604    12A     -0.923026
      13A     -0.803255    14A     -0.763825    15A     -0.741099
      16A     -0.640972    17A     -0.636632    18A     -0.629795
      19A     -0.605309    20A     -0.570175    21A     -0.563228
      22A     -0.519434    23A     -0.481665    24A     -0.481224
      25A     -0.338990    26A     -0.266937

  @DF-RHF Final Energy:  -322.76565440259202

   => Energetics <=

    Nuclear Repulsion Energy =            289.8341001214951120
    One-Electron Energy =               -1012.9356577472061645
    Two-Electron Energy =                 400.3359032231190326
    Total Energy =                       -322.7656544025920198
  Basis Set: (AUG-CC-PVTZ AUX)
    Blend: AUG-CC-PVTZ-RI
    Molecular point group: c1

    Geometry (in Angstrom), charge = 0, multiplicity = 1:

       Center              X                  Y                   Z               Mass
    ------------   -----------------  -----------------  -----------------  -----------------
         O           -1.555623942288    -0.669373671635     0.000060599792    15.994914619570
         N            1.955718057712    -0.324453671635    -0.000052400208    14.003074004430
         C           -0.256280942288    -0.227023671635     0.000015599792    12.000000000000
         C            0.907893457712    -1.214981571635    -0.000028400208    12.000000000000
         C            0.246028057712     1.100514328365     0.000011599792    12.000000000000
         C            1.629634057712     1.004188328365    -0.000036400208    12.000000000000
         C           -2.523007942288     0.372517328365     0.000025599792    12.000000000000
         H            0.850656057712    -2.179729671635    -0.000039400208     1.007825032230
         H           -0.316982942288     2.023053328365     0.000036599792     1.007825032230
         H            2.898190057712    -0.688990671635    -0.000093400208     1.007825032230
         H            2.390087057712     1.772246328365    -0.000048400208     1.007825032230
         H           -3.494218942288    -0.122450671635     0.000043599792     1.007825032230
         H           -2.431541942288     1.000603328365    -0.893738400208     1.007825032230
         H           -2.431542942288     1.000662328365     0.893748599792     1.007825032230

  Basis Set: AUG-CC-PVTZ
    Blend: AUG-CC-PVTZ
  Basis Set: (AUG-CC-PVTZ AUX)
    Blend: AUG-CC-PVTZ-JKFIT
	 Reference Energy          =    -322.7656544025920198 [Eh]
	 Singles Energy            =      -0.0000000000000000 [Eh]
	 Same-Spin Energy          =      -0.3424110895693832 [Eh]
	 Opposite-Spin Energy      =      -1.0688217281235706 [Eh]
	 Correlation Energy        =      -1.4112328176929538 [Eh]
	 Total Energy              =    -324.1768872202849820 [Eh]

	 ================> DF-SCS-MP2 Energies <==================
	-----------------------------------------------------------
	 SCS Same-Spin Scale       =       0.3333333333333333 [-]
	 SCS Opposite-Spin Scale   =       1.2000000000000000 [-]
	 SCS Same-Spin Energy      =      -0.1141370298564610 [Eh]
	 SCS Opposite-Spin Energy  =      -1.2825860737482846 [Eh]
	 SCS Correlation Energy    =      -1.3967231036047456 [Eh]
	 SCS Total Energy          =    -324.1623775061967763 [Eh]
	-----------------------------------------------------------

  Dipole Moment: [D]
     X:     1.3332      Y:     0.6524      Z:    -0.0001     Total:     1.4843

*** Psi4 exiting successfully. Buy a developer a beer!
