                               Psi4 1.3.2 release

  ==> Input File <==

--------------------------------------------------------------------------
#psi4
#
memory 32 gb

molecule  {
0 1
  O       -1.5049947    -0.7543919     0.0000603
  N        1.9901180    -0.3643950    -0.0000520
  C       -0.2218810    -0.2669650     0.0000160
  C        0.8549480    -1.1405170    -0.0000250
  C        0.2804280     1.0605730     0.0000120
  C        1.6640340     0.9642470    -0.0000360
  C       -2.4886080     0.3325760     0.0000260
  H        0.8850560    -2.2196710    -0.0000390
  H       -0.2825830     1.9831120     0.0000370
  H        2.9325900    -0.7289320    -0.0000930
  H        2.4244870     1.7323050    -0.0000480
  H       -3.4598190    -0.1623920     0.0000440
  H       -2.3971420     0.9606620    -0.8937380
  H       -2.3971430     0.9607210     0.8937490
units angstrom
no_reorient  #important for SAPT in psi4, default
symmetry c1  #important for SAPT in psi4, default
}

set PROPERTIES_ORIGIN ["COM"]
properties('MP2/aug-cc-pvtz', properties = ['dipole'])
--------------------------------------------------------------------------

    Molecular point group: c1
  Charge       = 0
  Multiplicity = 1
  Basis Set: AUG-CC-PVTZ
    Blend: AUG-CC-PVTZ
  Basis Set: (AUG-CC-PVTZ AUX)
    Blend: AUG-CC-PVTZ-JKFIT

    Orbital Energies [Eh]
    ---------------------

    Doubly Occupied:

       1A    -20.572437     2A    -15.607011     3A    -11.278242
       4A    -11.270191     5A    -11.259230     6A    -11.238061
       7A    -11.213583     8A     -1.378679     9A     -1.286188
      10A     -1.037108    11A     -0.983504    12A     -0.923802
      13A     -0.798520    14A     -0.753215    15A     -0.734463
      16A     -0.640741    17A     -0.636318    18A     -0.610373
      19A     -0.583899    20A     -0.567020    21A     -0.566118
      22A     -0.534355    23A     -0.490400    24A     -0.486980
      25A     -0.335014    26A     -0.282144

  @DF-RHF Final Energy:  -322.79764997460524

   => Energetics <=

    Nuclear Repulsion Energy =            291.6011609471212864
    One-Electron Energy =               -1016.6624299752654679
    Two-Electron Energy =                 402.2636190535388891
    Total Energy =                       -322.7976499746052355
  Basis Set: (AUG-CC-PVTZ AUX)
    Blend: AUG-CC-PVTZ-RI
    Molecular point group: c1

    Geometry (in Angstrom), charge = 0, multiplicity = 1:

       Center              X                  Y                   Z               Mass
    ------------   -----------------  -----------------  -----------------  -----------------
         O           -1.531269592564    -0.721167223560     0.000059644224    15.994914619570
         N            1.963843107436    -0.331170323560    -0.000052655776    14.003074004430
         C           -0.248155892564    -0.233740323560     0.000015344224    12.000000000000
         C            0.828673107436    -1.107292323560    -0.000025655776    12.000000000000
         C            0.254153107436     1.093797676440     0.000011344224    12.000000000000
         C            1.637759107436     0.997471676440    -0.000036655776    12.000000000000
         C           -2.514882892564     0.365800676440     0.000025344224    12.000000000000
         H            0.858781107436    -2.186446323560    -0.000039655776     1.007825032230
         H           -0.308857892564     2.016336676440     0.000036344224     1.007825032230
         H            2.906315107436    -0.695707323560    -0.000093655776     1.007825032230
         H            2.398212107436     1.765529676440    -0.000048655776     1.007825032230
         H           -3.486093892564    -0.129167323560     0.000043344224     1.007825032230
         H           -2.423416892564     0.993886676440    -0.893738655776     1.007825032230
         H           -2.423417892564     0.993945676440     0.893748344224     1.007825032230

  Basis Set: AUG-CC-PVTZ
    Blend: AUG-CC-PVTZ
  Basis Set: (AUG-CC-PVTZ AUX)
    Blend: AUG-CC-PVTZ-JKFIT
	 Reference Energy          =    -322.7976499746052355 [Eh]
	 Singles Energy            =      -0.0000000000000000 [Eh]
	 Same-Spin Energy          =      -0.3402151059192342 [Eh]
	 Opposite-Spin Energy      =      -1.0651587321946996 [Eh]
	 Correlation Energy        =      -1.4053738381139338 [Eh]
	 Total Energy              =    -324.2030238127191524 [Eh]

	 ================> DF-SCS-MP2 Energies <==================
	-----------------------------------------------------------
	 SCS Same-Spin Scale       =       0.3333333333333333 [-]
	 SCS Opposite-Spin Scale   =       1.2000000000000000 [-]
	 SCS Same-Spin Energy      =      -0.1134050353064114 [Eh]
	 SCS Opposite-Spin Energy  =      -1.2781904786336395 [Eh]
	 SCS Correlation Energy    =      -1.3915955139400509 [Eh]
	 SCS Total Energy          =    -324.1892454885452821 [Eh]
	-----------------------------------------------------------

  Dipole Moment: [D]
     X:     1.2546      Y:     0.6772      Z:    -0.0001     Total:     1.4256

*** Psi4 exiting successfully. Buy a developer a beer!
