                               Psi4 1.3.2 release

  ==> Input File <==

--------------------------------------------------------------------------
#psi4
#
memory 32 gb

molecule  {
0 1
  O       -1.5212240    -0.7093150     0.0000610
  N        1.9901180    -0.3643950    -0.0000520
  C       -0.2218810    -0.2669650     0.0000160
  C        0.9118528    -1.2178119    -0.0000285
  C        0.2804280     1.0605730     0.0000120
  C        1.6640340     0.9642470    -0.0000360
  C       -2.4886080     0.3325760     0.0000260
  H        0.8850560    -2.2196710    -0.0000390
  H       -0.2825830     1.9831120     0.0000370
  H        2.9325900    -0.7289320    -0.0000930
  H        2.4244870     1.7323050    -0.0000480
  H       -3.4598190    -0.1623920     0.0000440
  H       -2.3971420     0.9606620    -0.8937380
  H       -2.3971430     0.9607210     0.8937490
units angstrom
no_reorient  #important for SAPT in psi4, default
symmetry c1  #important for SAPT in psi4, default
}

set PROPERTIES_ORIGIN ["COM"]
properties('MP2/aug-cc-pvtz', properties = ['dipole'])
--------------------------------------------------------------------------

    Molecular point group: c1
  Charge       = 0
  Multiplicity = 1
  Basis Set: AUG-CC-PVTZ
    Blend: AUG-CC-PVTZ
  Basis Set: (AUG-CC-PVTZ AUX)
    Blend: AUG-CC-PVTZ-JKFIT

    Orbital Energies [Eh]
    ---------------------

    Doubly Occupied:

       1A    -20.571529     2A    -15.614630     3A    -11.283276
       4A    -11.273911     5A    -11.261042     6A    -11.243861
       7A    -11.215477     8A     -1.388868     9A     -1.285232
      10A     -1.034733    11A     -0.983048    12A     -0.922686
      13A     -0.801213    14A     -0.759875    15A     -0.740146
      16A     -0.641270    17A     -0.635807    18A     -0.625984
      19A     -0.601968    20A     -0.569738    21A     -0.564089
      22A     -0.525674    23A     -0.484144    24A     -0.481602
      25A     -0.337440    26A     -0.272173

  @DF-RHF Final Energy:  -322.78383172489521

   => Energetics <=

    Nuclear Repulsion Energy =            290.5881853887904640
    One-Electron Energy =               -1014.5052042010551077
    Two-Electron Energy =                 401.1331870873693788
    Total Energy =                       -322.7838317248952080
  Basis Set: (AUG-CC-PVTZ AUX)
    Blend: AUG-CC-PVTZ-RI
    Molecular point group: c1

    Geometry (in Angstrom), charge = 0, multiplicity = 1:

       Center              X                  Y                   Z               Mass
    ------------   -----------------  -----------------  -----------------  -----------------
         O           -1.551860142211    -0.673962227203     0.000060661614    15.994914619570
         N            1.959481857789    -0.329042227203    -0.000052338386    14.003074004430
         C           -0.252517142211    -0.231612227203     0.000015661614    12.000000000000
         C            0.881216657789    -1.182459127203    -0.000028838386    12.000000000000
         C            0.249791857789     1.095925772797     0.000011661614    12.000000000000
         C            1.633397857789     0.999599772797    -0.000036338386    12.000000000000
         C           -2.519244142211     0.367928772797     0.000025661614    12.000000000000
         H            0.854419857789    -2.184318227203    -0.000039338386     1.007825032230
         H           -0.313219142211     2.018464772797     0.000036661614     1.007825032230
         H            2.901953857789    -0.693579227203    -0.000093338386     1.007825032230
         H            2.393850857789     1.767657772797    -0.000048338386     1.007825032230
         H           -3.490455142211    -0.127039227203     0.000043661614     1.007825032230
         H           -2.427778142211     0.996014772797    -0.893738338386     1.007825032230
         H           -2.427779142211     0.996073772797     0.893748661614     1.007825032230

  Basis Set: AUG-CC-PVTZ
    Blend: AUG-CC-PVTZ
  Basis Set: (AUG-CC-PVTZ AUX)
    Blend: AUG-CC-PVTZ-JKFIT
	 Reference Energy          =    -322.7838317248952080 [Eh]
	 Singles Energy            =      -0.0000000000000000 [Eh]
	 Same-Spin Energy          =      -0.3414422092574226 [Eh]
	 Opposite-Spin Energy      =      -1.0667562045433356 [Eh]
	 Correlation Energy        =      -1.4081984138007582 [Eh]
	 Total Energy              =    -324.1920301386959409 [Eh]

	 ================> DF-SCS-MP2 Energies <==================
	-----------------------------------------------------------
	 SCS Same-Spin Scale       =       0.3333333333333333 [-]
	 SCS Opposite-Spin Scale   =       1.2000000000000000 [-]
	 SCS Same-Spin Energy      =      -0.1138140697524742 [Eh]
	 SCS Opposite-Spin Energy  =      -1.2801074454520027 [Eh]
	 SCS Correlation Energy    =      -1.3939215152044770 [Eh]
	 SCS Total Energy          =    -324.1777532400996620 [Eh]
	-----------------------------------------------------------

  Dipole Moment: [D]
     X:     1.3456      Y:     0.6181      Z:    -0.0001     Total:     1.4808

*** Psi4 exiting successfully. Buy a developer a beer!
