                               Psi4 1.3.2 release

  ==> Input File <==

--------------------------------------------------------------------------
#psi4
#
memory 32 gb

molecule  {
0 1
  O       -1.5212240    -0.7093150     0.0000610
  N        1.9901180    -0.3643950    -0.0000520
  C       -0.2218810    -0.2669650     0.0000160
  C        0.8415757    -1.1205873    -0.0000241
  C        0.2804280     1.0605730     0.0000120
  C        1.6640340     0.9642470    -0.0000360
  C       -2.4886080     0.3325760     0.0000260
  H        0.8850560    -2.2196710    -0.0000390
  H       -0.2825830     1.9831120     0.0000370
  H        2.9325900    -0.7289320    -0.0000930
  H        2.4244870     1.7323050    -0.0000480
  H       -3.4598190    -0.1623920     0.0000440
  H       -2.3971420     0.9606620    -0.8937380
  H       -2.3971430     0.9607210     0.8937490
units angstrom
no_reorient  #important for SAPT in psi4, default
symmetry c1  #important for SAPT in psi4, default
}

set PROPERTIES_ORIGIN ["COM"]
properties('MP2/aug-cc-pvtz', properties = ['dipole'])
--------------------------------------------------------------------------

    Molecular point group: c1
  Charge       = 0
  Multiplicity = 1
  Basis Set: AUG-CC-PVTZ
    Blend: AUG-CC-PVTZ
  Basis Set: (AUG-CC-PVTZ AUX)
    Blend: AUG-CC-PVTZ-JKFIT

    Orbital Energies [Eh]
    ---------------------

    Doubly Occupied:

       1A    -20.570407     2A    -15.606591     3A    -11.273894
       4A    -11.269219     5A    -11.259723     6A    -11.239766
       7A    -11.212854     8A     -1.389133     9A     -1.288619
      10A     -1.042076    11A     -0.985844    12A     -0.922876
      13A     -0.800341    14A     -0.754861    15A     -0.733974
      16A     -0.648380    17A     -0.642676    18A     -0.616602
      19A     -0.579633    20A     -0.567964    21A     -0.566502
      22A     -0.538095    23A     -0.486606    24A     -0.481903
      25A     -0.335228    26A     -0.286906

  @DF-RHF Final Energy:  -322.80170700432660

   => Energetics <=

    Nuclear Repulsion Energy =            292.6377822581203532
    One-Electron Energy =               -1018.6776354070115076
    Two-Electron Energy =                 403.2381461445644959
    Total Energy =                       -322.8017070043266017
  Basis Set: (AUG-CC-PVTZ AUX)
    Blend: AUG-CC-PVTZ-RI
    Molecular point group: c1

    Geometry (in Angstrom), charge = 0, multiplicity = 1:

       Center              X                  Y                   Z               Mass
    ------------   -----------------  -----------------  -----------------  -----------------
         O           -1.543170794618    -0.685983473726     0.000060117580    15.994914619570
         N            1.968171205382    -0.341063473726    -0.000052882420    14.003074004430
         C           -0.243827794618    -0.243633473726     0.000015117580    12.000000000000
         C            0.819628905382    -1.097255773726    -0.000024982420    12.000000000000
         C            0.258481205382     1.083904526274     0.000011117580    12.000000000000
         C            1.642087205382     0.987578526274    -0.000036882420    12.000000000000
         C           -2.510554794618     0.355907526274     0.000025117580    12.000000000000
         H            0.863109205382    -2.196339473726    -0.000039882420     1.007825032230
         H           -0.304529794618     2.006443526274     0.000036117580     1.007825032230
         H            2.910643205382    -0.705600473726    -0.000093882420     1.007825032230
         H            2.402540205382     1.755636526274    -0.000048882420     1.007825032230
         H           -3.481765794618    -0.139060473726     0.000043117580     1.007825032230
         H           -2.419088794618     0.983993526274    -0.893738882420     1.007825032230
         H           -2.419089794618     0.984052526274     0.893748117580     1.007825032230

  Basis Set: AUG-CC-PVTZ
    Blend: AUG-CC-PVTZ
  Basis Set: (AUG-CC-PVTZ AUX)
    Blend: AUG-CC-PVTZ-JKFIT
	 Reference Energy          =    -322.8017070043266017 [Eh]
	 Singles Energy            =      -0.0000000000000000 [Eh]
	 Same-Spin Energy          =      -0.3394643352747795 [Eh]
	 Opposite-Spin Energy      =      -1.0630912389446612 [Eh]
	 Correlation Energy        =      -1.4025555742194407 [Eh]
	 Total Energy              =    -324.2042625785460359 [Eh]

	 ================> DF-SCS-MP2 Energies <==================
	-----------------------------------------------------------
	 SCS Same-Spin Scale       =       0.3333333333333333 [-]
	 SCS Opposite-Spin Scale   =       1.2000000000000000 [-]
	 SCS Same-Spin Energy      =      -0.1131547784249265 [Eh]
	 SCS Opposite-Spin Energy  =      -1.2757094867335934 [Eh]
	 SCS Correlation Energy    =      -1.3888642651585199 [Eh]
	 SCS Total Energy          =    -324.1905712694851331 [Eh]
	-----------------------------------------------------------

  Dipole Moment: [D]
     X:     1.3743      Y:     0.5666      Z:    -0.0001     Total:     1.4865

*** Psi4 exiting successfully. Buy a developer a beer!
