                               Psi4 1.3.2 release

  ==> Input File <==

--------------------------------------------------------------------------
#psi4
#
memory 32 gb

molecule  {
0 1
  O       -1.5212240    -0.7093150     0.0000610
  N        1.9901180    -0.3643950    -0.0000520
  C       -0.2752371    -0.1335699     0.0000103
  C        0.8549480    -1.1405170    -0.0000250
  C        0.2804280     1.0605730     0.0000120
  C        1.6640340     0.9642470    -0.0000360
  C       -2.4886080     0.3325760     0.0000260
  H        0.8850560    -2.2196710    -0.0000390
  H       -0.2825830     1.9831120     0.0000370
  H        2.9325900    -0.7289320    -0.0000930
  H        2.4244870     1.7323050    -0.0000480
  H       -3.4598190    -0.1623920     0.0000440
  H       -2.3971420     0.9606620    -0.8937380
  H       -2.3971430     0.9607210     0.8937490
units angstrom
no_reorient  #important for SAPT in psi4, default
symmetry c1  #important for SAPT in psi4, default
}

set PROPERTIES_ORIGIN ["COM"]
properties('MP2/aug-cc-pvtz', properties = ['dipole'])
--------------------------------------------------------------------------

    Molecular point group: c1
  Charge       = 0
  Multiplicity = 1
  Basis Set: AUG-CC-PVTZ
    Blend: AUG-CC-PVTZ
  Basis Set: (AUG-CC-PVTZ AUX)
    Blend: AUG-CC-PVTZ-JKFIT

    Orbital Energies [Eh]
    ---------------------

    Doubly Occupied:

       1A    -20.577703     2A    -15.620907     3A    -11.275340
       4A    -11.273688     5A    -11.252894     6A    -11.248909
       7A    -11.208419     8A     -1.396383     9A     -1.288073
      10A     -1.057912    11A     -0.971546    12A     -0.919766
      13A     -0.815042    14A     -0.753133    15A     -0.731462
      16A     -0.649189    17A     -0.646946    18A     -0.623711
      19A     -0.585487    20A     -0.568416    21A     -0.565228
      22A     -0.515412    23A     -0.494699    24A     -0.484116
      25A     -0.353821    26A     -0.261892

  @DF-RHF Final Energy:  -322.76955601325761

   => Energetics <=

    Nuclear Repulsion Energy =            292.3139523543065934
    One-Electron Energy =               -1017.8868284236684758
    Two-Electron Energy =                 402.8033200561042690
    Total Energy =                       -322.7695560132576134
  Basis Set: (AUG-CC-PVTZ AUX)
    Blend: AUG-CC-PVTZ-RI
    Molecular point group: c1

    Geometry (in Angstrom), charge = 0, multiplicity = 1:

       Center              X                  Y                   Z               Mass
    ------------   -----------------  -----------------  -----------------  -----------------
         O           -1.538227034327    -0.700012799075     0.000060933631    15.994914619570
         N            1.973114965673    -0.355092799075    -0.000052066369    14.003074004430
         C           -0.292240134327    -0.124267699075     0.000010233631    12.000000000000
         C            0.837944965673    -1.131214799075    -0.000025066369    12.000000000000
         C            0.263424965673     1.069875200925     0.000011933631    12.000000000000
         C            1.647030965673     0.973549200925    -0.000036066369    12.000000000000
         C           -2.505611034327     0.341878200925     0.000025933631    12.000000000000
         H            0.868052965673    -2.210368799075    -0.000039066369     1.007825032230
         H           -0.299586034327     1.992414200925     0.000036933631     1.007825032230
         H            2.915586965673    -0.719629799075    -0.000093066369     1.007825032230
         H            2.407483965673     1.741607200925    -0.000048066369     1.007825032230
         H           -3.476822034327    -0.153089799075     0.000043933631     1.007825032230
         H           -2.414145034327     0.969964200925    -0.893738066369     1.007825032230
         H           -2.414146034327     0.970023200925     0.893748933631     1.007825032230

  Basis Set: AUG-CC-PVTZ
    Blend: AUG-CC-PVTZ
  Basis Set: (AUG-CC-PVTZ AUX)
    Blend: AUG-CC-PVTZ-JKFIT
	 Reference Energy          =    -322.7695560132576134 [Eh]
	 Singles Energy            =      -0.0000000000000000 [Eh]
	 Same-Spin Energy          =      -0.3433309362676707 [Eh]
	 Opposite-Spin Energy      =      -1.0695580199739179 [Eh]
	 Correlation Energy        =      -1.4128889562415887 [Eh]
	 Total Energy              =    -324.1824449694992154 [Eh]

	 ================> DF-SCS-MP2 Energies <==================
	-----------------------------------------------------------
	 SCS Same-Spin Scale       =       0.3333333333333333 [-]
	 SCS Opposite-Spin Scale   =       1.2000000000000000 [-]
	 SCS Same-Spin Energy      =      -0.1144436454225569 [Eh]
	 SCS Opposite-Spin Energy  =      -1.2834696239687013 [Eh]
	 SCS Correlation Energy    =      -1.3979132693912582 [Eh]
	 SCS Total Energy          =    -324.1674692826488808 [Eh]
	-----------------------------------------------------------

  Dipole Moment: [D]
     X:     1.2621      Y:     0.6332      Z:    -0.0001     Total:     1.4120

*** Psi4 exiting successfully. Buy a developer a beer!
