                               Psi4 1.3.2 release

  ==> Input File <==

--------------------------------------------------------------------------
#psi4
#
memory 32 gb

molecule  {
0 1
  O       -1.5212240    -0.7093150     0.0000610
  N        1.9901180    -0.3643950    -0.0000520
  C       -0.2072347    -0.3125809     0.0000180
  C        0.8549480    -1.1405170    -0.0000250
  C        0.2804280     1.0605730     0.0000120
  C        1.6640340     0.9642470    -0.0000360
  C       -2.4886080     0.3325760     0.0000260
  H        0.8850560    -2.2196710    -0.0000390
  H       -0.2825830     1.9831120     0.0000370
  H        2.9325900    -0.7289320    -0.0000930
  H        2.4244870     1.7323050    -0.0000480
  H       -3.4598190    -0.1623920     0.0000440
  H       -2.3971420     0.9606620    -0.8937380
  H       -2.3971430     0.9607210     0.8937490
units angstrom
no_reorient  #important for SAPT in psi4, default
symmetry c1  #important for SAPT in psi4, default
}

set PROPERTIES_ORIGIN ["COM"]
properties('MP2/aug-cc-pvtz', properties = ['dipole'])
--------------------------------------------------------------------------

    Molecular point group: c1
  Charge       = 0
  Multiplicity = 1
  Basis Set: AUG-CC-PVTZ
    Blend: AUG-CC-PVTZ
  Basis Set: (AUG-CC-PVTZ AUX)
    Blend: AUG-CC-PVTZ-JKFIT

    Orbital Energies [Eh]
    ---------------------

    Doubly Occupied:

       1A    -20.568673     2A    -15.603966     3A    -11.274393
       4A    -11.271132     5A    -11.261537     6A    -11.237302
       7A    -11.214628     8A     -1.386948     9A     -1.287510
      10A     -1.036130    11A     -0.989630    12A     -0.924452
      13A     -0.795751    14A     -0.754955    15A     -0.737122
      16A     -0.645864    17A     -0.641351    18A     -0.615827
      19A     -0.584694    20A     -0.569173    21A     -0.567636
      22A     -0.539568    23A     -0.481501    24A     -0.479150
      25A     -0.329985    26A     -0.292237

  @DF-RHF Final Energy:  -322.80155142840351

   => Energetics <=

    Nuclear Repulsion Energy =            292.1712334468901417
    One-Electron Energy =               -1017.7633410368050590
    Two-Electron Energy =                 402.7905561615114038
    Total Energy =                       -322.8015514284035135
  Basis Set: (AUG-CC-PVTZ AUX)
    Blend: AUG-CC-PVTZ-RI
    Molecular point group: c1

    Geometry (in Angstrom), charge = 0, multiplicity = 1:

       Center              X                  Y                   Z               Mass
    ------------   -----------------  -----------------  -----------------  -----------------
         O           -1.546635128725    -0.677879148112     0.000059981571    15.994914619570
         N            1.964706871275    -0.332959148112    -0.000053018429    14.003074004430
         C           -0.232645828725    -0.281145048112     0.000016981571    12.000000000000
         C            0.829536871275    -1.109081148112    -0.000026018429    12.000000000000
         C            0.255016871275     1.092008851888     0.000010981571    12.000000000000
         C            1.638622871275     0.995682851888    -0.000037018429    12.000000000000
         C           -2.514019128725     0.364011851888     0.000024981571    12.000000000000
         H            0.859644871275    -2.188235148112    -0.000040018429     1.007825032230
         H           -0.307994128725     2.014547851888     0.000035981571     1.007825032230
         H            2.907178871275    -0.697496148112    -0.000094018429     1.007825032230
         H            2.399075871275     1.763740851888    -0.000049018429     1.007825032230
         H           -3.485230128725    -0.130956148112     0.000042981571     1.007825032230
         H           -2.422553128725     0.992097851888    -0.893739018429     1.007825032230
         H           -2.422554128725     0.992156851888     0.893747981571     1.007825032230

  Basis Set: AUG-CC-PVTZ
    Blend: AUG-CC-PVTZ
  Basis Set: (AUG-CC-PVTZ AUX)
    Blend: AUG-CC-PVTZ-JKFIT
	 Reference Energy          =    -322.8015514284035135 [Eh]
	 Singles Energy            =      -0.0000000000000000 [Eh]
	 Same-Spin Energy          =      -0.3386572830958644 [Eh]
	 Opposite-Spin Energy      =      -1.0621420830789789 [Eh]
	 Correlation Energy        =      -1.4007993661748435 [Eh]
	 Total Energy              =    -324.2023507945783649 [Eh]

	 ================> DF-SCS-MP2 Energies <==================
	-----------------------------------------------------------
	 SCS Same-Spin Scale       =       0.3333333333333333 [-]
	 SCS Opposite-Spin Scale   =       1.2000000000000000 [-]
	 SCS Same-Spin Energy      =      -0.1128857610319548 [Eh]
	 SCS Opposite-Spin Energy  =      -1.2745704996947747 [Eh]
	 SCS Correlation Energy    =      -1.3874562607267293 [Eh]
	 SCS Total Energy          =    -324.1890076891302215 [Eh]
	-----------------------------------------------------------

  Dipole Moment: [D]
     X:     1.3749      Y:     0.5525      Z:    -0.0001     Total:     1.4818

*** Psi4 exiting successfully. Buy a developer a beer!
