                               Psi4 1.3.2 release

  ==> Input File <==

--------------------------------------------------------------------------
#psi4
#
memory 32 gb

molecule  {
0 1
  O       -1.5212240    -0.7093150     0.0000610
  N        2.0414923    -0.4454711    -0.0000546
  C       -0.2218810    -0.2669650     0.0000160
  C        0.8549480    -1.1405170    -0.0000250
  C        0.2804280     1.0605730     0.0000120
  C        1.6640340     0.9642470    -0.0000360
  C       -2.4886080     0.3325760     0.0000260
  H        0.8850560    -2.2196710    -0.0000390
  H       -0.2825830     1.9831120     0.0000370
  H        2.9325900    -0.7289320    -0.0000930
  H        2.4244870     1.7323050    -0.0000480
  H       -3.4598190    -0.1623920     0.0000440
  H       -2.3971420     0.9606620    -0.8937380
  H       -2.3971430     0.9607210     0.8937490
units angstrom
no_reorient  #important for SAPT in psi4, default
symmetry c1  #important for SAPT in psi4, default
}

set PROPERTIES_ORIGIN ["COM"]
properties('MP2/aug-cc-pvtz', properties = ['dipole'])
--------------------------------------------------------------------------

    Molecular point group: c1
  Charge       = 0
  Multiplicity = 1
  Basis Set: AUG-CC-PVTZ
    Blend: AUG-CC-PVTZ
  Basis Set: (AUG-CC-PVTZ AUX)
    Blend: AUG-CC-PVTZ-JKFIT

    Orbital Energies [Eh]
    ---------------------

    Doubly Occupied:

       1A    -20.572187     2A    -15.599804     3A    -11.276186
       4A    -11.273563     5A    -11.266298     6A    -11.247625
       7A    -11.223278     8A     -1.390623     9A     -1.269789
      10A     -1.052158    11A     -0.980198    12A     -0.920712
      13A     -0.814633    14A     -0.752340    15A     -0.731418
      16A     -0.661578    17A     -0.644027    18A     -0.618229
      19A     -0.575784    20A     -0.560601    21A     -0.556015
      22A     -0.541470    23A     -0.489384    24A     -0.481531
      25A     -0.345461    26A     -0.279529

  @DF-RHF Final Energy:  -322.78743259173473

   => Energetics <=

    Nuclear Repulsion Energy =            290.5887392883111602
    One-Electron Energy =               -1014.5035002944376856
    Two-Electron Energy =                 401.1273284143918545
    Total Energy =                       -322.7874325917347278
  Basis Set: (AUG-CC-PVTZ AUX)
    Blend: AUG-CC-PVTZ-RI
    Molecular point group: c1

    Geometry (in Angstrom), charge = 0, multiplicity = 1:

       Center              X                  Y                   Z               Mass
    ------------   -----------------  -----------------  -----------------  -----------------
         O           -1.552236643852    -0.671821372888     0.000060603995    15.994914619570
         N            2.010479656148    -0.407977472888    -0.000054996005    14.003074004430
         C           -0.252893643852    -0.229471372888     0.000015603995    12.000000000000
         C            0.823935356148    -1.103023372888    -0.000025396005    12.000000000000
         C            0.249415356148     1.098066627112     0.000011603995    12.000000000000
         C            1.633021356148     1.001740627112    -0.000036396005    12.000000000000
         C           -2.519620643852     0.370069627112     0.000025603995    12.000000000000
         H            0.854043356148    -2.182177372888    -0.000039396005     1.007825032230
         H           -0.313595643852     2.020605627112     0.000036603995     1.007825032230
         H            2.901577356148    -0.691438372888    -0.000093396005     1.007825032230
         H            2.393474356148     1.769798627112    -0.000048396005     1.007825032230
         H           -3.490831643852    -0.124898372888     0.000043603995     1.007825032230
         H           -2.428154643852     0.998155627112    -0.893738396005     1.007825032230
         H           -2.428155643852     0.998214627112     0.893748603995     1.007825032230

  Basis Set: AUG-CC-PVTZ
    Blend: AUG-CC-PVTZ
  Basis Set: (AUG-CC-PVTZ AUX)
    Blend: AUG-CC-PVTZ-JKFIT
	 Reference Energy          =    -322.7874325917347278 [Eh]
	 Singles Energy            =      -0.0000000000000000 [Eh]
	 Same-Spin Energy          =      -0.3392056692159512 [Eh]
	 Opposite-Spin Energy      =      -1.0645607071151715 [Eh]
	 Correlation Energy        =      -1.4037663763311228 [Eh]
	 Total Energy              =    -324.1911989680658621 [Eh]

	 ================> DF-SCS-MP2 Energies <==================
	-----------------------------------------------------------
	 SCS Same-Spin Scale       =       0.3333333333333333 [-]
	 SCS Opposite-Spin Scale   =       1.2000000000000000 [-]
	 SCS Same-Spin Energy      =      -0.1130685564053171 [Eh]
	 SCS Opposite-Spin Energy  =      -1.2774728485382056 [Eh]
	 SCS Correlation Energy    =      -1.3905414049435227 [Eh]
	 SCS Total Energy          =    -324.1779739966782472 [Eh]
	-----------------------------------------------------------

  Dipole Moment: [D]
     X:     1.0883      Y:     0.7164      Z:    -0.0001     Total:     1.3029

*** Psi4 exiting successfully. Buy a developer a beer!
