                               Psi4 1.3.2 release

  ==> Input File <==

--------------------------------------------------------------------------
#psi4
#
memory 32 gb

molecule  {
0 1
  O       -1.5212240    -0.7093150     0.0000610
  N        1.9901180    -0.3643950    -0.0000520
  C       -0.1827608    -0.4052066     0.0000222
  C        0.8549480    -1.1405170    -0.0000250
  C        0.2804280     1.0605730     0.0000120
  C        1.6640340     0.9642470    -0.0000360
  C       -2.4886080     0.3325760     0.0000260
  H        0.8850560    -2.2196710    -0.0000390
  H       -0.2825830     1.9831120     0.0000370
  H        2.9325900    -0.7289320    -0.0000930
  H        2.4244870     1.7323050    -0.0000480
  H       -3.4598190    -0.1623920     0.0000440
  H       -2.3971420     0.9606620    -0.8937380
  H       -2.3971430     0.9607210     0.8937490
units angstrom
no_reorient  #important for SAPT in psi4, default
symmetry c1  #important for SAPT in psi4, default
}

set PROPERTIES_ORIGIN ["COM"]
properties('MP2/aug-cc-pvtz', properties = ['dipole'])
--------------------------------------------------------------------------

    Molecular point group: c1
  Charge       = 0
  Multiplicity = 1
  Basis Set: AUG-CC-PVTZ
    Blend: AUG-CC-PVTZ
  Basis Set: (AUG-CC-PVTZ AUX)
    Blend: AUG-CC-PVTZ-JKFIT

    Orbital Energies [Eh]
    ---------------------

    Doubly Occupied:

       1A    -20.565774     2A    -15.596679     3A    -11.276077
       4A    -11.269254     5A    -11.263741     6A    -11.230725
       7A    -11.216388     8A     -1.383442     9A     -1.286980
      10A     -1.037019    11A     -0.993072    12A     -0.928693
      13A     -0.788806    14A     -0.754193    15A     -0.738817
      16A     -0.649264    17A     -0.640346    18A     -0.615668
      19A     -0.584624    20A     -0.570376    21A     -0.569246
      22A     -0.538741    23A     -0.481713    24A     -0.460949
      25A     -0.320379    26A     -0.310027

  @DF-RHF Final Energy:  -322.78438627547132

   => Energetics <=

    Nuclear Repulsion Energy =            292.0938586189158173
    One-Electron Energy =               -1017.6145027529562412
    Two-Electron Energy =                 402.7362578585690471
    Total Energy =                       -322.7843862754713200
  Basis Set: (AUG-CC-PVTZ AUX)
    Blend: AUG-CC-PVTZ-RI
    Molecular point group: c1

    Geometry (in Angstrom), charge = 0, multiplicity = 1:

       Center              X                  Y                   Z               Mass
    ------------   -----------------  -----------------  -----------------  -----------------
         O           -1.549661181651    -0.666426528363     0.000059462266    15.994914619570
         N            1.961680818349    -0.321506528363    -0.000053537734    14.003074004430
         C           -0.211197981651    -0.362318128363     0.000020662266    12.000000000000
         C            0.826510818349    -1.097628528363    -0.000026537734    12.000000000000
         C            0.251990818349     1.103461471637     0.000010462266    12.000000000000
         C            1.635596818349     1.007135471637    -0.000037537734    12.000000000000
         C           -2.517045181651     0.375464471637     0.000024462266    12.000000000000
         H            0.856618818349    -2.176782528363    -0.000040537734     1.007825032230
         H           -0.311020181651     2.026000471637     0.000035462266     1.007825032230
         H            2.904152818349    -0.686043528363    -0.000094537734     1.007825032230
         H            2.396049818349     1.775193471637    -0.000049537734     1.007825032230
         H           -3.488256181651    -0.119503528363     0.000042462266     1.007825032230
         H           -2.425579181651     1.003550471637    -0.893739537734     1.007825032230
         H           -2.425580181651     1.003609471637     0.893747462266     1.007825032230

  Basis Set: AUG-CC-PVTZ
    Blend: AUG-CC-PVTZ
  Basis Set: (AUG-CC-PVTZ AUX)
    Blend: AUG-CC-PVTZ-JKFIT
	 Reference Energy          =    -322.7843862754713200 [Eh]
	 Singles Energy            =      -0.0000000000000000 [Eh]
	 Same-Spin Energy          =      -0.3366910143790983 [Eh]
	 Opposite-Spin Energy      =      -1.0600430016688653 [Eh]
	 Correlation Energy        =      -1.3967340160479638 [Eh]
	 Total Energy              =    -324.1811202915192780 [Eh]

	 ================> DF-SCS-MP2 Energies <==================
	-----------------------------------------------------------
	 SCS Same-Spin Scale       =       0.3333333333333333 [-]
	 SCS Opposite-Spin Scale   =       1.2000000000000000 [-]
	 SCS Same-Spin Energy      =      -0.1122303381263661 [Eh]
	 SCS Opposite-Spin Energy  =      -1.2720516020026384 [Eh]
	 SCS Correlation Energy    =      -1.3842819401290045 [Eh]
	 SCS Total Energy          =    -324.1686682156003485 [Eh]
	-----------------------------------------------------------

  Dipole Moment: [D]
     X:     1.3429      Y:     0.5069      Z:    -0.0001     Total:     1.4354

*** Psi4 exiting successfully. Buy a developer a beer!
