                               Psi4 1.3.2 release

  ==> Input File <==

--------------------------------------------------------------------------
#psi4
#
memory 32 gb

molecule  {
0 1
  O       -1.5212240    -0.7093150     0.0000610
  N        1.9901180    -0.3643950    -0.0000520
  C       -0.1272165    -0.2347373     0.0000127
  C        0.8549480    -1.1405170    -0.0000250
  C        0.2804280     1.0605730     0.0000120
  C        1.6640340     0.9642470    -0.0000360
  C       -2.4886080     0.3325760     0.0000260
  H        0.8850560    -2.2196710    -0.0000390
  H       -0.2825830     1.9831120     0.0000370
  H        2.9325900    -0.7289320    -0.0000930
  H        2.4244870     1.7323050    -0.0000480
  H       -3.4598190    -0.1623920     0.0000440
  H       -2.3971420     0.9606620    -0.8937380
  H       -2.3971430     0.9607210     0.8937490
units angstrom
no_reorient  #important for SAPT in psi4, default
symmetry c1  #important for SAPT in psi4, default
}

set PROPERTIES_ORIGIN ["COM"]
properties('MP2/aug-cc-pvtz', properties = ['dipole'])
--------------------------------------------------------------------------

    Molecular point group: c1
  Charge       = 0
  Multiplicity = 1
  Basis Set: AUG-CC-PVTZ
    Blend: AUG-CC-PVTZ
  Basis Set: (AUG-CC-PVTZ AUX)
    Blend: AUG-CC-PVTZ-JKFIT

    Orbital Energies [Eh]
    ---------------------

    Doubly Occupied:

       1A    -20.556918     2A    -15.611696     3A    -11.264696
       4A    -11.264620     5A    -11.264012     6A    -11.240696
       7A    -11.212014     8A     -1.351118     9A     -1.298306
      10A     -1.056516    11A     -0.991105    12A     -0.909687
      13A     -0.809133    14A     -0.754453    15A     -0.736703
      16A     -0.631672    17A     -0.627301    18A     -0.604872
      19A     -0.591414    20A     -0.575704    21A     -0.570373
      22A     -0.544324    23A     -0.476433    24A     -0.463141
      25A     -0.348389    26A     -0.294960

  @DF-RHF Final Energy:  -322.78706145641439

   => Energetics <=

    Nuclear Repulsion Energy =            292.6176832401477554
    One-Electron Energy =               -1018.7089753105210548
    Two-Electron Energy =                 403.3042306139589641
    Total Energy =                       -322.7870614564143921
  Basis Set: (AUG-CC-PVTZ AUX)
    Blend: AUG-CC-PVTZ-RI
    Molecular point group: c1

    Geometry (in Angstrom), charge = 0, multiplicity = 1:

       Center              X                  Y                   Z               Mass
    ------------   -----------------  -----------------  -----------------  -----------------
         O           -1.556528905697    -0.687504048660     0.000060636885    15.994914619570
         N            1.954813094303    -0.342584048660    -0.000052363115    14.003074004430
         C           -0.162521405697    -0.212926348660     0.000012336885    12.000000000000
         C            0.819643094303    -1.118706048660    -0.000025363115    12.000000000000
         C            0.245123094303     1.082383951340     0.000011636885    12.000000000000
         C            1.628729094303     0.986057951340    -0.000036363115    12.000000000000
         C           -2.523912905697     0.354386951340     0.000025636885    12.000000000000
         H            0.849751094303    -2.197860048660    -0.000039363115     1.007825032230
         H           -0.317887905697     2.004922951340     0.000036636885     1.007825032230
         H            2.897285094303    -0.707121048660    -0.000093363115     1.007825032230
         H            2.389182094303     1.754115951340    -0.000048363115     1.007825032230
         H           -3.495123905697    -0.140581048660     0.000043636885     1.007825032230
         H           -2.432446905697     0.982472951340    -0.893738363115     1.007825032230
         H           -2.432447905697     0.982531951340     0.893748636885     1.007825032230

  Basis Set: AUG-CC-PVTZ
    Blend: AUG-CC-PVTZ
  Basis Set: (AUG-CC-PVTZ AUX)
    Blend: AUG-CC-PVTZ-JKFIT
	 Reference Energy          =    -322.7870614564143921 [Eh]
	 Singles Energy            =      -0.0000000000000000 [Eh]
	 Same-Spin Energy          =      -0.3401488338198597 [Eh]
	 Opposite-Spin Energy      =      -1.0648430178417976 [Eh]
	 Correlation Energy        =      -1.4049918516616573 [Eh]
	 Total Energy              =    -324.1920533080760265 [Eh]

	 ================> DF-SCS-MP2 Energies <==================
	-----------------------------------------------------------
	 SCS Same-Spin Scale       =       0.3333333333333333 [-]
	 SCS Opposite-Spin Scale   =       1.2000000000000000 [-]
	 SCS Same-Spin Energy      =      -0.1133829446066199 [Eh]
	 SCS Opposite-Spin Energy  =      -1.2778116214101571 [Eh]
	 SCS Correlation Energy    =      -1.3911945660167770 [Eh]
	 SCS Total Energy          =    -324.1782560224311851 [Eh]
	-----------------------------------------------------------

  Dipole Moment: [D]
     X:     1.9567      Y:     0.6553      Z:    -0.0001     Total:     2.0635

*** Psi4 exiting successfully. Buy a developer a beer!
