                               Psi4 1.4a3.dev225

  ==> Input File <==

--------------------------------------------------------------------------
#psi4
#
memory 32 gb

molecule  {
0 1
  O       -1.5212240    -0.7093150     0.0000610
  N        1.9901180    -0.3643950    -0.0000520
  C       -0.2692133    -0.2830789     0.0000176
  C        0.8549480    -1.1405170    -0.0000250
  C        0.2804280     1.0605730     0.0000120
  C        1.6640340     0.9642470    -0.0000360
  C       -2.4886080     0.3325760     0.0000260
  H        0.8850560    -2.2196710    -0.0000390
  H       -0.2825830     1.9831120     0.0000370
  H        2.9325900    -0.7289320    -0.0000930
  H        2.4244870     1.7323050    -0.0000480
  H       -3.4598190    -0.1623920     0.0000440
  H       -2.3971420     0.9606620    -0.8937380
  H       -2.3971430     0.9607210     0.8937490
units angstrom
no_reorient  #important for SAPT in psi4, default
symmetry c1  #important for SAPT in psi4, default
}

set PROPERTIES_ORIGIN ["COM"]
properties('MP2/aug-cc-pvtz', properties = ['dipole'])
--------------------------------------------------------------------------

    Molecular point group: c1
  Charge       = 0
  Multiplicity = 1
  Basis Set: AUG-CC-PVTZ
    Blend: AUG-CC-PVTZ
  Basis Set: (AUG-CC-PVTZ AUX)
    Blend: AUG-CC-PVTZ-JKFIT

    Orbital Energies [Eh]
    ---------------------

    Doubly Occupied:

       1A    -20.577678     2A    -15.606022     3A    -11.278957
       4A    -11.277235     5A    -11.258053     6A    -11.239891
       7A    -11.213909     8A     -1.412956     9A     -1.282488
      10A     -1.031761    11A     -0.985193    12A     -0.927866
      13A     -0.797060    14A     -0.757932    15A     -0.733107
      16A     -0.653013    17A     -0.651936    18A     -0.626701
      19A     -0.581986    20A     -0.565958    21A     -0.562999
      22A     -0.535975    23A     -0.491950    24A     -0.482128
      25A     -0.329385    26A     -0.277010

  @DF-RHF Final Energy:  -322.79811603010944

   => Energetics <=

    Nuclear Repulsion Energy =            292.1049956739281583
    One-Electron Energy =               -1017.5279274548428248
    Two-Electron Energy =                 402.6248157508052827
    Total Energy =                       -322.7981160301094405
  Basis Set: (AUG-CC-PVTZ AUX)
    Blend: AUG-CC-PVTZ-RI
    Molecular point group: c1

    Geometry (in Angstrom), charge = 0, multiplicity = 1:

       Center              X                  Y                   Z               Mass
    ------------   -----------------  -----------------  -----------------  -----------------
         O           -1.538971841555    -0.681526895852     0.000060031029    15.994914619570
         N            1.972370158445    -0.336606895852    -0.000052968971    14.003074004430
         C           -0.286961141555    -0.255290795852     0.000016631029    12.000000000000
         C            0.837200158445    -1.112728895852    -0.000025968971    12.000000000000
         C            0.262680158445     1.088361104148     0.000011031029    12.000000000000
         C            1.646286158445     0.992035104148    -0.000036968971    12.000000000000
         C           -2.506355841555     0.360364104148     0.000025031029    12.000000000000
         H            0.867308158445    -2.191882895852    -0.000039968971     1.007825032230
         H           -0.300330841555     2.010900104148     0.000036031029     1.007825032230
         H            2.914842158445    -0.701143895852    -0.000093968971     1.007825032230
         H            2.406739158445     1.760093104148    -0.000048968971     1.007825032230
         H           -3.477566841555    -0.134603895852     0.000043031029     1.007825032230
         H           -2.414889841555     0.988450104148    -0.893738968971     1.007825032230
         H           -2.414890841555     0.988509104148     0.893748031029     1.007825032230

  Basis Set: AUG-CC-PVTZ
    Blend: AUG-CC-PVTZ
  Basis Set: (AUG-CC-PVTZ AUX)
    Blend: AUG-CC-PVTZ-JKFIT
	 Reference Energy          =    -322.7981160301094405 [Eh]
	 Singles Energy            =      -0.0000000000000000 [Eh]
	 Same-Spin Energy          =      -0.3400068132600162 [Eh]
	 Opposite-Spin Energy      =      -1.0636358336047635 [Eh]
	 Correlation Energy        =      -1.4036426468647798 [Eh]
	 Total Energy              =    -324.2017586769742366 [Eh]

	 ================> DF-SCS-MP2 Energies <==================
	-----------------------------------------------------------
	 SCS Same-Spin Scale       =       0.3333333333333333 [-]
	 SCS Opposite-Spin Scale   =       1.2000000000000000 [-]
	 SCS Same-Spin Energy      =      -0.1133356044200054 [Eh]
	 SCS Opposite-Spin Energy  =      -1.2763630003257163 [Eh]
	 SCS Correlation Energy    =      -1.3896986047457216 [Eh]
	 SCS Total Energy          =    -324.1878146348551581 [Eh]
	-----------------------------------------------------------

  Dipole Moment: [D]
     X:     1.0378      Y:     0.5280      Z:    -0.0001     Total:     1.1644

*** Psi4 exiting successfully. Buy a developer a beer!
