                               Psi4 1.3.2 release

  ==> Input File <==

--------------------------------------------------------------------------
#psi4
#
memory 32 gb

molecule  {
0 1
  O       -1.5603442    -0.5710734     0.0000628
  N        1.9901180    -0.3643950    -0.0000520
  C       -0.2218810    -0.2669650     0.0000160
  C        0.8549480    -1.1405170    -0.0000250
  C        0.2804280     1.0605730     0.0000120
  C        1.6640340     0.9642470    -0.0000360
  C       -2.4886080     0.3325760     0.0000260
  H        0.8850560    -2.2196710    -0.0000390
  H       -0.2825830     1.9831120     0.0000370
  H        2.9325900    -0.7289320    -0.0000930
  H        2.4244870     1.7323050    -0.0000480
  H       -3.4598190    -0.1623920     0.0000440
  H       -2.3971420     0.9606620    -0.8937380
  H       -2.3971430     0.9607210     0.8937490
units angstrom
no_reorient  #important for SAPT in psi4, default
symmetry c1  #important for SAPT in psi4, default
}

set PROPERTIES_ORIGIN ["COM"]
properties('MP2/aug-cc-pvtz', properties = ['dipole'])
--------------------------------------------------------------------------

    Molecular point group: c1
  Charge       = 0
  Multiplicity = 1
  Basis Set: AUG-CC-PVTZ
    Blend: AUG-CC-PVTZ
  Basis Set: (AUG-CC-PVTZ AUX)
    Blend: AUG-CC-PVTZ-JKFIT

    Orbital Energies [Eh]
    ---------------------

    Doubly Occupied:

       1A    -20.563256     2A    -15.611541     3A    -11.280110
       4A    -11.262048     5A    -11.261747     6A    -11.248716
       7A    -11.212786     8A     -1.427601     9A     -1.292537
      10A     -1.050537    11A     -0.990984    12A     -0.922565
      13A     -0.806275    14A     -0.759242    15A     -0.739938
      16A     -0.665187    17A     -0.661437    18A     -0.641208
      19A     -0.588144    20A     -0.570652    21A     -0.570588
      22A     -0.544280    23A     -0.463553    24A     -0.463340
      25A     -0.336469    26A     -0.288850

  @DF-RHF Final Energy:  -322.79084409090990

   => Energetics <=

    Nuclear Repulsion Energy =            294.2584812995443713
    One-Electron Energy =               -1021.6514714190661834
    Two-Electron Energy =                 404.6021460286118554
    Total Energy =                       -322.7908440909098999
  Basis Set: (AUG-CC-PVTZ AUX)
    Blend: AUG-CC-PVTZ-RI
    Molecular point group: c1

    Geometry (in Angstrom), charge = 0, multiplicity = 1:

       Center              X                  Y                   Z               Mass
    ------------   -----------------  -----------------  -----------------  -----------------
         O           -1.577497141868    -0.568060781820     0.000061732208    15.994914619570
         N            1.972965058132    -0.361382381820    -0.000053067792    14.003074004430
         C           -0.239033941868    -0.263952381820     0.000014932208    12.000000000000
         C            0.837795058132    -1.137504381820    -0.000026067792    12.000000000000
         C            0.263275058132     1.063585618180     0.000010932208    12.000000000000
         C            1.646881058132     0.967259618180    -0.000037067792    12.000000000000
         C           -2.505760941868     0.335588618180     0.000024932208    12.000000000000
         H            0.867903058132    -2.216658381820    -0.000040067792     1.007825032230
         H           -0.299735941868     1.986124618180     0.000035932208     1.007825032230
         H            2.915437058132    -0.725919381820    -0.000094067792     1.007825032230
         H            2.407334058132     1.735317618180    -0.000049067792     1.007825032230
         H           -3.476971941868    -0.159379381820     0.000042932208     1.007825032230
         H           -2.414294941868     0.963674618180    -0.893739067792     1.007825032230
         H           -2.414295941868     0.963733618180     0.893747932208     1.007825032230

  Basis Set: AUG-CC-PVTZ
    Blend: AUG-CC-PVTZ
  Basis Set: (AUG-CC-PVTZ AUX)
    Blend: AUG-CC-PVTZ-JKFIT
	 Reference Energy          =    -322.7908440909098999 [Eh]
	 Singles Energy            =      -0.0000000000000000 [Eh]
	 Same-Spin Energy          =      -0.3392430769570580 [Eh]
	 Opposite-Spin Energy      =      -1.0604941402909680 [Eh]
	 Correlation Energy        =      -1.3997372172480260 [Eh]
	 Total Energy              =    -324.1905813081579026 [Eh]

	 ================> DF-SCS-MP2 Energies <==================
	-----------------------------------------------------------
	 SCS Same-Spin Scale       =       0.3333333333333333 [-]
	 SCS Opposite-Spin Scale   =       1.2000000000000000 [-]
	 SCS Same-Spin Energy      =      -0.1130810256523527 [Eh]
	 SCS Opposite-Spin Energy  =      -1.2725929683491615 [Eh]
	 SCS Correlation Energy    =      -1.3856739940015141 [Eh]
	 SCS Total Energy          =    -324.1765180849114358 [Eh]
	-----------------------------------------------------------

  Dipole Moment: [D]
     X:     1.7752      Y:     0.1945      Z:    -0.0001     Total:     1.7858

*** Psi4 exiting successfully. Buy a developer a beer!
