                               Psi4 1.3.2 release

  ==> Input File <==

--------------------------------------------------------------------------
#psi4
#
memory 32 gb

molecule  {
0 1
  O       -1.5212240    -0.7093150     0.0000610
  N        1.9901180    -0.3643950    -0.0000520
  C       -0.2559029    -0.1774050     0.0000121
  C        0.8549480    -1.1405170    -0.0000250
  C        0.2804280     1.0605730     0.0000120
  C        1.6640340     0.9642470    -0.0000360
  C       -2.4886080     0.3325760     0.0000260
  H        0.8850560    -2.2196710    -0.0000390
  H       -0.2825830     1.9831120     0.0000370
  H        2.9325900    -0.7289320    -0.0000930
  H        2.4244870     1.7323050    -0.0000480
  H       -3.4598190    -0.1623920     0.0000440
  H       -2.3971420     0.9606620    -0.8937380
  H       -2.3971430     0.9607210     0.8937490
units angstrom
no_reorient  #important for SAPT in psi4, default
symmetry c1  #important for SAPT in psi4, default
}

set PROPERTIES_ORIGIN ["COM"]
properties('MP2/aug-cc-pvtz', properties = ['dipole'])
--------------------------------------------------------------------------

    Molecular point group: c1
  Charge       = 0
  Multiplicity = 1
  Basis Set: AUG-CC-PVTZ
    Blend: AUG-CC-PVTZ
  Basis Set: (AUG-CC-PVTZ AUX)
    Blend: AUG-CC-PVTZ-JKFIT

    Orbital Energies [Eh]
    ---------------------

    Doubly Occupied:

       1A    -20.575075     2A    -15.616628     3A    -11.274291
       4A    -11.273496     5A    -11.255560     6A    -11.246429
       7A    -11.210119     8A     -1.393714     9A     -1.288043
      10A     -1.051171    11A     -0.976005    12A     -0.920348
      13A     -0.810104    14A     -0.753884    15A     -0.732913
      16A     -0.647221    17A     -0.645087    18A     -0.621677
      19A     -0.585317    20A     -0.567616    21A     -0.565802
      22A     -0.521408    23A     -0.496375    24A     -0.483087
      25A     -0.347361    26A     -0.268603

  @DF-RHF Final Energy:  -322.78523578185275

   => Energetics <=

    Nuclear Repulsion Energy =            292.2809233619396423
    One-Electron Energy =               -1017.8776526446174557
    Two-Electron Energy =                 402.8114935008251223
    Total Energy =                       -322.7852357818527480
  Basis Set: (AUG-CC-PVTZ AUX)
    Blend: AUG-CC-PVTZ-RI
    Molecular point group: c1

    Geometry (in Angstrom), charge = 0, multiplicity = 1:

       Center              X                  Y                   Z               Mass
    ------------   -----------------  -----------------  -----------------  -----------------
         O           -1.540617593759    -0.694592848327     0.000060711071    15.994914619570
         N            1.970724406241    -0.349672848327    -0.000052288929    14.003074004430
         C           -0.275296493759    -0.162682848327     0.000011811071    12.000000000000
         C            0.835554406241    -1.125794848327    -0.000025288929    12.000000000000
         C            0.261034406241     1.075295151673     0.000011711071    12.000000000000
         C            1.644640406241     0.978969151673    -0.000036288929    12.000000000000
         C           -2.508001593759     0.347298151673     0.000025711071    12.000000000000
         H            0.865662406241    -2.204948848327    -0.000039288929     1.007825032230
         H           -0.301976593759     1.997834151673     0.000036711071     1.007825032230
         H            2.913196406241    -0.714209848327    -0.000093288929     1.007825032230
         H            2.405093406241     1.747027151673    -0.000048288929     1.007825032230
         H           -3.479212593759    -0.147669848327     0.000043711071     1.007825032230
         H           -2.416535593759     0.975384151673    -0.893738288929     1.007825032230
         H           -2.416536593759     0.975443151673     0.893748711071     1.007825032230

  Basis Set: AUG-CC-PVTZ
    Blend: AUG-CC-PVTZ
  Basis Set: (AUG-CC-PVTZ AUX)
    Blend: AUG-CC-PVTZ-JKFIT
	 Reference Energy          =    -322.7852357818527480 [Eh]
	 Singles Energy            =      -0.0000000000000000 [Eh]
	 Same-Spin Energy          =      -0.3421769394615831 [Eh]
	 Opposite-Spin Energy      =      -1.0673985557730901 [Eh]
	 Correlation Energy        =      -1.4095754952346731 [Eh]
	 Total Energy              =    -324.1948112770874104 [Eh]

	 ================> DF-SCS-MP2 Energies <==================
	-----------------------------------------------------------
	 SCS Same-Spin Scale       =       0.3333333333333333 [-]
	 SCS Opposite-Spin Scale   =       1.2000000000000000 [-]
	 SCS Same-Spin Energy      =      -0.1140589798205277 [Eh]
	 SCS Opposite-Spin Energy  =      -1.2808782669277081 [Eh]
	 SCS Correlation Energy    =      -1.3949372467482357 [Eh]
	 SCS Total Energy          =    -324.1801730286009615 [Eh]
	-----------------------------------------------------------

  Dipole Moment: [D]
     X:     1.3126      Y:     0.6106      Z:    -0.0001     Total:     1.4477

*** Psi4 exiting successfully. Buy a developer a beer!
