                               Psi4 1.3.2 release

  ==> Input File <==

--------------------------------------------------------------------------
#psi4
#
memory 32 gb

molecule  {
0 1
  O       -1.5212240    -0.7093150     0.0000610
  N        1.9901180    -0.3643950    -0.0000520
  C       -0.3165455    -0.2991927     0.0000193
  C        0.8549480    -1.1405170    -0.0000250
  C        0.2804280     1.0605730     0.0000120
  C        1.6640340     0.9642470    -0.0000360
  C       -2.4886080     0.3325760     0.0000260
  H        0.8850560    -2.2196710    -0.0000390
  H       -0.2825830     1.9831120     0.0000370
  H        2.9325900    -0.7289320    -0.0000930
  H        2.4244870     1.7323050    -0.0000480
  H       -3.4598190    -0.1623920     0.0000440
  H       -2.3971420     0.9606620    -0.8937380
  H       -2.3971430     0.9607210     0.8937490
units angstrom
no_reorient  #important for SAPT in psi4, default
symmetry c1  #important for SAPT in psi4, default
}

set PROPERTIES_ORIGIN ["COM"]
properties('MP2/aug-cc-pvtz', properties = ['dipole'])
--------------------------------------------------------------------------

    Molecular point group: c1
  Charge       = 0
  Multiplicity = 1
  Basis Set: AUG-CC-PVTZ
    Blend: AUG-CC-PVTZ
  Basis Set: (AUG-CC-PVTZ AUX)
    Blend: AUG-CC-PVTZ-JKFIT

    Orbital Energies [Eh]
    ---------------------

    Doubly Occupied:

       1A    -20.585475     2A    -15.603730     3A    -11.284588
       4A    -11.282965     5A    -11.256245     6A    -11.238581
       7A    -11.214290     8A     -1.440643     9A     -1.277332
      10A     -1.024759    11A     -0.987242    12A     -0.930826
      13A     -0.795499    14A     -0.761782    15A     -0.729709
      16A     -0.663433    17A     -0.660442    18A     -0.636660
      19A     -0.578929    20A     -0.564124    21A     -0.559443
      22A     -0.539817    23A     -0.502636    24A     -0.471458
      25A     -0.323818    26A     -0.269167

  @DF-RHF Final Energy:  -322.78666597550352

   => Energetics <=

    Nuclear Repulsion Energy =            292.0791267520799579
    One-Electron Energy =               -1017.3644003696485925
    Two-Electron Energy =                 402.4986076420651671
    Total Energy =                       -322.7866659755035244
  Basis Set: (AUG-CC-PVTZ AUX)
    Blend: AUG-CC-PVTZ-RI
    Molecular point group: c1

    Geometry (in Angstrom), charge = 0, multiplicity = 1:

       Center              X                  Y                   Z               Mass
    ------------   -----------------  -----------------  -----------------  -----------------
         O           -1.533119495084    -0.679534519826     0.000059820834    15.994914619570
         N            1.978222504916    -0.334614519826    -0.000053179166    14.003074004430
         C           -0.328440995084    -0.269412219826     0.000018120834    12.000000000000
         C            0.843052504916    -1.110736519826    -0.000026179166    12.000000000000
         C            0.268532504916     1.090353480174     0.000010820834    12.000000000000
         C            1.652138504916     0.994027480174    -0.000037179166    12.000000000000
         C           -2.500503495084     0.362356480174     0.000024820834    12.000000000000
         H            0.873160504916    -2.189890519826    -0.000040179166     1.007825032230
         H           -0.294478495084     2.012892480174     0.000035820834     1.007825032230
         H            2.920694504916    -0.699151519826    -0.000094179166     1.007825032230
         H            2.412591504916     1.762085480174    -0.000049179166     1.007825032230
         H           -3.471714495084    -0.132611519826     0.000042820834     1.007825032230
         H           -2.409037495084     0.990442480174    -0.893739179166     1.007825032230
         H           -2.409038495084     0.990501480174     0.893747820834     1.007825032230

  Basis Set: AUG-CC-PVTZ
    Blend: AUG-CC-PVTZ
  Basis Set: (AUG-CC-PVTZ AUX)
    Blend: AUG-CC-PVTZ-JKFIT
	 Reference Energy          =    -322.7866659755035244 [Eh]
	 Singles Energy            =      -0.0000000000000000 [Eh]
	 Same-Spin Energy          =      -0.3404318227736707 [Eh]
	 Opposite-Spin Energy      =      -1.0640021839348170 [Eh]
	 Correlation Energy        =      -1.4044340067084877 [Eh]
	 Total Energy              =    -324.1910999822119948 [Eh]

	 ================> DF-SCS-MP2 Energies <==================
	-----------------------------------------------------------
	 SCS Same-Spin Scale       =       0.3333333333333333 [-]
	 SCS Opposite-Spin Scale   =       1.2000000000000000 [-]
	 SCS Same-Spin Energy      =      -0.1134772742578902 [Eh]
	 SCS Opposite-Spin Energy  =      -1.2768026207217804 [Eh]
	 SCS Correlation Energy    =      -1.3902798949796706 [Eh]
	 SCS Total Energy          =    -324.1769458704832232 [Eh]
	-----------------------------------------------------------

  Dipole Moment: [D]
     X:     0.6736      Y:     0.4803      Z:    -0.0001     Total:     0.8273

*** Psi4 exiting successfully. Buy a developer a beer!
