                               Psi4 1.3.2 release

  ==> Input File <==

--------------------------------------------------------------------------
#psi4
#
memory 32 gb

molecule  {
0 1
  O       -1.5212240    -0.7093150     0.0000610
  N        1.9901180    -0.3643950    -0.0000520
  C       -0.2218810    -0.2669650     0.0000160
  C        0.7800397    -1.0176077    -0.0000200
  C        0.2804280     1.0605730     0.0000120
  C        1.6640340     0.9642470    -0.0000360
  C       -2.4886080     0.3325760     0.0000260
  H        0.8850560    -2.2196710    -0.0000390
  H       -0.2825830     1.9831120     0.0000370
  H        2.9325900    -0.7289320    -0.0000930
  H        2.4244870     1.7323050    -0.0000480
  H       -3.4598190    -0.1623920     0.0000440
  H       -2.3971420     0.9606620    -0.8937380
  H       -2.3971430     0.9607210     0.8937490
units angstrom
no_reorient  #important for SAPT in psi4, default
symmetry c1  #important for SAPT in psi4, default
}

set PROPERTIES_ORIGIN ["COM"]
properties('MP2/aug-cc-pvtz', properties = ['dipole'])
--------------------------------------------------------------------------

    Molecular point group: c1
  Charge       = 0
  Multiplicity = 1
  Basis Set: AUG-CC-PVTZ
    Blend: AUG-CC-PVTZ
  Basis Set: (AUG-CC-PVTZ AUX)
    Blend: AUG-CC-PVTZ-JKFIT

    Orbital Energies [Eh]
    ---------------------

    Doubly Occupied:

       1A    -20.570466     2A    -15.600761     3A    -11.274334
       4A    -11.259656     5A    -11.253840     6A    -11.236362
       7A    -11.211537     8A     -1.390458     9A     -1.294892
      10A     -1.060875    11A     -0.986089    12A     -0.924229
      13A     -0.801737    14A     -0.760904    15A     -0.722913
      16A     -0.663895    17A     -0.645610    18A     -0.615582
      19A     -0.574742    20A     -0.571030    21A     -0.551919
      22A     -0.529678    23A     -0.484667    24A     -0.483154
      25A     -0.338383    26A     -0.301336

  @DF-RHF Final Energy:  -322.77370336744275

   => Energetics <=

    Nuclear Repulsion Energy =            294.9349911753326410
    One-Electron Energy =               -1023.1992919402624693
    Two-Electron Energy =                 405.4905973974871358
    Total Energy =                       -322.7737033674427494
  Basis Set: (AUG-CC-PVTZ AUX)
    Blend: AUG-CC-PVTZ-RI
    Molecular point group: c1

    Geometry (in Angstrom), charge = 0, multiplicity = 1:

       Center              X                  Y                   Z               Mass
    ------------   -----------------  -----------------  -----------------  -----------------
         O           -1.535562232319    -0.698716291948     0.000059610639    15.994914619570
         N            1.975779767681    -0.353796291948    -0.000053389361    14.003074004430
         C           -0.236219232319    -0.256366291948     0.000014610639    12.000000000000
         C            0.765701467681    -1.007008991948    -0.000021389361    12.000000000000
         C            0.266089767681     1.071171708052     0.000010610639    12.000000000000
         C            1.649695767681     0.974845708052    -0.000037389361    12.000000000000
         C           -2.502946232319     0.343174708052     0.000024610639    12.000000000000
         H            0.870717767681    -2.209072291948    -0.000040389361     1.007825032230
         H           -0.296921232319     1.993710708052     0.000035610639     1.007825032230
         H            2.918251767681    -0.718333291948    -0.000094389361     1.007825032230
         H            2.410148767681     1.742903708052    -0.000049389361     1.007825032230
         H           -3.474157232319    -0.151793291948     0.000042610639     1.007825032230
         H           -2.411480232319     0.971260708052    -0.893739389361     1.007825032230
         H           -2.411481232319     0.971319708052     0.893747610639     1.007825032230

  Basis Set: AUG-CC-PVTZ
    Blend: AUG-CC-PVTZ
  Basis Set: (AUG-CC-PVTZ AUX)
    Blend: AUG-CC-PVTZ-JKFIT
	 Reference Energy          =    -322.7737033674427494 [Eh]
	 Singles Energy            =      -0.0000000000000000 [Eh]
	 Same-Spin Energy          =      -0.3382558539473774 [Eh]
	 Opposite-Spin Energy      =      -1.0616018980568900 [Eh]
	 Correlation Energy        =      -1.3998577520042674 [Eh]
	 Total Energy              =    -324.1735611194470152 [Eh]

	 ================> DF-SCS-MP2 Energies <==================
	-----------------------------------------------------------
	 SCS Same-Spin Scale       =       0.3333333333333333 [-]
	 SCS Opposite-Spin Scale   =       1.2000000000000000 [-]
	 SCS Same-Spin Energy      =      -0.1127519513157925 [Eh]
	 SCS Opposite-Spin Energy  =      -1.2739222776682679 [Eh]
	 SCS Correlation Energy    =      -1.3866742289840603 [Eh]
	 SCS Total Energy          =    -324.1603775964268266 [Eh]
	-----------------------------------------------------------

  Dipole Moment: [D]
     X:     1.3901      Y:     0.5961      Z:    -0.0001     Total:     1.5125

*** Psi4 exiting successfully. Buy a developer a beer!
