                               Psi4 1.3.2 release

  ==> Input File <==

--------------------------------------------------------------------------
#psi4
#
memory 32 gb

molecule  {
0 1
  O       -1.5212240    -0.7093150     0.0000610
  N        1.9901180    -0.3643950    -0.0000520
  C       -0.2381103    -0.2218881     0.0000140
  C        0.8549480    -1.1405170    -0.0000250
  C        0.2804280     1.0605730     0.0000120
  C        1.6640340     0.9642470    -0.0000360
  C       -2.4886080     0.3325760     0.0000260
  H        0.8850560    -2.2196710    -0.0000390
  H       -0.2825830     1.9831120     0.0000370
  H        2.9325900    -0.7289320    -0.0000930
  H        2.4244870     1.7323050    -0.0000480
  H       -3.4598190    -0.1623920     0.0000440
  H       -2.3971420     0.9606620    -0.8937380
  H       -2.3971430     0.9607210     0.8937490
units angstrom
no_reorient  #important for SAPT in psi4, default
symmetry c1  #important for SAPT in psi4, default
}

set PROPERTIES_ORIGIN ["COM"]
properties('MP2/aug-cc-pvtz', properties = ['dipole'])
--------------------------------------------------------------------------

    Molecular point group: c1
  Charge       = 0
  Multiplicity = 1
  Basis Set: AUG-CC-PVTZ
    Blend: AUG-CC-PVTZ
  Basis Set: (AUG-CC-PVTZ AUX)
    Blend: AUG-CC-PVTZ-JKFIT

    Orbital Energies [Eh]
    ---------------------

    Doubly Occupied:

       1A    -20.572691     2A    -15.612294     3A    -11.273564
       4A    -11.273259     5A    -11.257898     6A    -11.243614
       7A    -11.211781     8A     -1.391261     9A     -1.287918
      10A     -1.044970    11A     -0.980743    12A     -0.921346
      13A     -0.805091    14A     -0.754481    15A     -0.734401
      16A     -0.645922    17A     -0.643543    18A     -0.619473
      19A     -0.585131    20A     -0.567327    21A     -0.566374
      22A     -0.529804    23A     -0.492463    24A     -0.482308
      25A     -0.341200    26A     -0.275934

  @DF-RHF Final Energy:  -322.79600329569013

   => Energetics <=

    Nuclear Repulsion Energy =            292.2451601354820241
    One-Electron Energy =               -1017.8527455281018774
    Two-Electron Energy =                 402.8115820969297260
    Total Energy =                       -322.7960032956901273
  Basis Set: (AUG-CC-PVTZ AUX)
    Blend: AUG-CC-PVTZ-RI
    Molecular point group: c1

    Geometry (in Angstrom), charge = 0, multiplicity = 1:

       Center              X                  Y                   Z               Mass
    ------------   -----------------  -----------------  -----------------  -----------------
         O           -1.542817543472    -0.689092776213     0.000060476147    15.994914619570
         N            1.968524456528    -0.344172776213    -0.000052523853    14.003074004430
         C           -0.259703843472    -0.201665876213     0.000013476147    12.000000000000
         C            0.833354456528    -1.120294776213    -0.000025523853    12.000000000000
         C            0.258834456528     1.080795223787     0.000011476147    12.000000000000
         C            1.642440456528     0.984469223787    -0.000036523853    12.000000000000
         C           -2.510201543472     0.352798223787     0.000025476147    12.000000000000
         H            0.863462456528    -2.199448776213    -0.000039523853     1.007825032230
         H           -0.304176543472     2.003334223787     0.000036476147     1.007825032230
         H            2.910996456528    -0.708709776213    -0.000093523853     1.007825032230
         H            2.402893456528     1.752527223787    -0.000048523853     1.007825032230
         H           -3.481412543472    -0.142169776213     0.000043476147     1.007825032230
         H           -2.418735543472     0.980884223787    -0.893738523853     1.007825032230
         H           -2.418736543472     0.980943223787     0.893748476147     1.007825032230

  Basis Set: AUG-CC-PVTZ
    Blend: AUG-CC-PVTZ
  Basis Set: (AUG-CC-PVTZ AUX)
    Blend: AUG-CC-PVTZ-JKFIT
	 Reference Energy          =    -322.7960032956901273 [Eh]
	 Singles Energy            =      -0.0000000000000000 [Eh]
	 Same-Spin Energy          =      -0.3409924847829827 [Eh]
	 Opposite-Spin Energy      =      -1.0654132169354207 [Eh]
	 Correlation Energy        =      -1.4064057017184033 [Eh]
	 Total Energy              =    -324.2024089974085541 [Eh]

	 ================> DF-SCS-MP2 Energies <==================
	-----------------------------------------------------------
	 SCS Same-Spin Scale       =       0.3333333333333333 [-]
	 SCS Opposite-Spin Scale   =       1.2000000000000000 [-]
	 SCS Same-Spin Energy      =      -0.1136641615943276 [Eh]
	 SCS Opposite-Spin Energy  =      -1.2784958603225047 [Eh]
	 SCS Correlation Energy    =      -1.3921600219168324 [Eh]
	 SCS Total Energy          =    -324.1881633176069499 [Eh]
	-----------------------------------------------------------

  Dipole Moment: [D]
     X:     1.3484      Y:     0.5907      Z:    -0.0001     Total:     1.4721

*** Psi4 exiting successfully. Buy a developer a beer!
