                               Psi4 1.3.2 release

  ==> Input File <==

--------------------------------------------------------------------------
#psi4
#
memory 32 gb

molecule  {
0 1
  O        0.1020250    -0.5936610     0.2432790
  O        2.2583290    -0.7266490     0.4785580
  O        1.4108889     1.0725466    -0.6458124
  C       -1.0945380     0.0672860    -0.2723740
  C       -2.1583360    -1.0099580    -0.2947280
  C       -1.4377530     1.2430580     0.6217300
  C        1.2597240    -0.0090520    -0.0847670
  H       -0.8680500     0.4152130    -1.2840580
  H       -3.0925200    -0.6019470    -0.6907100
  H       -1.8459410    -1.8462780    -0.9239700
  H       -2.3397190    -1.3819350     0.7169650
  H       -2.3557360     1.7247410     0.2719260
  H       -0.6338990     1.9813890     0.6069580
  H       -1.5931290     0.8972140     1.6473570
  H        3.0793230    -0.2701740     0.2118980
units angstrom
no_reorient  #important for SAPT in psi4, default
symmetry c1  #important for SAPT in psi4, default
}

set PROPERTIES_ORIGIN ["COM"]
properties('MP2/aug-cc-pvtz', properties = ['dipole'])
--------------------------------------------------------------------------

    Molecular point group: c1
  Charge       = 0
  Multiplicity = 1
  Basis Set: AUG-CC-PVTZ
    Blend: AUG-CC-PVTZ
  Basis Set: (AUG-CC-PVTZ AUX)
    Blend: AUG-CC-PVTZ-JKFIT

    Orbital Energies [Eh]
    ---------------------

    Doubly Occupied:

       1A    -20.623865     2A    -20.613494     3A    -20.551611
       4A    -11.442844     5A    -11.301716     6A    -11.226911
       7A    -11.221836     8A     -1.504329     9A     -1.401284
      10A     -1.359342    11A     -1.076162    12A     -0.951090
      13A     -0.886003    14A     -0.789366    15A     -0.745798
      16A     -0.714806    17A     -0.685856    18A     -0.636022
      19A     -0.625194    20A     -0.603712    21A     -0.568995
      22A     -0.552533    23A     -0.544394    24A     -0.526455
      25A     -0.504106    26A     -0.486977    27A     -0.476458
      28A     -0.462464

  @DF-RHF Final Energy:  -380.89754611729643

   => Energetics <=

    Nuclear Repulsion Energy =            324.3316660891822494
    One-Electron Energy =               -1164.2911831600260939
    Two-Electron Energy =                 459.0619709535474158
    Total Energy =                       -380.8975461172964287
  Basis Set: (AUG-CC-PVTZ AUX)
    Blend: AUG-CC-PVTZ-RI
    Molecular point group: c1

    Geometry (in Angstrom), charge = 0, multiplicity = 1:

       Center              X                  Y                   Z               Mass
    ------------   -----------------  -----------------  -----------------  -----------------
         O            0.011444194804    -0.598067279657     0.229678858835    15.994914619570
         O            2.167748194804    -0.731055279657     0.464957858835    15.994914619570
         O            1.320308094804     1.068140320343    -0.659412541165    15.994914619570
         C           -1.185118805196     0.062879720343    -0.285974141165    12.000000000000
         C           -2.248916805196    -1.014364279657    -0.308328141165    12.000000000000
         C           -1.528333805196     1.238651720343     0.608129858835    12.000000000000
         C            1.169143194804    -0.013458279657    -0.098367141165    12.000000000000
         H           -0.958630805196     0.410806720343    -1.297658141165     1.007825032230
         H           -3.183100805196    -0.606353279657    -0.704310141165     1.007825032230
         H           -1.936521805196    -1.850684279657    -0.937570141165     1.007825032230
         H           -2.430299805196    -1.386341279657     0.703364858835     1.007825032230
         H           -2.446316805196     1.720334720343     0.258325858835     1.007825032230
         H           -0.724479805196     1.976982720343     0.593357858835     1.007825032230
         H           -1.683709805196     0.892807720343     1.633756858835     1.007825032230
         H            2.988742194804    -0.274580279657     0.198297858835     1.007825032230

  Basis Set: AUG-CC-PVTZ
    Blend: AUG-CC-PVTZ
  Basis Set: (AUG-CC-PVTZ AUX)
    Blend: AUG-CC-PVTZ-JKFIT
	 Reference Energy          =    -380.8975461172964287 [Eh]
	 Singles Energy            =      -0.0000000000000000 [Eh]
	 Same-Spin Energy          =      -0.3684137177531332 [Eh]
	 Opposite-Spin Energy      =      -1.1634938655101985 [Eh]
	 Correlation Energy        =      -1.5319075832633318 [Eh]
	 Total Energy              =    -382.4294537005597476 [Eh]

	 ================> DF-SCS-MP2 Energies <==================
	-----------------------------------------------------------
	 SCS Same-Spin Scale       =       0.3333333333333333 [-]
	 SCS Opposite-Spin Scale   =       1.2000000000000000 [-]
	 SCS Same-Spin Energy      =      -0.1228045725843777 [Eh]
	 SCS Opposite-Spin Energy  =      -1.3961926386122381 [Eh]
	 SCS Correlation Energy    =      -1.5189972111966159 [Eh]
	 SCS Total Energy          =    -382.4165433284930486 [Eh]
	-----------------------------------------------------------

  Dipole Moment: [D]
     X:    -0.9691      Y:    -0.2397      Z:    -0.0995     Total:     1.0033

*** Psi4 exiting successfully. Buy a developer a beer!
