                               Psi4 1.3.2 release

  ==> Input File <==

--------------------------------------------------------------------------
#psi4
#
memory 32 gb

molecule  {
0 1
  O        0.1020250    -0.5936610     0.2432790
  O        2.2583290    -0.7266490     0.4785580
  O        1.4081746     1.1010518    -0.6048236
  C       -1.0945380     0.0672860    -0.2723740
  C       -2.1583360    -1.0099580    -0.2947280
  C       -1.4377530     1.2430580     0.6217300
  C        1.2597240    -0.0090520    -0.0847670
  H       -0.8680500     0.4152130    -1.2840580
  H       -3.0925200    -0.6019470    -0.6907100
  H       -1.8459410    -1.8462780    -0.9239700
  H       -2.3397190    -1.3819350     0.7169650
  H       -2.3557360     1.7247410     0.2719260
  H       -0.6338990     1.9813890     0.6069580
  H       -1.5931290     0.8972140     1.6473570
  H        3.0793230    -0.2701740     0.2118980
units angstrom
no_reorient  #important for SAPT in psi4, default
symmetry c1  #important for SAPT in psi4, default
}

set PROPERTIES_ORIGIN ["COM"]
properties('MP2/aug-cc-pvtz', properties = ['dipole'])
--------------------------------------------------------------------------

    Molecular point group: c1
  Charge       = 0
  Multiplicity = 1
  Basis Set: AUG-CC-PVTZ
    Blend: AUG-CC-PVTZ
  Basis Set: (AUG-CC-PVTZ AUX)
    Blend: AUG-CC-PVTZ-JKFIT

    Orbital Energies [Eh]
    ---------------------

    Doubly Occupied:

       1A    -20.624730     2A    -20.614298     3A    -20.551452
       4A    -11.444275     5A    -11.302006     6A    -11.227054
       7A    -11.221232     8A     -1.503789     9A     -1.401833
      10A     -1.355692    11A     -1.076262    12A     -0.950879
      13A     -0.886468    14A     -0.789836    15A     -0.745562
      16A     -0.714380    17A     -0.685538    18A     -0.635569
      19A     -0.624925    20A     -0.603521    21A     -0.568370
      22A     -0.552460    23A     -0.544625    24A     -0.526287
      25A     -0.504050    26A     -0.486470    27A     -0.475489
      28A     -0.461637

  @DF-RHF Final Energy:  -380.89509921758150

   => Energetics <=

    Nuclear Repulsion Energy =            324.2076844962981568
    One-Electron Energy =               -1164.0481877375093518
    Two-Electron Energy =                 458.9454040236296919
    Total Energy =                       -380.8950992175815031
  Basis Set: (AUG-CC-PVTZ AUX)
    Blend: AUG-CC-PVTZ-RI
    Molecular point group: c1

    Geometry (in Angstrom), charge = 0, multiplicity = 1:

       Center              X                  Y                   Z               Mass
    ------------   -----------------  -----------------  -----------------  -----------------
         O            0.011861456745    -0.602449306359     0.223377762330    15.994914619570
         O            2.168165456745    -0.735437306359     0.458656762330    15.994914619570
         O            1.318011056745     1.092263493641    -0.624724837670    15.994914619570
         C           -1.184701543255     0.058497693641    -0.292275237670    12.000000000000
         C           -2.248499543255    -1.018746306359    -0.314629237670    12.000000000000
         C           -1.527916543255     1.234269693641     0.601828762330    12.000000000000
         C            1.169560456745    -0.017840306359    -0.104668237670    12.000000000000
         H           -0.958213543255     0.406424693641    -1.303959237670     1.007825032230
         H           -3.182683543255    -0.610735306359    -0.710611237670     1.007825032230
         H           -1.936104543255    -1.855066306359    -0.943871237670     1.007825032230
         H           -2.429882543255    -1.390723306359     0.697063762330     1.007825032230
         H           -2.445899543255     1.715952693641     0.252024762330     1.007825032230
         H           -0.724062543255     1.972600693641     0.587056762330     1.007825032230
         H           -1.683292543255     0.888425693641     1.627455762330     1.007825032230
         H            2.989159456745    -0.278962306359     0.191996762330     1.007825032230

  Basis Set: AUG-CC-PVTZ
    Blend: AUG-CC-PVTZ
  Basis Set: (AUG-CC-PVTZ AUX)
    Blend: AUG-CC-PVTZ-JKFIT
	 Reference Energy          =    -380.8950992175815031 [Eh]
	 Singles Energy            =      -0.0000000000000000 [Eh]
	 Same-Spin Energy          =      -0.3686460201559031 [Eh]
	 Opposite-Spin Energy      =      -1.1640430509045980 [Eh]
	 Correlation Energy        =      -1.5326890710605012 [Eh]
	 Total Energy              =    -382.4277882886419775 [Eh]

	 ================> DF-SCS-MP2 Energies <==================
	-----------------------------------------------------------
	 SCS Same-Spin Scale       =       0.3333333333333333 [-]
	 SCS Opposite-Spin Scale   =       1.2000000000000000 [-]
	 SCS Same-Spin Energy      =      -0.1228820067186344 [Eh]
	 SCS Opposite-Spin Energy  =      -1.3968516610855175 [Eh]
	 SCS Correlation Energy    =      -1.5197336678041520 [Eh]
	 SCS Total Energy          =    -382.4148328853856356 [Eh]
	-----------------------------------------------------------

  Dipole Moment: [D]
     X:    -0.9647      Y:    -0.3047      Z:    -0.1558     Total:     1.0236

*** Psi4 exiting successfully. Buy a developer a beer!
