                               Psi4 1.3.2 release

  ==> Input File <==

--------------------------------------------------------------------------
#psi4
#
memory 32 gb

molecule  {
0 1
  O        0.1020250    -0.5936610     0.2432790
  O        2.2583290    -0.7266490     0.4785580
  O        1.4136033     1.0440414    -0.6868013
  C       -1.0945380     0.0672860    -0.2723740
  C       -2.1583360    -1.0099580    -0.2947280
  C       -1.4377530     1.2430580     0.6217300
  C        1.2597240    -0.0090520    -0.0847670
  H       -0.8680500     0.4152130    -1.2840580
  H       -3.0925200    -0.6019470    -0.6907100
  H       -1.8459410    -1.8462780    -0.9239700
  H       -2.3397190    -1.3819350     0.7169650
  H       -2.3557360     1.7247410     0.2719260
  H       -0.6338990     1.9813890     0.6069580
  H       -1.5931290     0.8972140     1.6473570
  H        3.0793230    -0.2701740     0.2118980
units angstrom
no_reorient  #important for SAPT in psi4, default
symmetry c1  #important for SAPT in psi4, default
}

set PROPERTIES_ORIGIN ["COM"]
properties('MP2/aug-cc-pvtz', properties = ['dipole'])
--------------------------------------------------------------------------

    Molecular point group: c1
  Charge       = 0
  Multiplicity = 1
  Basis Set: AUG-CC-PVTZ
    Blend: AUG-CC-PVTZ
  Basis Set: (AUG-CC-PVTZ AUX)
    Blend: AUG-CC-PVTZ-JKFIT

    Orbital Energies [Eh]
    ---------------------

    Doubly Occupied:

       1A    -20.623236     2A    -20.612912     3A    -20.551711
       4A    -11.441795     5A    -11.301476     6A    -11.226805
       7A    -11.222435     8A     -1.504751     9A     -1.400883
      10A     -1.361921    11A     -1.076117    12A     -0.951320
      13A     -0.885679    14A     -0.788986    15A     -0.745991
      16A     -0.715137    17A     -0.686099    18A     -0.636419
      19A     -0.625450    20A     -0.603699    21A     -0.569601
      22A     -0.552636    23A     -0.544231    24A     -0.526647
      25A     -0.504033    26A     -0.487422    27A     -0.477145
      28A     -0.463077

  @DF-RHF Final Energy:  -380.89924910868109

   => Energetics <=

    Nuclear Repulsion Energy =            324.4024318190633380
    One-Electron Energy =               -1164.4281318463151820
    Two-Electron Energy =                 459.1264509185706970
    Total Energy =                       -380.8992491086810901
  Basis Set: (AUG-CC-PVTZ AUX)
    Blend: AUG-CC-PVTZ-RI
    Molecular point group: c1

    Geometry (in Angstrom), charge = 0, multiplicity = 1:

       Center              X                  Y                   Z               Mass
    ------------   -----------------  -----------------  -----------------  -----------------
         O            0.011026917490    -0.593685252954     0.235979970712    15.994914619570
         O            2.167330917490    -0.726673252954     0.471258970712    15.994914619570
         O            1.322605217490     1.044017147046    -0.694100329288    15.994914619570
         C           -1.185536082510     0.067261747046    -0.279673029288    12.000000000000
         C           -2.249334082510    -1.009982252954    -0.302027029288    12.000000000000
         C           -1.528751082510     1.243033747046     0.614430970712    12.000000000000
         C            1.168725917490    -0.009076252954    -0.092066029288    12.000000000000
         H           -0.959048082510     0.415188747046    -1.291357029288     1.007825032230
         H           -3.183518082510    -0.601971252954    -0.698009029288     1.007825032230
         H           -1.936939082510    -1.846302252954    -0.931269029288     1.007825032230
         H           -2.430717082510    -1.381959252954     0.709665970712     1.007825032230
         H           -2.446734082510     1.724716747046     0.264626970712     1.007825032230
         H           -0.724897082510     1.981364747046     0.599658970712     1.007825032230
         H           -1.684127082510     0.897189747046     1.640057970712     1.007825032230
         H            2.988324917490    -0.270198252954     0.204598970712     1.007825032230

  Basis Set: AUG-CC-PVTZ
    Blend: AUG-CC-PVTZ
  Basis Set: (AUG-CC-PVTZ AUX)
    Blend: AUG-CC-PVTZ-JKFIT
	 Reference Energy          =    -380.8992491086810901 [Eh]
	 Singles Energy            =      -0.0000000000000000 [Eh]
	 Same-Spin Energy          =      -0.3682443408669679 [Eh]
	 Opposite-Spin Energy      =      -1.1630968041460901 [Eh]
	 Correlation Energy        =      -1.5313411450130578 [Eh]
	 Total Energy              =    -382.4305902536941630 [Eh]

	 ================> DF-SCS-MP2 Energies <==================
	-----------------------------------------------------------
	 SCS Same-Spin Scale       =       0.3333333333333333 [-]
	 SCS Opposite-Spin Scale   =       1.2000000000000000 [-]
	 SCS Same-Spin Energy      =      -0.1227481136223226 [Eh]
	 SCS Opposite-Spin Energy  =      -1.3957161649753080 [Eh]
	 SCS Correlation Energy    =      -1.5184642785976306 [Eh]
	 SCS Total Energy          =    -382.4177133872786953 [Eh]
	-----------------------------------------------------------

  Dipole Moment: [D]
     X:    -0.9751      Y:    -0.1802      Z:    -0.0402     Total:     0.9924

*** Psi4 exiting successfully. Buy a developer a beer!
