                               Psi4 1.3.2 release

  ==> Input File <==

--------------------------------------------------------------------------
#psi4
#
memory 32 gb

molecule  {
0 1
  O        0.1020250    -0.5936610     0.2432790
  O        2.2583290    -0.7266490     0.4785580
  O        1.4054602     1.1295569    -0.5638347
  C       -1.0945380     0.0672860    -0.2723740
  C       -2.1583360    -1.0099580    -0.2947280
  C       -1.4377530     1.2430580     0.6217300
  C        1.2597240    -0.0090520    -0.0847670
  H       -0.8680500     0.4152130    -1.2840580
  H       -3.0925200    -0.6019470    -0.6907100
  H       -1.8459410    -1.8462780    -0.9239700
  H       -2.3397190    -1.3819350     0.7169650
  H       -2.3557360     1.7247410     0.2719260
  H       -0.6338990     1.9813890     0.6069580
  H       -1.5931290     0.8972140     1.6473570
  H        3.0793230    -0.2701740     0.2118980
units angstrom
no_reorient  #important for SAPT in psi4, default
symmetry c1  #important for SAPT in psi4, default
}

set PROPERTIES_ORIGIN ["COM"]
properties('MP2/aug-cc-pvtz', properties = ['dipole'])
--------------------------------------------------------------------------

    Molecular point group: c1
  Charge       = 0
  Multiplicity = 1
  Basis Set: AUG-CC-PVTZ
    Blend: AUG-CC-PVTZ
  Basis Set: (AUG-CC-PVTZ AUX)
    Blend: AUG-CC-PVTZ-JKFIT

    Orbital Energies [Eh]
    ---------------------

    Doubly Occupied:

       1A    -20.625821     2A    -20.615315     3A    -20.551236
       4A    -11.446061     5A    -11.302344     6A    -11.227233
       7A    -11.220620     8A     -1.503189     9A     -1.402527
      10A     -1.350979    11A     -1.076416    12A     -0.950687
      13A     -0.887068    14A     -0.790394    15A     -0.745309
      16A     -0.713884    17A     -0.685170    18A     -0.635096
      19A     -0.624637    20A     -0.603102    21A     -0.567719
      22A     -0.552418    23A     -0.544920    24A     -0.526135
      25A     -0.503892    26A     -0.485929    27A     -0.474225
      28A     -0.460567

  @DF-RHF Final Energy:  -380.89184621657273

   => Energetics <=

    Nuclear Repulsion Energy =            324.0323634498027445
    One-Electron Energy =               -1163.7026317450729493
    Two-Electron Energy =                 458.7784220786975311
    Total Energy =                       -380.8918462165727306
  Basis Set: (AUG-CC-PVTZ AUX)
    Blend: AUG-CC-PVTZ-RI
    Molecular point group: c1

    Geometry (in Angstrom), charge = 0, multiplicity = 1:

       Center              X                  Y                   Z               Mass
    ------------   -----------------  -----------------  -----------------  -----------------
         O            0.012278734059    -0.606831317688     0.217076650452    15.994914619570
         O            2.168582734059    -0.739819317688     0.452355650452    15.994914619570
         O            1.315713934059     1.116386582312    -0.590037049548    15.994914619570
         C           -1.184284265941     0.054115682312    -0.298576349548    12.000000000000
         C           -2.248082265941    -1.023128317688    -0.320930349548    12.000000000000
         C           -1.527499265941     1.229887682312     0.595527650452    12.000000000000
         C            1.169977734059    -0.022222317688    -0.110969349548    12.000000000000
         H           -0.957796265941     0.402042682312    -1.310260349548     1.007825032230
         H           -3.182266265941    -0.615117317688    -0.716912349548     1.007825032230
         H           -1.935687265941    -1.859448317688    -0.950172349548     1.007825032230
         H           -2.429465265941    -1.395105317688     0.690762650452     1.007825032230
         H           -2.445482265941     1.711570682312     0.245723650452     1.007825032230
         H           -0.723645265941     1.968218682312     0.580755650452     1.007825032230
         H           -1.682875265941     0.884043682312     1.621154650452     1.007825032230
         H            2.989576734059    -0.283344317688     0.185695650452     1.007825032230

  Basis Set: AUG-CC-PVTZ
    Blend: AUG-CC-PVTZ
  Basis Set: (AUG-CC-PVTZ AUX)
    Blend: AUG-CC-PVTZ-JKFIT
	 Reference Energy          =    -380.8918462165727306 [Eh]
	 Singles Energy            =      -0.0000000000000000 [Eh]
	 Same-Spin Energy          =      -0.3689390153605462 [Eh]
	 Opposite-Spin Energy      =      -1.1647413247413181 [Eh]
	 Correlation Energy        =      -1.5336803401018644 [Eh]
	 Total Energy              =    -382.4255265566745834 [Eh]

	 ================> DF-SCS-MP2 Energies <==================
	-----------------------------------------------------------
	 SCS Same-Spin Scale       =       0.3333333333333333 [-]
	 SCS Opposite-Spin Scale   =       1.2000000000000000 [-]
	 SCS Same-Spin Energy      =      -0.1229796717868487 [Eh]
	 SCS Opposite-Spin Energy  =      -1.3976895896895816 [Eh]
	 SCS Correlation Energy    =      -1.5206692614764303 [Eh]
	 SCS Total Energy          =    -382.4125154780491584 [Eh]
	-----------------------------------------------------------

  Dipole Moment: [D]
     X:    -0.9619      Y:    -0.3748      Z:    -0.2092     Total:     1.0533

*** Psi4 exiting successfully. Buy a developer a beer!
