                               Psi4 1.3.2 release

  ==> Input File <==

--------------------------------------------------------------------------
#psi4
#
memory 32 gb

molecule  {
0 1
  O        0.1020250    -0.5936610     0.2432790
  O        2.2583290    -0.7266490     0.4785580
  O        1.4163176     1.0155362    -0.7277901
  C       -1.0945380     0.0672860    -0.2723740
  C       -2.1583360    -1.0099580    -0.2947280
  C       -1.4377530     1.2430580     0.6217300
  C        1.2597240    -0.0090520    -0.0847670
  H       -0.8680500     0.4152130    -1.2840580
  H       -3.0925200    -0.6019470    -0.6907100
  H       -1.8459410    -1.8462780    -0.9239700
  H       -2.3397190    -1.3819350     0.7169650
  H       -2.3557360     1.7247410     0.2719260
  H       -0.6338990     1.9813890     0.6069580
  H       -1.5931290     0.8972140     1.6473570
  H        3.0793230    -0.2701740     0.2118980
units angstrom
no_reorient  #important for SAPT in psi4, default
symmetry c1  #important for SAPT in psi4, default
}

set PROPERTIES_ORIGIN ["COM"]
properties('MP2/aug-cc-pvtz', properties = ['dipole'])
--------------------------------------------------------------------------

    Molecular point group: c1
  Charge       = 0
  Multiplicity = 1
  Basis Set: AUG-CC-PVTZ
    Blend: AUG-CC-PVTZ
  Basis Set: (AUG-CC-PVTZ AUX)
    Blend: AUG-CC-PVTZ-JKFIT

    Orbital Energies [Eh]
    ---------------------

    Doubly Occupied:

       1A    -20.622850     2A    -20.612559     3A    -20.551751
       4A    -11.441148     5A    -11.301288     6A    -11.226738
       7A    -11.223030     8A     -1.505008     9A     -1.400635
      10A     -1.363429    11A     -1.076129    12A     -0.951572
      13A     -0.885499    14A     -0.788701    15A     -0.746122
      16A     -0.715352    17A     -0.686246    18A     -0.636737
      19A     -0.625699    20A     -0.603498    21A     -0.570191
      22A     -0.552771    23A     -0.544141    24A     -0.526869
      25A     -0.503812    26A     -0.487791    27A     -0.477557
      28A     -0.463498

  @DF-RHF Final Energy:  -380.90025932336891

   => Energetics <=

    Nuclear Repulsion Energy =            324.4186222353675930
    One-Electron Energy =               -1164.4565212602217343
    Two-Electron Energy =                 459.1376397014852273
    Total Energy =                       -380.9002593233689140
  Basis Set: (AUG-CC-PVTZ AUX)
    Blend: AUG-CC-PVTZ-RI
    Molecular point group: c1

    Geometry (in Angstrom), charge = 0, multiplicity = 1:

       Center              X                  Y                   Z               Mass
    ------------   -----------------  -----------------  -----------------  -----------------
         O            0.010609655550    -0.589303226252     0.242281067217    15.994914619570
         O            2.166913655550    -0.722291226252     0.477560067217    15.994914619570
         O            1.324902255550     1.019893973748    -0.728788032783    15.994914619570
         C           -1.185953344450     0.071643773748    -0.273371932783    12.000000000000
         C           -2.249751344450    -1.005600226252    -0.295725932783    12.000000000000
         C           -1.529168344450     1.247415773748     0.620732067217    12.000000000000
         C            1.168308655550    -0.004694226252    -0.085764932783    12.000000000000
         H           -0.959465344450     0.419570773748    -1.285055932783     1.007825032230
         H           -3.183935344450    -0.597589226252    -0.691707932783     1.007825032230
         H           -1.937356344450    -1.841920226252    -0.924967932783     1.007825032230
         H           -2.431134344450    -1.377577226252     0.715967067217     1.007825032230
         H           -2.447151344450     1.729098773748     0.270928067217     1.007825032230
         H           -0.725314344450     1.985746773748     0.605960067217     1.007825032230
         H           -1.684544344450     0.901571773748     1.646359067217     1.007825032230
         H            2.987907655550    -0.265816226252     0.210900067217     1.007825032230

  Basis Set: AUG-CC-PVTZ
    Blend: AUG-CC-PVTZ
  Basis Set: (AUG-CC-PVTZ AUX)
    Blend: AUG-CC-PVTZ-JKFIT
	 Reference Energy          =    -380.9002593233689140 [Eh]
	 Singles Energy            =      -0.0000000000000000 [Eh]
	 Same-Spin Energy          =      -0.3681392663646982 [Eh]
	 Opposite-Spin Energy      =      -1.1628536984343212 [Eh]
	 Correlation Energy        =      -1.5309929647990193 [Eh]
	 Total Energy              =    -382.4312522881679115 [Eh]

	 ================> DF-SCS-MP2 Energies <==================
	-----------------------------------------------------------
	 SCS Same-Spin Scale       =       0.3333333333333333 [-]
	 SCS Opposite-Spin Scale   =       1.2000000000000000 [-]
	 SCS Same-Spin Energy      =      -0.1227130887882327 [Eh]
	 SCS Opposite-Spin Energy  =      -1.3954244381211853 [Eh]
	 SCS Correlation Energy    =      -1.5181375269094182 [Eh]
	 SCS Total Energy          =    -382.4183968502783273 [Eh]
	-----------------------------------------------------------

  Dipole Moment: [D]
     X:    -0.9828      Y:    -0.1263      Z:     0.0227     Total:     0.9911

*** Psi4 exiting successfully. Buy a developer a beer!
