                               Psi4 1.3.2 release

  ==> Input File <==

--------------------------------------------------------------------------
#psi4
#
memory 32 gb

molecule  {
0 1
  O        0.1020250    -0.5936610     0.2432790
  O        2.2583290    -0.7266490     0.4785580
  O        1.4190320     0.9870310    -0.7687790
  C       -1.0945380     0.0672860    -0.2723740
  C       -2.1583360    -1.0099580    -0.2947280
  C       -1.4377530     1.2430580     0.6217300
  C        1.2597240    -0.0090520    -0.0847670
  H       -0.8680500     0.4152130    -1.2840580
  H       -3.0925200    -0.6019470    -0.6907100
  H       -1.8459410    -1.8462780    -0.9239700
  H       -2.3397190    -1.3819350     0.7169650
  H       -2.3557360     1.7247410     0.2719260
  H       -0.6338990     1.9813890     0.6069580
  H       -1.5931290     0.8972140     1.6473570
  H        3.0793230    -0.2701740     0.2118980
units angstrom
no_reorient  #important for SAPT in psi4, default
symmetry c1  #important for SAPT in psi4, default
}

set PROPERTIES_ORIGIN ["COM"]
properties('MP2/aug-cc-pvtz', properties = ['dipole'])
--------------------------------------------------------------------------

    Molecular point group: c1
  Charge       = 0
  Multiplicity = 1
  Basis Set: AUG-CC-PVTZ
    Blend: AUG-CC-PVTZ
  Basis Set: (AUG-CC-PVTZ AUX)
    Blend: AUG-CC-PVTZ-JKFIT

    Orbital Energies [Eh]
    ---------------------

    Doubly Occupied:

       1A    -20.622711     2A    -20.612437     3A    -20.551731
       4A    -11.440913     5A    -11.301152     6A    -11.226710
       7A    -11.223624     8A     -1.505070     9A     -1.400540
      10A     -1.363868    11A     -1.076198    12A     -0.951847
      13A     -0.885467    14A     -0.788514    15A     -0.746177
      16A     -0.715439    17A     -0.686285    18A     -0.636959
      19A     -0.625946    20A     -0.603120    21A     -0.570762
      22A     -0.552937    23A     -0.544126    24A     -0.527127
      25A     -0.503433    26A     -0.488083    27A     -0.477692
      28A     -0.463743

  @DF-RHF Final Energy:  -380.90061050998168

   => Energetics <=

    Nuclear Repulsion Energy =            324.3794219232702858
    One-Electron Energy =               -1164.3748472569416208
    Two-Electron Energy =                 459.0948148236897168
    Total Energy =                       -380.9006105099816750
  Basis Set: (AUG-CC-PVTZ AUX)
    Blend: AUG-CC-PVTZ-RI
    Molecular point group: c1

    Geometry (in Angstrom), charge = 0, multiplicity = 1:

       Center              X                  Y                   Z               Mass
    ------------   -----------------  -----------------  -----------------  -----------------
         O            0.010192378236    -0.584921199550     0.248582179095    15.994914619570
         O            2.166496378236    -0.717909199550     0.483861179095    15.994914619570
         O            1.327199378236     0.995770800450    -0.763475820905    15.994914619570
         C           -1.186370621764     0.076025800450    -0.267070820905    12.000000000000
         C           -2.250168621764    -1.001218199550    -0.289424820905    12.000000000000
         C           -1.529585621764     1.251797800450     0.627033179095    12.000000000000
         C            1.167891378236    -0.000312199550    -0.079463820905    12.000000000000
         H           -0.959882621764     0.423952800450    -1.278754820905     1.007825032230
         H           -3.184352621764    -0.593207199550    -0.685406820905     1.007825032230
         H           -1.937773621764    -1.837538199550    -0.918666820905     1.007825032230
         H           -2.431551621764    -1.373195199550     0.722268179095     1.007825032230
         H           -2.447568621764     1.733480800450     0.277229179095     1.007825032230
         H           -0.725731621764     1.990128800450     0.612261179095     1.007825032230
         H           -1.684961621764     0.905953800450     1.652660179095     1.007825032230
         H            2.987490378236    -0.261434199550     0.217201179095     1.007825032230

  Basis Set: AUG-CC-PVTZ
    Blend: AUG-CC-PVTZ
  Basis Set: (AUG-CC-PVTZ AUX)
    Blend: AUG-CC-PVTZ-JKFIT
	 Reference Energy          =    -380.9006105099816750 [Eh]
	 Singles Energy            =      -0.0000000000000000 [Eh]
	 Same-Spin Energy          =      -0.3680991560660507 [Eh]
	 Opposite-Spin Energy      =      -1.1627654995410477 [Eh]
	 Correlation Energy        =      -1.5308646556070984 [Eh]
	 Total Energy              =    -382.4314751655887790 [Eh]

	 ================> DF-SCS-MP2 Energies <==================
	-----------------------------------------------------------
	 SCS Same-Spin Scale       =       0.3333333333333333 [-]
	 SCS Opposite-Spin Scale   =       1.2000000000000000 [-]
	 SCS Same-Spin Energy      =      -0.1226997186886836 [Eh]
	 SCS Opposite-Spin Energy  =      -1.3953185994492572 [Eh]
	 SCS Correlation Energy    =      -1.5180183181379407 [Eh]
	 SCS Total Energy          =    -382.4186288281196084 [Eh]
	-----------------------------------------------------------

  Dipole Moment: [D]
     X:    -0.9922      Y:    -0.0779      Z:     0.0891     Total:     0.9993

*** Psi4 exiting successfully. Buy a developer a beer!
