                               Psi4 1.3.2 release

  ==> Input File <==

--------------------------------------------------------------------------
#psi4
#
memory 32 gb

molecule  {
0 1
  O       -1.2892700     0.0000060    -0.8145290
  O       -0.5960130    -0.0000230     1.3422680
  O       -2.6196050     0.0000040    -0.2122050
  C        1.0437457     0.2500040    -0.4659995
  C        1.7813420     1.2673450    -0.0261740
  C        1.7813650    -1.2673310    -0.0262020
  C       -0.3290300    -0.0000080     0.1485520
  H        0.9245400     0.0000150    -1.5545560
  H        1.8622080     1.2945800     1.0634230
  H        1.2577770     2.1678420    -0.3590640
  H        2.7877650     1.2776000    -0.4534740
  H        1.8622170    -1.2945980     1.0633950
  H        2.7877950    -1.2775480    -0.4534850
  H        1.2578290    -2.1678320    -0.3591270
  H       -2.3655580    -0.0000240     0.7475810
units angstrom
no_reorient  #important for SAPT in psi4, default
symmetry c1  #important for SAPT in psi4, default
}

set PROPERTIES_ORIGIN ["COM"]
properties('MP2/aug-cc-pvtz', properties = ['dipole'])
--------------------------------------------------------------------------

    Molecular point group: c1
  Charge       = 0
  Multiplicity = 1
  Basis Set: AUG-CC-PVTZ
    Blend: AUG-CC-PVTZ
  Basis Set: (AUG-CC-PVTZ AUX)
    Blend: AUG-CC-PVTZ-JKFIT

    Orbital Energies [Eh]
    ---------------------

    Doubly Occupied:

       1A    -20.672698     2A    -20.647007     3A    -20.572743
       4A    -11.407456     5A    -11.273995     6A    -11.245692
       7A    -11.228968     8A     -1.526642     9A     -1.400437
      10A     -1.262958    11A     -1.125010    12A     -0.954004
      13A     -0.890298    14A     -0.805900    15A     -0.735972
      16A     -0.689604    17A     -0.685960    18A     -0.648697
      19A     -0.620718    20A     -0.601311    21A     -0.594674
      22A     -0.567777    23A     -0.551545    24A     -0.538734
      25A     -0.529893    26A     -0.474570    27A     -0.469607
      28A     -0.426830

  @DF-RHF Final Energy:  -380.71768283921290

   => Energetics <=

    Nuclear Repulsion Energy =            321.1938549833045613
    One-Electron Energy =               -1157.5236758474948147
    Two-Electron Energy =                 455.6121380249772983
    Total Energy =                       -380.7176828392128982
  Basis Set: (AUG-CC-PVTZ AUX)
    Blend: AUG-CC-PVTZ-RI
    Molecular point group: c1

    Geometry (in Angstrom), charge = 0, multiplicity = 1:

       Center              X                  Y                   Z               Mass
    ------------   -----------------  -----------------  -----------------  -----------------
         O           -1.190560395734    -0.028826522016    -0.817425386784    15.994914619570
         O           -0.497303395734    -0.028855522016     1.339371613216    15.994914619570
         O           -2.520895395734    -0.028828522016    -0.215101386784    15.994914619570
         C            1.142455304266     0.221171477984    -0.468895886784    12.000000000000
         C            1.880051604266     1.238512477984    -0.029070386784    12.000000000000
         C            1.880074604266    -1.296163522016    -0.029098386784    12.000000000000
         C           -0.230320395734    -0.028840522016     0.145655613216    12.000000000000
         H            1.023249604266    -0.028817522016    -1.557452386784     1.007825032230
         H            1.960917604266     1.265747477984     1.060526613216     1.007825032230
         H            1.356486604266     2.139009477984    -0.361960386784     1.007825032230
         H            2.886474604266     1.248767477984    -0.456370386784     1.007825032230
         H            1.960926604266    -1.323430522016     1.060498613216     1.007825032230
         H            2.886504604266    -1.306380522016    -0.456381386784     1.007825032230
         H            1.356538604266    -2.196664522016    -0.362023386784     1.007825032230
         H           -2.266848395734    -0.028856522016     0.744684613216     1.007825032230

  Basis Set: AUG-CC-PVTZ
    Blend: AUG-CC-PVTZ
  Basis Set: (AUG-CC-PVTZ AUX)
    Blend: AUG-CC-PVTZ-JKFIT
	 Reference Energy          =    -380.7176828392128982 [Eh]
	 Singles Energy            =      -0.0000000000000000 [Eh]
	 Same-Spin Energy          =      -0.3727832991936351 [Eh]
	 Opposite-Spin Energy      =      -1.1812083271160603 [Eh]
	 Correlation Energy        =      -1.5539916263096953 [Eh]
	 Total Energy              =    -382.2716744655226080 [Eh]

	 ================> DF-SCS-MP2 Energies <==================
	-----------------------------------------------------------
	 SCS Same-Spin Scale       =       0.3333333333333333 [-]
	 SCS Opposite-Spin Scale   =       1.2000000000000000 [-]
	 SCS Same-Spin Energy      =      -0.1242610997312117 [Eh]
	 SCS Opposite-Spin Energy  =      -1.4174499925392723 [Eh]
	 SCS Correlation Energy    =      -1.5417110922704840 [Eh]
	 SCS Total Energy          =    -382.2593939314833733 [Eh]
	-----------------------------------------------------------

  Dipole Moment: [D]
     X:     2.6663      Y:     0.1711      Z:    -0.4188     Total:     2.7044

*** Psi4 exiting successfully. Buy a developer a beer!
