                               Psi4 1.3.2 release

  ==> Input File <==

--------------------------------------------------------------------------
#psi4
#
memory 32 gb

molecule  {
0 1
  O       -1.2892700     0.0000060    -0.8145290
  O       -0.5960130    -0.0000230     1.3422680
  O       -2.6196050     0.0000040    -0.2122050
  C        1.0437458     0.2000040    -0.4660002
  C        1.7813420     1.2673450    -0.0261740
  C        1.7813650    -1.2673310    -0.0262020
  C       -0.3290300    -0.0000080     0.1485520
  H        0.9245400     0.0000150    -1.5545560
  H        1.8622080     1.2945800     1.0634230
  H        1.2577770     2.1678420    -0.3590640
  H        2.7877650     1.2776000    -0.4534740
  H        1.8622170    -1.2945980     1.0633950
  H        2.7877950    -1.2775480    -0.4534850
  H        1.2578290    -2.1678320    -0.3591270
  H       -2.3655580    -0.0000240     0.7475810
units angstrom
no_reorient  #important for SAPT in psi4, default
symmetry c1  #important for SAPT in psi4, default
}

set PROPERTIES_ORIGIN ["COM"]
properties('MP2/aug-cc-pvtz', properties = ['dipole'])
--------------------------------------------------------------------------

    Molecular point group: c1
  Charge       = 0
  Multiplicity = 1
  Basis Set: AUG-CC-PVTZ
    Blend: AUG-CC-PVTZ
  Basis Set: (AUG-CC-PVTZ AUX)
    Blend: AUG-CC-PVTZ-JKFIT

    Orbital Energies [Eh]
    ---------------------

    Doubly Occupied:

       1A    -20.672873     2A    -20.646911     3A    -20.573090
       4A    -11.406635     5A    -11.271739     6A    -11.245093
       7A    -11.230769     8A     -1.526760     9A     -1.400687
      10A     -1.263086    11A     -1.117705    12A     -0.954786
      13A     -0.891238    14A     -0.806475    15A     -0.736573
      16A     -0.688924    17A     -0.685731    18A     -0.646302
      19A     -0.616000    20A     -0.599529    21A     -0.594157
      22A     -0.566667    23A     -0.548883    24A     -0.538465
      25A     -0.529609    26A     -0.474768    27A     -0.472513
      28A     -0.441682

  @DF-RHF Final Energy:  -380.73902797915486

   => Energetics <=

    Nuclear Repulsion Energy =            321.1887091680093818
    One-Electron Energy =               -1157.5601746604500022
    Two-Electron Energy =                 455.6324375132857654
    Total Energy =                       -380.7390279791548551
  Basis Set: (AUG-CC-PVTZ AUX)
    Blend: AUG-CC-PVTZ-RI
    Molecular point group: c1

    Geometry (in Angstrom), charge = 0, multiplicity = 1:

       Center              X                  Y                   Z               Mass
    ------------   -----------------  -----------------  -----------------  -----------------
         O           -1.190560407268    -0.023059916390    -0.817425306052    15.994914619570
         O           -0.497303407268    -0.023088916390     1.339371693948    15.994914619570
         O           -2.520895407268    -0.023061916390    -0.215101306052    15.994914619570
         C            1.142455392732     0.176938083610    -0.468896506052    12.000000000000
         C            1.880051592732     1.244279083610    -0.029070306052    12.000000000000
         C            1.880074592732    -1.290396916390    -0.029098306052    12.000000000000
         C           -0.230320407268    -0.023073916390     0.145655693948    12.000000000000
         H            1.023249592732    -0.023050916390    -1.557452306052     1.007825032230
         H            1.960917592732     1.271514083610     1.060526693948     1.007825032230
         H            1.356486592732     2.144776083610    -0.361960306052     1.007825032230
         H            2.886474592732     1.254534083610    -0.456370306052     1.007825032230
         H            1.960926592732    -1.317663916390     1.060498693948     1.007825032230
         H            2.886504592732    -1.300613916390    -0.456381306052     1.007825032230
         H            1.356538592732    -2.190897916390    -0.362023306052     1.007825032230
         H           -2.266848407268    -0.023089916390     0.744684693948     1.007825032230

  Basis Set: AUG-CC-PVTZ
    Blend: AUG-CC-PVTZ
  Basis Set: (AUG-CC-PVTZ AUX)
    Blend: AUG-CC-PVTZ-JKFIT
	 Reference Energy          =    -380.7390279791548551 [Eh]
	 Singles Energy            =      -0.0000000000000000 [Eh]
	 Same-Spin Energy          =      -0.3718485480050234 [Eh]
	 Opposite-Spin Energy      =      -1.1796440474597027 [Eh]
	 Correlation Energy        =      -1.5514925954647261 [Eh]
	 Total Energy              =    -382.2905205746195634 [Eh]

	 ================> DF-SCS-MP2 Energies <==================
	-----------------------------------------------------------
	 SCS Same-Spin Scale       =       0.3333333333333333 [-]
	 SCS Opposite-Spin Scale   =       1.2000000000000000 [-]
	 SCS Same-Spin Energy      =      -0.1239495160016745 [Eh]
	 SCS Opposite-Spin Energy  =      -1.4155728569516433 [Eh]
	 SCS Correlation Energy    =      -1.5395223729533178 [Eh]
	 SCS Total Energy          =    -382.2785503521081978 [Eh]
	-----------------------------------------------------------

  Dipole Moment: [D]
     X:     2.6522      Y:     0.1189      Z:    -0.4230     Total:     2.6883

*** Psi4 exiting successfully. Buy a developer a beer!
