                               Psi4 1.3.2 release

  ==> Input File <==

--------------------------------------------------------------------------
#psi4
#
memory 32 gb

molecule  {
0 1
  O       -1.2892700     0.0000060    -0.8145290
  O       -0.5960130    -0.0000230     1.3422680
  O       -2.6196050     0.0000040    -0.2122050
  C        1.0437459     0.1000040    -0.4660016
  C        1.7813420     1.2673450    -0.0261740
  C        1.7813650    -1.2673310    -0.0262020
  C       -0.3290300    -0.0000080     0.1485520
  H        0.9245400     0.0000150    -1.5545560
  H        1.8622080     1.2945800     1.0634230
  H        1.2577770     2.1678420    -0.3590640
  H        2.7877650     1.2776000    -0.4534740
  H        1.8622170    -1.2945980     1.0633950
  H        2.7877950    -1.2775480    -0.4534850
  H        1.2578290    -2.1678320    -0.3591270
  H       -2.3655580    -0.0000240     0.7475810
units angstrom
no_reorient  #important for SAPT in psi4, default
symmetry c1  #important for SAPT in psi4, default
}

set PROPERTIES_ORIGIN ["COM"]
properties('MP2/aug-cc-pvtz', properties = ['dipole'])
--------------------------------------------------------------------------

    Molecular point group: c1
  Charge       = 0
  Multiplicity = 1
  Basis Set: AUG-CC-PVTZ
    Blend: AUG-CC-PVTZ
  Basis Set: (AUG-CC-PVTZ AUX)
    Blend: AUG-CC-PVTZ-JKFIT

    Orbital Energies [Eh]
    ---------------------

    Doubly Occupied:

       1A    -20.673127     2A    -20.646808     3A    -20.573578
       4A    -11.405538     5A    -11.268739     6A    -11.242597
       7A    -11.234836     8A     -1.526938     9A     -1.401041
      10A     -1.263285    11A     -1.108096    12A     -0.955528
      13A     -0.892426    14A     -0.807266    15A     -0.737559
      16A     -0.687872    17A     -0.685831    18A     -0.643298
      19A     -0.610969    20A     -0.597014    21A     -0.592217
      22A     -0.564614    23A     -0.543709    24A     -0.538062
      25A     -0.522139    26A     -0.481564    27A     -0.474272
      28A     -0.466199

  @DF-RHF Final Energy:  -380.76674739100133

   => Energetics <=

    Nuclear Repulsion Energy =            321.1836327896680245
    One-Electron Energy =               -1157.6105153421740397
    Two-Electron Energy =                 455.6601351615046269
    Total Energy =                       -380.7667473910013314
  Basis Set: (AUG-CC-PVTZ AUX)
    Blend: AUG-CC-PVTZ-RI
    Molecular point group: c1

    Geometry (in Angstrom), charge = 0, multiplicity = 1:

       Center              X                  Y                   Z               Mass
    ------------   -----------------  -----------------  -----------------  -----------------
         O           -1.190560418801    -0.011526705137    -0.817425144587    15.994914619570
         O           -0.497303418801    -0.011555705137     1.339371855413    15.994914619570
         O           -2.520895418801    -0.011528705137    -0.215101144587    15.994914619570
         C            1.142455481199     0.088471294863    -0.468897744587    12.000000000000
         C            1.880051581199     1.255812294863    -0.029070144587    12.000000000000
         C            1.880074581199    -1.278863705137    -0.029098144587    12.000000000000
         C           -0.230320418801    -0.011540705137     0.145655855413    12.000000000000
         H            1.023249581199    -0.011517705137    -1.557452144587     1.007825032230
         H            1.960917581199     1.283047294863     1.060526855413     1.007825032230
         H            1.356486581199     2.156309294863    -0.361960144587     1.007825032230
         H            2.886474581199     1.266067294863    -0.456370144587     1.007825032230
         H            1.960926581199    -1.306130705137     1.060498855413     1.007825032230
         H            2.886504581199    -1.289080705137    -0.456381144587     1.007825032230
         H            1.356538581199    -2.179364705137    -0.362023144587     1.007825032230
         H           -2.266848418801    -0.011556705137     0.744684855413     1.007825032230

  Basis Set: AUG-CC-PVTZ
    Blend: AUG-CC-PVTZ
  Basis Set: (AUG-CC-PVTZ AUX)
    Blend: AUG-CC-PVTZ-JKFIT
	 Reference Energy          =    -380.7667473910013314 [Eh]
	 Singles Energy            =      -0.0000000000000000 [Eh]
	 Same-Spin Energy          =      -0.3706135654351805 [Eh]
	 Opposite-Spin Energy      =      -1.1775587869064195 [Eh]
	 Correlation Energy        =      -1.5481723523416000 [Eh]
	 Total Energy              =    -382.3149197433429549 [Eh]

	 ================> DF-SCS-MP2 Energies <==================
	-----------------------------------------------------------
	 SCS Same-Spin Scale       =       0.3333333333333333 [-]
	 SCS Opposite-Spin Scale   =       1.2000000000000000 [-]
	 SCS Same-Spin Energy      =      -0.1235378551450602 [Eh]
	 SCS Opposite-Spin Energy  =      -1.4130705442877034 [Eh]
	 SCS Correlation Energy    =      -1.5366083994327635 [Eh]
	 SCS Total Energy          =    -382.3033557904340682 [Eh]
	-----------------------------------------------------------

  Dipole Moment: [D]
     X:     2.6319      Y:     0.0478      Z:    -0.4288     Total:     2.6670

*** Psi4 exiting successfully. Buy a developer a beer!
