                               Psi4 1.3.2 release

  ==> Input File <==

--------------------------------------------------------------------------
#psi4
#
memory 32 gb

molecule  {
0 1
  O       -1.2892700     0.0000060    -0.8145290
  O       -0.5960130    -0.0000230     1.3422680
  O       -2.6196050     0.0000040    -0.2122050
  C        1.0437460     0.0000040    -0.4660030
  C        1.7813420     1.2673450    -0.0261740
  C        1.7813650    -1.2673310    -0.0262020
  C       -0.3290300    -0.0000080     0.1485520
  H        0.9245400     0.0000150    -1.5545560
  H        1.8622080     1.2945800     1.0634230
  H        1.2577770     2.1678420    -0.3590640
  H        2.7877650     1.2776000    -0.4534740
  H        1.8622170    -1.2945980     1.0633950
  H        2.7877950    -1.2775480    -0.4534850
  H        1.2578290    -2.1678320    -0.3591270
  H       -2.3655580    -0.0000240     0.7475810
units angstrom
no_reorient  #important for SAPT in psi4, default
symmetry c1  #important for SAPT in psi4, default
}

set PROPERTIES_ORIGIN ["COM"]
properties('MP2/aug-cc-pvtz', properties = ['dipole'])
--------------------------------------------------------------------------

    Molecular point group: c1
  Charge       = 0
  Multiplicity = 1
  Basis Set: AUG-CC-PVTZ
    Blend: AUG-CC-PVTZ
  Basis Set: (AUG-CC-PVTZ AUX)
    Blend: AUG-CC-PVTZ-JKFIT

    Orbital Energies [Eh]
    ---------------------

    Doubly Occupied:

       1A    -20.673217     2A    -20.646780     3A    -20.573748
       4A    -11.405173     5A    -11.267741     6A    -11.238982
       7A    -11.238967     8A     -1.527003     9A     -1.401165
      10A     -1.263359    11A     -1.104941    12A     -0.955688
      13A     -0.892804    14A     -0.807536    15A     -0.737935
      16A     -0.687345    17A     -0.686109    18A     -0.642349
      19A     -0.609721    20A     -0.596471    21A     -0.591003
      22A     -0.563831    23A     -0.542281    24A     -0.538005
      25A     -0.504128    26A     -0.501570    27A     -0.474295
      28A     -0.472191

  @DF-RHF Final Energy:  -380.77578786953700

   => Energetics <=

    Nuclear Repulsion Energy =            321.1824309717262622
    One-Electron Energy =               -1157.6277635683509288
    Two-Electron Energy =                 455.6695447270876684
    Total Energy =                       -380.7757878695369982
  Basis Set: (AUG-CC-PVTZ AUX)
    Blend: AUG-CC-PVTZ-RI
    Molecular point group: c1

    Geometry (in Angstrom), charge = 0, multiplicity = 1:

       Center              X                  Y                   Z               Mass
    ------------   -----------------  -----------------  -----------------  -----------------
         O           -1.190560430334     0.000006506116    -0.817424983122    15.994914619570
         O           -0.497303430334    -0.000022493884     1.339372016878    15.994914619570
         O           -2.520895430334     0.000004506116    -0.215100983122    15.994914619570
         C            1.142455569666     0.000004506116    -0.468898983122    12.000000000000
         C            1.880051569666     1.267345506116    -0.029069983122    12.000000000000
         C            1.880074569666    -1.267330493884    -0.029097983122    12.000000000000
         C           -0.230320430334    -0.000007493884     0.145656016878    12.000000000000
         H            1.023249569666     0.000015506116    -1.557451983122     1.007825032230
         H            1.960917569666     1.294580506116     1.060527016878     1.007825032230
         H            1.356486569666     2.167842506116    -0.361959983122     1.007825032230
         H            2.886474569666     1.277600506116    -0.456369983122     1.007825032230
         H            1.960926569666    -1.294597493884     1.060499016878     1.007825032230
         H            2.886504569666    -1.277547493884    -0.456380983122     1.007825032230
         H            1.356538569666    -2.167831493884    -0.362022983122     1.007825032230
         H           -2.266848430334    -0.000023493884     0.744685016878     1.007825032230

  Basis Set: AUG-CC-PVTZ
    Blend: AUG-CC-PVTZ
  Basis Set: (AUG-CC-PVTZ AUX)
    Blend: AUG-CC-PVTZ-JKFIT
	 Reference Energy          =    -380.7757878695369982 [Eh]
	 Singles Energy            =      -0.0000000000000000 [Eh]
	 Same-Spin Energy          =      -0.3702058181371052 [Eh]
	 Opposite-Spin Energy      =      -1.1768667020905115 [Eh]
	 Correlation Energy        =      -1.5470725202276165 [Eh]
	 Total Energy              =    -382.3228603897646281 [Eh]

	 ================> DF-SCS-MP2 Energies <==================
	-----------------------------------------------------------
	 SCS Same-Spin Scale       =       0.3333333333333333 [-]
	 SCS Opposite-Spin Scale   =       1.2000000000000000 [-]
	 SCS Same-Spin Energy      =      -0.1234019393790351 [Eh]
	 SCS Opposite-Spin Energy  =      -1.4122400425086137 [Eh]
	 SCS Correlation Energy    =      -1.5356419818876488 [Eh]
	 SCS Total Energy          =    -382.3114298514246343 [Eh]
	-----------------------------------------------------------

  Dipole Moment: [D]
     X:     2.6247      Y:    -0.0000      Z:    -0.4308     Total:     2.6598

*** Psi4 exiting successfully. Buy a developer a beer!
