                               Psi4 1.3.2 release

  ==> Input File <==

--------------------------------------------------------------------------
#psi4
#
memory 32 gb

molecule  {
0 1
  O       -1.2892700     0.0000060    -0.8145290
  O       -0.5960130    -0.0000230     1.3422680
  O       -2.6196050     0.0000040    -0.2122050
  C        1.0437458     0.1500040    -0.4660009
  C        1.7813420     1.2673450    -0.0261740
  C        1.7813650    -1.2673310    -0.0262020
  C       -0.3290300    -0.0000080     0.1485520
  H        0.9245400     0.0000150    -1.5545560
  H        1.8622080     1.2945800     1.0634230
  H        1.2577770     2.1678420    -0.3590640
  H        2.7877650     1.2776000    -0.4534740
  H        1.8622170    -1.2945980     1.0633950
  H        2.7877950    -1.2775480    -0.4534850
  H        1.2578290    -2.1678320    -0.3591270
  H       -2.3655580    -0.0000240     0.7475810
units angstrom
no_reorient  #important for SAPT in psi4, default
symmetry c1  #important for SAPT in psi4, default
}

set PROPERTIES_ORIGIN ["COM"]
properties('MP2/aug-cc-pvtz', properties = ['dipole'])
--------------------------------------------------------------------------

    Molecular point group: c1
  Charge       = 0
  Multiplicity = 1
  Basis Set: AUG-CC-PVTZ
    Blend: AUG-CC-PVTZ
  Basis Set: (AUG-CC-PVTZ AUX)
    Blend: AUG-CC-PVTZ-JKFIT

    Orbital Energies [Eh]
    ---------------------

    Doubly Occupied:

       1A    -20.673018     2A    -20.646847     3A    -20.573371
       4A    -11.405995     5A    -11.269988     6A    -11.244028
       7A    -11.232755     8A     -1.526861     9A     -1.400891
      10A     -1.263198    11A     -1.112076    12A     -0.955265
      13A     -0.891940    14A     -0.806933    15A     -0.737123
      16A     -0.688354    17A     -0.685709    18A     -0.644522
      19A     -0.612837    20A     -0.597963    21A     -0.593312
      22A     -0.565537    23A     -0.545937    24A     -0.538213
      25A     -0.527429    26A     -0.476468    27A     -0.474066
      28A     -0.455509

  @DF-RHF Final Energy:  -380.75530440964724

   => Energetics <=

    Nuclear Repulsion Energy =            321.1854865439785840
    One-Electron Energy =               -1157.5892913996603966
    Two-Electron Energy =                 455.6485004460345181
    Total Energy =                       -380.7553044096472377
  Basis Set: (AUG-CC-PVTZ AUX)
    Blend: AUG-CC-PVTZ-RI
    Molecular point group: c1

    Geometry (in Angstrom), charge = 0, multiplicity = 1:

       Center              X                  Y                   Z               Mass
    ------------   -----------------  -----------------  -----------------  -----------------
         O           -1.190560407268    -0.017293310763    -0.817425225319    15.994914619570
         O           -0.497303407268    -0.017322310763     1.339371774681    15.994914619570
         O           -2.520895407268    -0.017295310763    -0.215101225319    15.994914619570
         C            1.142455392732     0.132704689237    -0.468897125319    12.000000000000
         C            1.880051592732     1.250045689237    -0.029070225319    12.000000000000
         C            1.880074592732    -1.284630310763    -0.029098225319    12.000000000000
         C           -0.230320407268    -0.017307310763     0.145655774681    12.000000000000
         H            1.023249592732    -0.017284310763    -1.557452225319     1.007825032230
         H            1.960917592732     1.277280689237     1.060526774681     1.007825032230
         H            1.356486592732     2.150542689237    -0.361960225319     1.007825032230
         H            2.886474592732     1.260300689237    -0.456370225319     1.007825032230
         H            1.960926592732    -1.311897310763     1.060498774681     1.007825032230
         H            2.886504592732    -1.294847310763    -0.456381225319     1.007825032230
         H            1.356538592732    -2.185131310763    -0.362023225319     1.007825032230
         H           -2.266848407268    -0.017323310763     0.744684774681     1.007825032230

  Basis Set: AUG-CC-PVTZ
    Blend: AUG-CC-PVTZ
  Basis Set: (AUG-CC-PVTZ AUX)
    Blend: AUG-CC-PVTZ-JKFIT
	 Reference Energy          =    -380.7553044096472377 [Eh]
	 Singles Energy            =      -0.0000000000000000 [Eh]
	 Same-Spin Energy          =      -0.3711262150637583 [Eh]
	 Opposite-Spin Energy      =      -1.1784266161508523 [Eh]
	 Correlation Energy        =      -1.5495528312146105 [Eh]
	 Total Energy              =    -382.3048572408618497 [Eh]

	 ================> DF-SCS-MP2 Energies <==================
	-----------------------------------------------------------
	 SCS Same-Spin Scale       =       0.3333333333333333 [-]
	 SCS Opposite-Spin Scale   =       1.2000000000000000 [-]
	 SCS Same-Spin Energy      =      -0.1237087383545861 [Eh]
	 SCS Opposite-Spin Energy  =      -1.4141119393810226 [Eh]
	 SCS Correlation Energy    =      -1.5378206777356087 [Eh]
	 SCS Total Energy          =    -382.2931250873828617 [Eh]
	-----------------------------------------------------------

  Dipole Moment: [D]
     X:     2.6405      Y:     0.0789      Z:    -0.4263     Total:     2.6759

*** Psi4 exiting successfully. Buy a developer a beer!
