                               Psi4 1.3.2 release

  ==> Input File <==

--------------------------------------------------------------------------
#psi4
#
memory 32 gb

molecule  {
0 1
  O       -1.2892700     0.0000060    -0.8145290
  O       -0.5960130    -0.0000230     1.3422680
  O       -2.6196050     0.0000040    -0.2122050
  C        1.0437459     0.0500040    -0.4660023
  C        1.7813420     1.2673450    -0.0261740
  C        1.7813650    -1.2673310    -0.0262020
  C       -0.3290300    -0.0000080     0.1485520
  H        0.9245400     0.0000150    -1.5545560
  H        1.8622080     1.2945800     1.0634230
  H        1.2577770     2.1678420    -0.3590640
  H        2.7877650     1.2776000    -0.4534740
  H        1.8622170    -1.2945980     1.0633950
  H        2.7877950    -1.2775480    -0.4534850
  H        1.2578290    -2.1678320    -0.3591270
  H       -2.3655580    -0.0000240     0.7475810
units angstrom
no_reorient  #important for SAPT in psi4, default
symmetry c1  #important for SAPT in psi4, default
}

set PROPERTIES_ORIGIN ["COM"]
properties('MP2/aug-cc-pvtz', properties = ['dipole'])
--------------------------------------------------------------------------

    Molecular point group: c1
  Charge       = 0
  Multiplicity = 1
  Basis Set: AUG-CC-PVTZ
    Blend: AUG-CC-PVTZ
  Basis Set: (AUG-CC-PVTZ AUX)
    Blend: AUG-CC-PVTZ-JKFIT

    Orbital Energies [Eh]
    ---------------------

    Doubly Occupied:

       1A    -20.673194     2A    -20.646786     3A    -20.573705
       4A    -11.405264     5A    -11.267990     6A    -11.240887
       7A    -11.236934     8A     -1.526986     9A     -1.401134
      10A     -1.263340    11A     -1.105727    12A     -0.955652
      13A     -0.892710    14A     -0.807468    15A     -0.737839
      16A     -0.687502    17A     -0.686012    18A     -0.642584
      19A     -0.610013    20A     -0.596589    21A     -0.591330
      22A     -0.564029    23A     -0.542593    24A     -0.538012
      25A     -0.513648    26A     -0.491243    27A     -0.474301
      28A     -0.471057

  @DF-RHF Final Energy:  -380.77353743524412

   => Energetics <=

    Nuclear Repulsion Energy =            321.1827090268740790
    One-Electron Energy =               -1157.6234315661520213
    Two-Electron Energy =                 455.6671851040337629
    Total Energy =                       -380.7735374352441227
  Basis Set: (AUG-CC-PVTZ AUX)
    Blend: AUG-CC-PVTZ-RI
    Molecular point group: c1

    Geometry (in Angstrom), charge = 0, multiplicity = 1:

       Center              X                  Y                   Z               Mass
    ------------   -----------------  -----------------  -----------------  -----------------
         O           -1.190560418801    -0.005760099511    -0.817425063855    15.994914619570
         O           -0.497303418801    -0.005789099511     1.339371936145    15.994914619570
         O           -2.520895418801    -0.005762099511    -0.215101063855    15.994914619570
         C            1.142455481199     0.044237900489    -0.468898363855    12.000000000000
         C            1.880051581199     1.261578900489    -0.029070063855    12.000000000000
         C            1.880074581199    -1.273097099511    -0.029098063855    12.000000000000
         C           -0.230320418801    -0.005774099511     0.145655936145    12.000000000000
         H            1.023249581199    -0.005751099511    -1.557452063855     1.007825032230
         H            1.960917581199     1.288813900489     1.060526936145     1.007825032230
         H            1.356486581199     2.162075900489    -0.361960063855     1.007825032230
         H            2.886474581199     1.271833900489    -0.456370063855     1.007825032230
         H            1.960926581199    -1.300364099511     1.060498936145     1.007825032230
         H            2.886504581199    -1.283314099511    -0.456381063855     1.007825032230
         H            1.356538581199    -2.173598099511    -0.362023063855     1.007825032230
         H           -2.266848418801    -0.005790099511     0.744684936145     1.007825032230

  Basis Set: AUG-CC-PVTZ
    Blend: AUG-CC-PVTZ
  Basis Set: (AUG-CC-PVTZ AUX)
    Blend: AUG-CC-PVTZ-JKFIT
	 Reference Energy          =    -380.7735374352441227 [Eh]
	 Singles Energy            =      -0.0000000000000000 [Eh]
	 Same-Spin Energy          =      -0.3703075390048918 [Eh]
	 Opposite-Spin Energy      =      -1.1770394905491162 [Eh]
	 Correlation Energy        =      -1.5473470295540079 [Eh]
	 Total Energy              =    -382.3208844647981550 [Eh]

	 ================> DF-SCS-MP2 Energies <==================
	-----------------------------------------------------------
	 SCS Same-Spin Scale       =       0.3333333333333333 [-]
	 SCS Opposite-Spin Scale   =       1.2000000000000000 [-]
	 SCS Same-Spin Energy      =      -0.1234358463349639 [Eh]
	 SCS Opposite-Spin Energy  =      -1.4124473886589393 [Eh]
	 SCS Correlation Energy    =      -1.5358832349939031 [Eh]
	 SCS Total Energy          =    -382.3094206702380120 [Eh]
	-----------------------------------------------------------

  Dipole Moment: [D]
     X:     2.6265      Y:     0.0225      Z:    -0.4303     Total:     2.6616

*** Psi4 exiting successfully. Buy a developer a beer!
