                               Psi4 1.3.2 release

  ==> Input File <==

--------------------------------------------------------------------------
#psi4
#
memory 32 gb

molecule  {
0 1
  S       -0.7380000    -0.0680220    -0.3640970
  O       -1.0349290     0.9233401    -1.4005278
  O       -0.9666500    -1.4966470    -0.5970260
  N        0.8554459     0.0616879     0.0889824
  C        1.3822580     1.4387740     0.2709440
  C        1.4230980    -0.9933220     0.9046550
  C       -1.6975890     0.4015790     1.0774410
  C        2.8090910     1.5534440    -0.2422640
  C        2.2024570    -1.9997400     0.0750250
  C       -3.1888920     0.2878700     0.7901350
  H        0.7441850     2.1234290    -0.2885820
  H        1.3352270     1.7155400     1.3356310
  H        2.0636810    -0.5196560     1.6565250
  H        0.6239660    -1.5103280     1.4462590
  H       -1.3901500    -0.2576530     1.8936760
  H       -1.4092710     1.4273450     1.3241250
  H        3.4861350     0.8840910     0.2940530
  H        2.8396270     1.3037350    -1.3040650
  H        3.1732700     2.5763490    -0.1082090
  H        1.5321020    -2.4670540    -0.6475950
  H        3.0150810    -1.5100200    -0.4652590
  H        2.6275220    -2.7764500     0.7187370
  H       -3.7600990     0.5807950     1.6744350
  H       -3.4644480     0.9408190    -0.0387940
  H       -3.4474850    -0.7394320     0.5291400
units angstrom
no_reorient  #important for SAPT in psi4, default
symmetry c1  #important for SAPT in psi4, default
}

set PROPERTIES_ORIGIN ["COM"]
properties('MP2/aug-cc-pvtz', properties = ['dipole'])
--------------------------------------------------------------------------

    Molecular point group: c1
  Charge       = 0
  Multiplicity = 1
  Basis Set: AUG-CC-PVTZ
    Blend: AUG-CC-PVTZ
  Basis Set: (AUG-CC-PVTZ AUX)
    Blend: AUG-CC-PVTZ-JKFIT

    Orbital Energies [Eh]
    ---------------------

    Doubly Occupied:

       1A    -92.191020     2A    -20.540851     3A    -20.536565
       4A    -15.593837     5A    -11.279398     6A    -11.274473
       7A    -11.274349     8A    -11.235986     9A    -11.229378
      10A    -11.215435    11A     -9.156651    12A     -6.841751
      13A     -6.841008    14A     -6.840905    15A     -1.443933
      16A     -1.326636    17A     -1.251077    18A     -1.077572
      19A     -1.047520    20A     -1.010380    21A     -0.915977
      22A     -0.871413    23A     -0.857586    24A     -0.773838
      25A     -0.720380    26A     -0.671726    27A     -0.667142
      28A     -0.651084    29A     -0.643213    30A     -0.612107
      31A     -0.598681    32A     -0.579723    33A     -0.571810
      34A     -0.549773    35A     -0.544006    36A     -0.540728
      37A     -0.526244    38A     -0.519874    39A     -0.512879
      40A     -0.500473    41A     -0.489375    42A     -0.484778
      43A     -0.460224    44A     -0.445578    45A     -0.394729

  @DF-RHF Final Energy:  -837.77615905867344

   => Energetics <=

    Nuclear Repulsion Energy =            743.4740300912881139
    One-Electron Energy =               -2625.8762430291749297
    Two-Electron Energy =                1044.6260538792132593
    Total Energy =                       -837.7761590586735565
  Basis Set: (AUG-CC-PVTZ AUX)
    Blend: AUG-CC-PVTZ-RI
    Molecular point group: c1

    Geometry (in Angstrom), charge = 0, multiplicity = 1:

       Center              X                  Y                   Z               Mass
    ------------   -----------------  -----------------  -----------------  -----------------
         S           -0.735366028979    -0.065403023530    -0.365602041672    31.972071174400
         O           -1.032295028979     0.925959076470    -1.402032841672    15.994914619570
         O           -0.964016028979    -1.494028023530    -0.598531041672    15.994914619570
         N            0.858079871021     0.064306876470     0.087477358328    14.003074004430
         C            1.384891971021     1.441392976470     0.269438958328    12.000000000000
         C            1.425731971021    -0.990703023530     0.903149958328    12.000000000000
         C           -1.694955028979     0.404197976470     1.075935958328    12.000000000000
         C            2.811724971021     1.556062976470    -0.243769041672    12.000000000000
         C            2.205090971021    -1.997121023530     0.073519958328    12.000000000000
         C           -3.186258028979     0.290488976470     0.788629958328    12.000000000000
         H            0.746818971021     2.126047976470    -0.290087041672     1.007825032230
         H            1.337860971021     1.718158976470     1.334125958328     1.007825032230
         H            2.066314971021    -0.517037023530     1.655019958328     1.007825032230
         H            0.626599971021    -1.507709023530     1.444753958328     1.007825032230
         H           -1.387516028979    -0.255034023530     1.892170958328     1.007825032230
         H           -1.406637028979     1.429963976470     1.322619958328     1.007825032230
         H            3.488768971021     0.886709976470     0.292547958328     1.007825032230
         H            2.842260971021     1.306353976470    -1.305570041672     1.007825032230
         H            3.175903971021     2.578967976470    -0.109714041672     1.007825032230
         H            1.534735971021    -2.464435023530    -0.649100041672     1.007825032230
         H            3.017714971021    -1.507401023530    -0.466764041672     1.007825032230
         H            2.630155971021    -2.773831023530     0.717231958328     1.007825032230
         H           -3.757465028979     0.583413976470     1.672929958328     1.007825032230
         H           -3.461814028979     0.943437976470    -0.040299041672     1.007825032230
         H           -3.444851028979    -0.736813023530     0.527634958328     1.007825032230

  Basis Set: AUG-CC-PVTZ
    Blend: AUG-CC-PVTZ
  Basis Set: (AUG-CC-PVTZ AUX)
    Blend: AUG-CC-PVTZ-JKFIT
	 Reference Energy          =    -837.7761590586734428 [Eh]
	 Singles Energy            =      -0.0000000000000000 [Eh]
	 Same-Spin Energy          =      -0.5167747727920341 [Eh]
	 Opposite-Spin Energy      =      -1.6696733784215003 [Eh]
	 Correlation Energy        =      -2.1864481512135345 [Eh]
	 Total Energy              =    -839.9626072098869827 [Eh]

	 ================> DF-SCS-MP2 Energies <==================
	-----------------------------------------------------------
	 SCS Same-Spin Scale       =       0.3333333333333333 [-]
	 SCS Opposite-Spin Scale   =       1.2000000000000000 [-]
	 SCS Same-Spin Energy      =      -0.1722582575973447 [Eh]
	 SCS Opposite-Spin Energy  =      -2.0036080541058001 [Eh]
	 SCS Correlation Energy    =      -2.1758663117031447 [Eh]
	 SCS Total Energy          =    -839.9520253703765320 [Eh]
	-----------------------------------------------------------

  Dipole Moment: [D]
     X:     1.6762      Y:     1.5545      Z:     4.2675     Total:     4.8412

*** Psi4 exiting successfully. Buy a developer a beer!
