                               Psi4 1.4a3.dev225

  ==> Input File <==

--------------------------------------------------------------------------
#psi4
#
memory 32 gb

molecule  {
0 1
  S        0.7616280     0.0424770    -0.4366460
  O        1.0024240    -1.0592090    -1.3727360
  O        0.9495440     1.4436620    -0.8249950
  N       -0.8076120    -0.0882160     0.0931460
  C       -1.3185710    -1.4233650     0.4283730
  C       -1.3686840     1.0652840     0.8208400
  C        1.8349266    -0.2627910     1.0351371
  C       -2.7505920    -1.6006810    -0.0558370
  C       -2.1814690     1.9714470    -0.0911900
  C        3.2787560    -0.1326200     0.6229570
  H       -0.6761480    -2.1530350    -0.0688350
  H       -1.2569730    -1.5943860     1.5141500
  H       -1.9866060     0.6632120     1.6319710
  H       -0.5646970     1.6429440     1.2905320
  H        1.5186250     0.4781900     1.7554980
  H        1.5601880    -1.2573080     1.3582850
  H       -3.4295210    -0.8918450     0.4253230
  H       -2.7963610    -1.4499180    -1.1363750
  H       -3.1014500    -2.6111540     0.1760480
  H       -1.5338360     2.3728670    -0.8718090
  H       -2.9953600     1.4152720    -0.5615490
  H       -2.6084920     2.8033720     0.4789350
  H        3.8991710    -0.3169240     1.5035790
  H        3.5375790    -0.8611900    -0.1476860
  H        3.4935140     0.8689240     0.2454810
units angstrom
no_reorient  #important for SAPT in psi4, default
symmetry c1  #important for SAPT in psi4, default
}

set PROPERTIES_ORIGIN ["COM"]
properties('MP2/aug-cc-pvtz', properties = ['dipole'])
--------------------------------------------------------------------------

    Molecular point group: c1
  Charge       = 0
  Multiplicity = 1
  Basis Set: AUG-CC-PVTZ
    Blend: AUG-CC-PVTZ
  Basis Set: (AUG-CC-PVTZ AUX)
    Blend: AUG-CC-PVTZ-JKFIT

    Orbital Energies [Eh]
    ---------------------

    Doubly Occupied:

       1A    -92.189436     2A    -20.538908     3A    -20.538674
       4A    -15.592736     5A    -11.276704     6A    -11.276395
       7A    -11.276187     8A    -11.235648     9A    -11.227786
      10A    -11.216074    11A     -9.154816    12A     -6.839877
      13A     -6.839143    14A     -6.838937    15A     -1.441490
      16A     -1.326264    17A     -1.247041    18A     -1.076808
      19A     -1.045468    20A     -1.009350    21A     -0.911772
      22A     -0.869473    23A     -0.857711    24A     -0.774072
      25A     -0.717195    26A     -0.670014    27A     -0.666374
      28A     -0.653002    29A     -0.639016    30A     -0.612500
      31A     -0.599403    32A     -0.577615    33A     -0.571029
      34A     -0.553935    35A     -0.545200    36A     -0.541876
      37A     -0.527843    38A     -0.519499    39A     -0.512439
      40A     -0.497677    41A     -0.488736    42A     -0.484510
      43A     -0.460697    44A     -0.439534    45A     -0.391695

  @DF-RHF Final Energy:  -837.77472287073124

   => Energetics <=

    Nuclear Repulsion Energy =            741.6626300957356079
    One-Electron Energy =               -2622.3335881276393593
    Two-Electron Energy =                1042.8962351611726262
    Total Energy =                       -837.7747228707312388
  Basis Set: (AUG-CC-PVTZ AUX)
    Blend: AUG-CC-PVTZ-RI
    Molecular point group: c1

    Geometry (in Angstrom), charge = 0, multiplicity = 1:

       Center              X                  Y                   Z               Mass
    ------------   -----------------  -----------------  -----------------  -----------------
         S            0.718006988241     0.037743529328    -0.394047034048    31.972071174400
         O            0.958802988241    -1.063942470672    -1.330137034048    15.994914619570
         O            0.905922988241     1.438928529328    -0.782396034048    15.994914619570
         N           -0.851233011759    -0.092949470672     0.135744965952    14.003074004430
         C           -1.362192011759    -1.428098470672     0.470971965952    12.000000000000
         C           -1.412305011759     1.060550529328     0.863438965952    12.000000000000
         C            1.791305588241    -0.267524470672     1.077736065952    12.000000000000
         C           -2.794213011759    -1.605414470672    -0.013238034048    12.000000000000
         C           -2.225090011759     1.966713529328    -0.048591034048    12.000000000000
         C            3.235134988241    -0.137353470672     0.665555965952    12.000000000000
         H           -0.719769011759    -2.157768470672    -0.026236034048     1.007825032230
         H           -1.300594011759    -1.599119470672     1.556748965952     1.007825032230
         H           -2.030227011759     0.658478529328     1.674569965952     1.007825032230
         H           -0.608318011759     1.638210529328     1.333130965952     1.007825032230
         H            1.475003988241     0.473456529328     1.798096965952     1.007825032230
         H            1.516566988241    -1.262041470672     1.400883965952     1.007825032230
         H           -3.473142011759    -0.896578470672     0.467921965952     1.007825032230
         H           -2.839982011759    -1.454651470672    -1.093776034048     1.007825032230
         H           -3.145071011759    -2.615887470672     0.218646965952     1.007825032230
         H           -1.577457011759     2.368133529328    -0.829210034048     1.007825032230
         H           -3.038981011759     1.410538529328    -0.518950034048     1.007825032230
         H           -2.652113011759     2.798638529328     0.521533965952     1.007825032230
         H            3.855549988241    -0.321657470672     1.546177965952     1.007825032230
         H            3.493957988241    -0.865923470672    -0.105087034048     1.007825032230
         H            3.449892988241     0.864190529328     0.288079965952     1.007825032230

  Basis Set: AUG-CC-PVTZ
    Blend: AUG-CC-PVTZ
  Basis Set: (AUG-CC-PVTZ AUX)
    Blend: AUG-CC-PVTZ-JKFIT
	 Reference Energy          =    -837.7747228707312388 [Eh]
	 Singles Energy            =      -0.0000000000000000 [Eh]
	 Same-Spin Energy          =      -0.5167357697833663 [Eh]
	 Opposite-Spin Energy      =      -1.6700644984138617 [Eh]
	 Correlation Energy        =      -2.1868002681972278 [Eh]
	 Total Energy              =    -839.9615231389284418 [Eh]

	 ================> DF-SCS-MP2 Energies <==================
	-----------------------------------------------------------
	 SCS Same-Spin Scale       =       0.3333333333333333 [-]
	 SCS Opposite-Spin Scale   =       1.2000000000000000 [-]
	 SCS Same-Spin Energy      =      -0.1722452565944554 [Eh]
	 SCS Opposite-Spin Energy  =      -2.0040773980966340 [Eh]
	 SCS Correlation Energy    =      -2.1763226546910892 [Eh]
	 SCS Total Energy          =    -839.9510455254222734 [Eh]
	-----------------------------------------------------------

  Dipole Moment: [D]
     X:    -1.4039      Y:    -0.9852      Z:     4.4210     Total:     4.7420

*** Psi4 exiting successfully. Buy a developer a beer!
