                               Psi4 1.3.2 release

  ==> Input File <==

--------------------------------------------------------------------------
#psi4
#
memory 32 gb

molecule  {
0 1
  S       -0.7380000    -0.0680220    -0.3640970
  O       -1.0107130     0.9314480    -1.3993950
  O       -0.9666500    -1.4966470    -0.5970260
  N        0.8588360     0.0833010     0.0699440
  C        1.3108917     1.2539612     0.2435385
  C        1.4230980    -0.9933220     0.9046550
  C       -1.6975890     0.4015790     1.0774410
  C        2.8090910     1.5534440    -0.2422640
  C        2.2024570    -1.9997400     0.0750250
  C       -3.1888920     0.2878700     0.7901350
  H        0.7441850     2.1234290    -0.2885820
  H        1.3352270     1.7155400     1.3356310
  H        2.0636810    -0.5196560     1.6565250
  H        0.6239660    -1.5103280     1.4462590
  H       -1.3901500    -0.2576530     1.8936760
  H       -1.4092710     1.4273450     1.3241250
  H        3.4861350     0.8840910     0.2940530
  H        2.8396270     1.3037350    -1.3040650
  H        3.1732700     2.5763490    -0.1082090
  H        1.5321020    -2.4670540    -0.6475950
  H        3.0150810    -1.5100200    -0.4652590
  H        2.6275220    -2.7764500     0.7187370
  H       -3.7600990     0.5807950     1.6744350
  H       -3.4644480     0.9408190    -0.0387940
  H       -3.4474850    -0.7394320     0.5291400
units angstrom
no_reorient  #important for SAPT in psi4, default
symmetry c1  #important for SAPT in psi4, default
}

set PROPERTIES_ORIGIN ["COM"]
properties('MP2/aug-cc-pvtz', properties = ['dipole'])
--------------------------------------------------------------------------

    Molecular point group: c1
  Charge       = 0
  Multiplicity = 1
  Basis Set: AUG-CC-PVTZ
    Blend: AUG-CC-PVTZ
  Basis Set: (AUG-CC-PVTZ AUX)
    Blend: AUG-CC-PVTZ-JKFIT

    Orbital Energies [Eh]
    ---------------------

    Doubly Occupied:

       1A    -92.197694     2A    -20.544958     3A    -20.544422
       4A    -15.599098     5A    -11.282438     6A    -11.279769
       7A    -11.276777     8A    -11.240334     9A    -11.224325
      10A    -11.221046    11A     -9.163853    12A     -6.849034
      13A     -6.848041    14A     -6.847966    15A     -1.453522
      16A     -1.332949    17A     -1.306619    18A     -1.083017
      19A     -1.049626    20A     -1.000311    21A     -0.926083
      22A     -0.881188    23A     -0.864725    24A     -0.774018
      25A     -0.737224    26A     -0.679482    27A     -0.675636
      28A     -0.660856    29A     -0.640122    30A     -0.616007
      31A     -0.614599    32A     -0.575146    33A     -0.570342
      34A     -0.553639    35A     -0.548899    36A     -0.540931
      37A     -0.530322    38A     -0.520164    39A     -0.507187
      40A     -0.497048    41A     -0.493669    42A     -0.480242
      43A     -0.460294    44A     -0.442083    45A     -0.378940

  @DF-RHF Final Energy:  -837.72903673952067

   => Energetics <=

    Nuclear Repulsion Energy =            747.9941301083625831
    One-Electron Energy =               -2634.4170459538822797
    Two-Electron Energy =                1048.6938791059988034
    Total Energy =                       -837.7290367395207795
  Basis Set: (AUG-CC-PVTZ AUX)
    Blend: AUG-CC-PVTZ-RI
    Molecular point group: c1

    Geometry (in Angstrom), charge = 0, multiplicity = 1:

       Center              X                  Y                   Z               Mass
    ------------   -----------------  -----------------  -----------------  -----------------
         S           -0.732812207043    -0.054587702606    -0.362104738143    31.972071174400
         O           -1.005525207043     0.944882297394    -1.397402738143    15.994914619570
         O           -0.961462207043    -1.483212702606    -0.595033738143    15.994914619570
         N            0.864023792957     0.096735297394     0.071936261857    14.003074004430
         C            1.316079492957     1.267395497394     0.245530761857    12.000000000000
         C            1.428285792957    -0.979887702606     0.906647261857    12.000000000000
         C           -1.692401207043     0.415013297394     1.079433261857    12.000000000000
         C            2.814278792957     1.566878297394    -0.240271738143    12.000000000000
         C            2.207644792957    -1.986305702606     0.077017261857    12.000000000000
         C           -3.183704207043     0.301304297394     0.792127261857    12.000000000000
         H            0.749372792957     2.136863297394    -0.286589738143     1.007825032230
         H            1.340414792957     1.728974297394     1.337623261857     1.007825032230
         H            2.068868792957    -0.506221702606     1.658517261857     1.007825032230
         H            0.629153792957    -1.496893702606     1.448251261857     1.007825032230
         H           -1.384962207043    -0.244218702606     1.895668261857     1.007825032230
         H           -1.404083207043     1.440779297394     1.326117261857     1.007825032230
         H            3.491322792957     0.897525297394     0.296045261857     1.007825032230
         H            2.844814792957     1.317169297394    -1.302072738143     1.007825032230
         H            3.178457792957     2.589783297394    -0.106216738143     1.007825032230
         H            1.537289792957    -2.453619702606    -0.645602738143     1.007825032230
         H            3.020268792957    -1.496585702606    -0.463266738143     1.007825032230
         H            2.632709792957    -2.763015702606     0.720729261857     1.007825032230
         H           -3.754911207043     0.594229297394     1.676427261857     1.007825032230
         H           -3.459260207043     0.954253297394    -0.036801738143     1.007825032230
         H           -3.442297207043    -0.725997702606     0.531132261857     1.007825032230

  Basis Set: AUG-CC-PVTZ
    Blend: AUG-CC-PVTZ
  Basis Set: (AUG-CC-PVTZ AUX)
    Blend: AUG-CC-PVTZ-JKFIT
	 Reference Energy          =    -837.7290367395206658 [Eh]
	 Singles Energy            =      -0.0000000000000000 [Eh]
	 Same-Spin Energy          =      -0.5195693704015945 [Eh]
	 Opposite-Spin Energy      =      -1.6727752740109731 [Eh]
	 Correlation Energy        =      -2.1923446444125676 [Eh]
	 Total Energy              =    -839.9213813839331806 [Eh]

	 ================> DF-SCS-MP2 Energies <==================
	-----------------------------------------------------------
	 SCS Same-Spin Scale       =       0.3333333333333333 [-]
	 SCS Opposite-Spin Scale   =       1.2000000000000000 [-]
	 SCS Same-Spin Energy      =      -0.1731897901338648 [Eh]
	 SCS Opposite-Spin Energy  =      -2.0073303288131679 [Eh]
	 SCS Correlation Energy    =      -2.1805201189470327 [Eh]
	 SCS Total Energy          =    -839.9095568584676812 [Eh]
	-----------------------------------------------------------

  Dipole Moment: [D]
     X:     1.0955      Y:     0.8492      Z:     4.1299     Total:     4.3563

*** Psi4 exiting successfully. Buy a developer a beer!
