                               Psi4 1.3.2 release

  ==> Input File <==

--------------------------------------------------------------------------
#psi4
#
memory 32 gb

molecule  {
0 1
  S       -0.7380000    -0.0680220    -0.3640970
  O       -1.0830823     0.9062211    -1.4018461
  O       -0.9666500    -1.4966470    -0.5970260
  N        0.8472108     0.0183497     0.1266394
  C        1.3822580     1.4387740     0.2709440
  C        1.4230980    -0.9933220     0.9046550
  C       -1.6975890     0.4015790     1.0774410
  C        2.8090910     1.5534440    -0.2422640
  C        2.2024570    -1.9997400     0.0750250
  C       -3.1888920     0.2878700     0.7901350
  H        0.7441850     2.1234290    -0.2885820
  H        1.3352270     1.7155400     1.3356310
  H        2.0636810    -0.5196560     1.6565250
  H        0.6239660    -1.5103280     1.4462590
  H       -1.3901500    -0.2576530     1.8936760
  H       -1.4092710     1.4273450     1.3241250
  H        3.4861350     0.8840910     0.2940530
  H        2.8396270     1.3037350    -1.3040650
  H        3.1732700     2.5763490    -0.1082090
  H        1.5321020    -2.4670540    -0.6475950
  H        3.0150810    -1.5100200    -0.4652590
  H        2.6275220    -2.7764500     0.7187370
  H       -3.7600990     0.5807950     1.6744350
  H       -3.4644480     0.9408190    -0.0387940
  H       -3.4474850    -0.7394320     0.5291400
units angstrom
no_reorient  #important for SAPT in psi4, default
symmetry c1  #important for SAPT in psi4, default
}

set PROPERTIES_ORIGIN ["COM"]
properties('MP2/aug-cc-pvtz', properties = ['dipole'])
--------------------------------------------------------------------------

    Molecular point group: c1
  Charge       = 0
  Multiplicity = 1
  Basis Set: AUG-CC-PVTZ
    Blend: AUG-CC-PVTZ
  Basis Set: (AUG-CC-PVTZ AUX)
    Blend: AUG-CC-PVTZ-JKFIT

    Orbital Energies [Eh]
    ---------------------

    Doubly Occupied:

       1A    -92.191641     2A    -20.544749     3A    -20.532328
       4A    -15.594192     5A    -11.285257     6A    -11.272583
       7A    -11.270538     8A    -11.234346     9A    -11.232344
      10A    -11.213576    11A     -9.157137    12A     -6.842295
      13A     -6.841476    14A     -6.841364    15A     -1.444153
      16A     -1.326002    17A     -1.256202    18A     -1.076339
      19A     -1.049708    20A     -1.010703    21A     -0.916500
      22A     -0.874218    23A     -0.857933    24A     -0.772617
      25A     -0.720326    26A     -0.673277    27A     -0.667089
      28A     -0.651717    29A     -0.645611    30A     -0.612429
      31A     -0.595875    32A     -0.584443    33A     -0.571027
      34A     -0.549673    35A     -0.543726    36A     -0.540597
      37A     -0.524987    38A     -0.520775    39A     -0.514891
      40A     -0.504926    41A     -0.489193    42A     -0.482290
      43A     -0.459565    44A     -0.443370    45A     -0.391861

  @DF-RHF Final Energy:  -837.76894162576525

   => Energetics <=

    Nuclear Repulsion Energy =            743.4559123079127403
    One-Electron Energy =               -2625.7980082752901581
    Two-Electron Energy =                1044.5731543416120530
    Total Energy =                       -837.7689416257653647
  Basis Set: (AUG-CC-PVTZ AUX)
    Blend: AUG-CC-PVTZ-RI
    Molecular point group: c1

    Geometry (in Angstrom), charge = 0, multiplicity = 1:

       Center              X                  Y                   Z               Mass
    ------------   -----------------  -----------------  -----------------  -----------------
         S           -0.730001890188    -0.060068201450    -0.368668557639    31.972071174400
         O           -1.075084190188     0.914174898550    -1.406417657639    15.994914619570
         O           -0.958651890188    -1.488693201450    -0.601597557639    15.994914619570
         N            0.855208909812     0.026303498550     0.122067842361    14.003074004430
         C            1.390256109812     1.446727798550     0.266372442361    12.000000000000
         C            1.431096109812    -0.985368201450     0.900083442361    12.000000000000
         C           -1.689590890188     0.409532798550     1.072869442361    12.000000000000
         C            2.817089109812     1.561397798550    -0.246835557639    12.000000000000
         C            2.210455109812    -1.991786201450     0.070453442361    12.000000000000
         C           -3.180893890188     0.295823798550     0.785563442361    12.000000000000
         H            0.752183109812     2.131382798550    -0.293153557639     1.007825032230
         H            1.343225109812     1.723493798550     1.331059442361     1.007825032230
         H            2.071679109812    -0.511702201450     1.651953442361     1.007825032230
         H            0.631964109812    -1.502374201450     1.441687442361     1.007825032230
         H           -1.382151890188    -0.249699201450     1.889104442361     1.007825032230
         H           -1.401272890188     1.435298798550     1.319553442361     1.007825032230
         H            3.494133109812     0.892044798550     0.289481442361     1.007825032230
         H            2.847625109812     1.311688798550    -1.308636557639     1.007825032230
         H            3.181268109812     2.584302798550    -0.112780557639     1.007825032230
         H            1.540100109812    -2.459100201450    -0.652166557639     1.007825032230
         H            3.023079109812    -1.502066201450    -0.469830557639     1.007825032230
         H            2.635520109812    -2.768496201450     0.714165442361     1.007825032230
         H           -3.752100890188     0.588748798550     1.669863442361     1.007825032230
         H           -3.456449890188     0.948772798550    -0.043365557639     1.007825032230
         H           -3.439486890188    -0.731478201450     0.524568442361     1.007825032230

  Basis Set: AUG-CC-PVTZ
    Blend: AUG-CC-PVTZ
  Basis Set: (AUG-CC-PVTZ AUX)
    Blend: AUG-CC-PVTZ-JKFIT
	 Reference Energy          =    -837.7689416257652510 [Eh]
	 Singles Energy            =      -0.0000000000000000 [Eh]
	 Same-Spin Energy          =      -0.5170624154156271 [Eh]
	 Opposite-Spin Energy      =      -1.6700896605354563 [Eh]
	 Correlation Energy        =      -2.1871520759510834 [Eh]
	 Total Energy              =    -839.9560937017163269 [Eh]

	 ================> DF-SCS-MP2 Energies <==================
	-----------------------------------------------------------
	 SCS Same-Spin Scale       =       0.3333333333333333 [-]
	 SCS Opposite-Spin Scale   =       1.2000000000000000 [-]
	 SCS Same-Spin Energy      =      -0.1723541384718757 [Eh]
	 SCS Opposite-Spin Energy  =      -2.0041075926425473 [Eh]
	 SCS Correlation Energy    =      -2.1764617311144230 [Eh]
	 SCS Total Energy          =    -839.9454033568796376 [Eh]
	-----------------------------------------------------------

  Dipole Moment: [D]
     X:     1.8357      Y:     1.7890      Z:     4.1681     Total:     4.8932

*** Psi4 exiting successfully. Buy a developer a beer!
