                               Psi4 1.3.2 release

  ==> Input File <==

--------------------------------------------------------------------------
#psi4
#
memory 32 gb

molecule  {
0 1
  S       -0.7380000    -0.0680220    -0.3640970
  O       -0.9949476     0.9190258    -1.4152246
  O       -0.9666500    -1.4966470    -0.5970260
  N        0.8588360     0.0833010     0.0699440
  C        1.3822580     1.4387740     0.2709440
  C        1.4230980    -0.9933220     0.9046550
  C       -1.6862814     0.3767002     1.0927326
  C        2.8090910     1.5534440    -0.2422640
  C        2.2024570    -1.9997400     0.0750250
  C       -3.1888920     0.2878700     0.7901350
  H        0.7441850     2.1234290    -0.2885820
  H        1.3352270     1.7155400     1.3356310
  H        2.0636810    -0.5196560     1.6565250
  H        0.6239660    -1.5103280     1.4462590
  H       -1.3901500    -0.2576530     1.8936760
  H       -1.4092710     1.4273450     1.3241250
  H        3.4861350     0.8840910     0.2940530
  H        2.8396270     1.3037350    -1.3040650
  H        3.1732700     2.5763490    -0.1082090
  H        1.5321020    -2.4670540    -0.6475950
  H        3.0150810    -1.5100200    -0.4652590
  H        2.6275220    -2.7764500     0.7187370
  H       -3.7600990     0.5807950     1.6744350
  H       -3.4644480     0.9408190    -0.0387940
  H       -3.4474850    -0.7394320     0.5291400
units angstrom
no_reorient  #important for SAPT in psi4, default
symmetry c1  #important for SAPT in psi4, default
}

set PROPERTIES_ORIGIN ["COM"]
properties('MP2/aug-cc-pvtz', properties = ['dipole'])
--------------------------------------------------------------------------

    Molecular point group: c1
  Charge       = 0
  Multiplicity = 1
  Basis Set: AUG-CC-PVTZ
    Blend: AUG-CC-PVTZ
  Basis Set: (AUG-CC-PVTZ AUX)
    Blend: AUG-CC-PVTZ-JKFIT

    Orbital Energies [Eh]
    ---------------------

    Doubly Occupied:

       1A    -92.190795     2A    -20.540131     3A    -20.537105
       4A    -15.592235     5A    -11.276358     6A    -11.276042
       7A    -11.275696     8A    -11.238394     9A    -11.227540
      10A    -11.215887    11A     -9.156505    12A     -6.841606
      13A     -6.840893    14A     -6.840712    15A     -1.443891
      16A     -1.326459    17A     -1.248345    18A     -1.078081
      19A     -1.046006    20A     -1.009483    21A     -0.916509
      22A     -0.869581    23A     -0.857638    24A     -0.775231
      25A     -0.720399    26A     -0.670432    27A     -0.669152
      28A     -0.651808    29A     -0.641020    30A     -0.611732
      31A     -0.599527    32A     -0.577069    33A     -0.571159
      34A     -0.550536    35A     -0.544590    36A     -0.539289
      37A     -0.527849    38A     -0.519408    39A     -0.511619
      40A     -0.498040    41A     -0.488845    42A     -0.485795
      43A     -0.460036    44A     -0.446646    45A     -0.394978

  @DF-RHF Final Energy:  -837.77585721656794

   => Energetics <=

    Nuclear Repulsion Energy =            743.4691670928688154
    One-Electron Energy =               -2625.8879435342691977
    Two-Electron Energy =                1044.6429192248324398
    Total Energy =                       -837.7758572165680562
  Basis Set: (AUG-CC-PVTZ AUX)
    Blend: AUG-CC-PVTZ-RI
    Molecular point group: c1

    Geometry (in Angstrom), charge = 0, multiplicity = 1:

       Center              X                  Y                   Z               Mass
    ------------   -----------------  -----------------  -----------------  -----------------
         S           -0.740349372753    -0.065009870528    -0.363674694590    31.972071174400
         O           -0.997296972753     0.922037929472    -1.414802294590    15.994914619570
         O           -0.968999372753    -1.493634870528    -0.596603694590    15.994914619570
         N            0.856486627247     0.086313129472     0.070366305410    14.003074004430
         C            1.379908627247     1.441786129472     0.271366305410    12.000000000000
         C            1.420748627247    -0.990309870528     0.905077305410    12.000000000000
         C           -1.688630772753     0.379712329472     1.093154905410    12.000000000000
         C            2.806741627247     1.556456129472    -0.241841694590    12.000000000000
         C            2.200107627247    -1.996727870528     0.075447305410    12.000000000000
         C           -3.191241372753     0.290882129472     0.790557305410    12.000000000000
         H            0.741835627247     2.126441129472    -0.288159694590     1.007825032230
         H            1.332877627247     1.718552129472     1.336053305410     1.007825032230
         H            2.061331627247    -0.516643870528     1.656947305410     1.007825032230
         H            0.621616627247    -1.507315870528     1.446681305410     1.007825032230
         H           -1.392499372753    -0.254640870528     1.894098305410     1.007825032230
         H           -1.411620372753     1.430357129472     1.324547305410     1.007825032230
         H            3.483785627247     0.887103129472     0.294475305410     1.007825032230
         H            2.837277627247     1.306747129472    -1.303642694590     1.007825032230
         H            3.170920627247     2.579361129472    -0.107786694590     1.007825032230
         H            1.529752627247    -2.464041870528    -0.647172694590     1.007825032230
         H            3.012731627247    -1.507007870528    -0.464836694590     1.007825032230
         H            2.625172627247    -2.773437870528     0.719159305410     1.007825032230
         H           -3.762448372753     0.583807129472     1.674857305410     1.007825032230
         H           -3.466797372753     0.943831129472    -0.038371694590     1.007825032230
         H           -3.449834372753    -0.736419870528     0.529562305410     1.007825032230

  Basis Set: AUG-CC-PVTZ
    Blend: AUG-CC-PVTZ
  Basis Set: (AUG-CC-PVTZ AUX)
    Blend: AUG-CC-PVTZ-JKFIT
	 Reference Energy          =    -837.7758572165679425 [Eh]
	 Singles Energy            =      -0.0000000000000000 [Eh]
	 Same-Spin Energy          =      -0.5166799000156161 [Eh]
	 Opposite-Spin Energy      =      -1.6696535330566080 [Eh]
	 Correlation Energy        =      -2.1863334330722242 [Eh]
	 Total Energy              =    -839.9621906496402062 [Eh]

	 ================> DF-SCS-MP2 Energies <==================
	-----------------------------------------------------------
	 SCS Same-Spin Scale       =       0.3333333333333333 [-]
	 SCS Opposite-Spin Scale   =       1.2000000000000000 [-]
	 SCS Same-Spin Energy      =      -0.1722266333385387 [Eh]
	 SCS Opposite-Spin Energy  =      -2.0035842396679295 [Eh]
	 SCS Correlation Energy    =      -2.1758108730064682 [Eh]
	 SCS Total Energy          =    -839.9516680895743548 [Eh]
	-----------------------------------------------------------

  Dipole Moment: [D]
     X:     1.5241      Y:     1.4746      Z:     4.3463     Total:     4.8361

*** Psi4 exiting successfully. Buy a developer a beer!
