                               Psi4 1.3.2 release

  ==> Input File <==

--------------------------------------------------------------------------
#psi4
#
memory 32 gb

molecule  {
0 1
  S       -0.7380000    -0.0680220    -0.3640970
  O       -1.0107130     0.9314480    -1.3993950
  O       -0.9666500    -1.4966470    -0.5970260
  N        0.8588360     0.0833010     0.0699440
  C        1.4134882     1.4203843     0.3071100
  C        1.4536603    -0.9585894     0.9272068
  C       -1.6975890     0.4015790     1.0774410
  C        2.8090910     1.5534440    -0.2422640
  C        2.2024570    -1.9997400     0.0750250
  C       -3.1888920     0.2878700     0.7901350
  H        0.7441850     2.1234290    -0.2885820
  H        1.3352270     1.7155400     1.3356310
  H        2.0636810    -0.5196560     1.6565250
  H        0.6239660    -1.5103280     1.4462590
  H       -1.3901500    -0.2576530     1.8936760
  H       -1.4092710     1.4273450     1.3241250
  H        3.4861350     0.8840910     0.2940530
  H        2.8396270     1.3037350    -1.3040650
  H        3.1732700     2.5763490    -0.1082090
  H        1.5321020    -2.4670540    -0.6475950
  H        3.0150810    -1.5100200    -0.4652590
  H        2.6275220    -2.7764500     0.7187370
  H       -3.7600990     0.5807950     1.6744350
  H       -3.4644480     0.9408190    -0.0387940
  H       -3.4474850    -0.7394320     0.5291400
units angstrom
no_reorient  #important for SAPT in psi4, default
symmetry c1  #important for SAPT in psi4, default
}

set PROPERTIES_ORIGIN ["COM"]
properties('MP2/aug-cc-pvtz', properties = ['dipole'])
--------------------------------------------------------------------------

    Molecular point group: c1
  Charge       = 0
  Multiplicity = 1
  Basis Set: AUG-CC-PVTZ
    Blend: AUG-CC-PVTZ
  Basis Set: (AUG-CC-PVTZ AUX)
    Blend: AUG-CC-PVTZ-JKFIT

    Orbital Energies [Eh]
    ---------------------

    Doubly Occupied:

       1A    -92.192290     2A    -20.539727     3A    -20.539507
       4A    -15.593074     5A    -11.276254     6A    -11.275534
       7A    -11.274346     8A    -11.236888     9A    -11.227747
      10A    -11.216699    11A     -9.157779    12A     -6.842920
      13A     -6.842115    14A     -6.842045    15A     -1.444211
      16A     -1.327485    17A     -1.249599    18A     -1.078533
      19A     -1.044613    20A     -1.010172    21A     -0.916778
      22A     -0.867585    23A     -0.860682    24A     -0.775607
      25A     -0.717479    26A     -0.674448    27A     -0.668160
      28A     -0.653631    29A     -0.640922    30A     -0.613222
      31A     -0.595728    32A     -0.579212    33A     -0.572770
      34A     -0.550389    35A     -0.543783    36A     -0.537782
      37A     -0.527431    38A     -0.525099    39A     -0.508830
      40A     -0.491484    41A     -0.488002    42A     -0.484614
      43A     -0.460050    44A     -0.448660    45A     -0.395622

  @DF-RHF Final Energy:  -837.76988584516789

   => Energetics <=

    Nuclear Repulsion Energy =            743.0875677932448298
    One-Electron Energy =               -2625.0958926827429423
    Two-Electron Energy =                1044.2384390443301072
    Total Energy =                       -837.7698858451678916
  Basis Set: (AUG-CC-PVTZ AUX)
    Blend: AUG-CC-PVTZ-RI
    Molecular point group: c1

    Geometry (in Angstrom), charge = 0, multiplicity = 1:

       Center              X                  Y                   Z               Mass
    ------------   -----------------  -----------------  -----------------  -----------------
         S           -0.742491652489    -0.069209910259    -0.368365126371    31.972071174400
         O           -1.015204652489     0.930260089741    -1.403663126371    15.994914619570
         O           -0.971141652489    -1.497834910259    -0.601294126371    15.994914619570
         N            0.854344347511     0.082113089741     0.065675873629    14.003074004430
         C            1.408996547511     1.419196389741     0.302841873629    12.000000000000
         C            1.449168647511    -0.959777310259     0.922938673629    12.000000000000
         C           -1.702080652489     0.400391089741     1.073172873629    12.000000000000
         C            2.804599347511     1.552256089741    -0.246532126371    12.000000000000
         C            2.197965347511    -2.000927910259     0.070756873629    12.000000000000
         C           -3.193383652489     0.286682089741     0.785866873629    12.000000000000
         H            0.739693347511     2.122241089741    -0.292850126371     1.007825032230
         H            1.330735347511     1.714352089741     1.331362873629     1.007825032230
         H            2.059189347511    -0.520843910259     1.652256873629     1.007825032230
         H            0.619474347511    -1.511515910259     1.441990873629     1.007825032230
         H           -1.394641652489    -0.258840910259     1.889407873629     1.007825032230
         H           -1.413762652489     1.426157089741     1.319856873629     1.007825032230
         H            3.481643347511     0.882903089741     0.289784873629     1.007825032230
         H            2.835135347511     1.302547089741    -1.308333126371     1.007825032230
         H            3.168778347511     2.575161089741    -0.112477126371     1.007825032230
         H            1.527610347511    -2.468241910259    -0.651863126371     1.007825032230
         H            3.010589347511    -1.511207910259    -0.469527126371     1.007825032230
         H            2.623030347511    -2.777637910259     0.714468873629     1.007825032230
         H           -3.764590652489     0.579607089741     1.670166873629     1.007825032230
         H           -3.468939652489     0.939631089741    -0.043062126371     1.007825032230
         H           -3.451976652489    -0.740619910259     0.524871873629     1.007825032230

  Basis Set: AUG-CC-PVTZ
    Blend: AUG-CC-PVTZ
  Basis Set: (AUG-CC-PVTZ AUX)
    Blend: AUG-CC-PVTZ-JKFIT
	 Reference Energy          =    -837.7698858451678916 [Eh]
	 Singles Energy            =      -0.0000000000000000 [Eh]
	 Same-Spin Energy          =      -0.5170165834994018 [Eh]
	 Opposite-Spin Energy      =      -1.6703563812266724 [Eh]
	 Correlation Energy        =      -2.1873729647260740 [Eh]
	 Total Energy              =    -839.9572588098939150 [Eh]

	 ================> DF-SCS-MP2 Energies <==================
	-----------------------------------------------------------
	 SCS Same-Spin Scale       =       0.3333333333333333 [-]
	 SCS Opposite-Spin Scale   =       1.2000000000000000 [-]
	 SCS Same-Spin Energy      =      -0.1723388611664673 [Eh]
	 SCS Opposite-Spin Energy  =      -2.0044276574720068 [Eh]
	 SCS Correlation Energy    =      -2.1767665186384741 [Eh]
	 SCS Total Energy          =    -839.9466523638063791 [Eh]
	-----------------------------------------------------------

  Dipole Moment: [D]
     X:     1.5788      Y:     1.4777      Z:     4.3432     Total:     4.8518

*** Psi4 exiting successfully. Buy a developer a beer!
