                               Psi4 1.3.2 release

  ==> Input File <==

--------------------------------------------------------------------------
#psi4
#
memory 32 gb

molecule  {
0 1
  S       -0.7380000    -0.0680220    -0.3640970
  O       -1.0107130     0.9314480    -1.3993950
  O       -0.9666500    -1.4966470    -0.5970260
  N        0.8219725     0.1028982     0.0403041
  C        1.3822580     1.4387740     0.2709440
  C        1.4230980    -0.9933220     0.9046550
  C       -1.6975890     0.4015790     1.0774410
  C        2.8090910     1.5534440    -0.2422640
  C        2.2024570    -1.9997400     0.0750250
  C       -3.1888920     0.2878700     0.7901350
  H        0.7233028     2.0936806    -0.2998750
  H        1.3352270     1.7155400     1.3356310
  H        2.0636810    -0.5196560     1.6565250
  H        0.6239660    -1.5103280     1.4462590
  H       -1.3901500    -0.2576530     1.8936760
  H       -1.4092710     1.4273450     1.3241250
  H        3.4861350     0.8840910     0.2940530
  H        2.8396270     1.3037350    -1.3040650
  H        3.1732700     2.5763490    -0.1082090
  H        1.5321020    -2.4670540    -0.6475950
  H        3.0150810    -1.5100200    -0.4652590
  H        2.6275220    -2.7764500     0.7187370
  H       -3.7600990     0.5807950     1.6744350
  H       -3.4644480     0.9408190    -0.0387940
  H       -3.4474850    -0.7394320     0.5291400
units angstrom
no_reorient  #important for SAPT in psi4, default
symmetry c1  #important for SAPT in psi4, default
}

set PROPERTIES_ORIGIN ["COM"]
properties('MP2/aug-cc-pvtz', properties = ['dipole'])
--------------------------------------------------------------------------

    Molecular point group: c1
  Charge       = 0
  Multiplicity = 1
  Basis Set: AUG-CC-PVTZ
    Blend: AUG-CC-PVTZ
  Basis Set: (AUG-CC-PVTZ AUX)
    Blend: AUG-CC-PVTZ-JKFIT

    Orbital Energies [Eh]
    ---------------------

    Doubly Occupied:

       1A    -92.188231     2A    -20.537207     3A    -20.534331
       4A    -15.593825     5A    -11.281144     6A    -11.277384
       7A    -11.273289     8A    -11.235238     9A    -11.229455
      10A    -11.218902    11A     -9.154208    12A     -6.839471
      13A     -6.838588    14A     -6.838471    15A     -1.444561
      16A     -1.325037    17A     -1.247868    18A     -1.076675
      19A     -1.045222    20A     -1.016363    21A     -0.914368
      22A     -0.869130    23A     -0.861627    24A     -0.772336
      25A     -0.718452    26A     -0.670993    27A     -0.667752
      28A     -0.652194    29A     -0.639527    30A     -0.610812
      31A     -0.599050    32A     -0.576202    33A     -0.572066
      34A     -0.549465    35A     -0.546588    36A     -0.540067
      37A     -0.526440    38A     -0.519701    39A     -0.512275
      40A     -0.494110    41A     -0.489878    42A     -0.483822
      43A     -0.458185    44A     -0.446850    45A     -0.401198

  @DF-RHF Final Energy:  -837.77522612967675

   => Energetics <=

    Nuclear Repulsion Energy =            744.2805655986934426
    One-Electron Energy =               -2627.5344613506258611
    Two-Electron Energy =                1045.4786696222554383
    Total Energy =                       -837.7752261296768665
  Basis Set: (AUG-CC-PVTZ AUX)
    Blend: AUG-CC-PVTZ-RI
    Molecular point group: c1

    Geometry (in Angstrom), charge = 0, multiplicity = 1:

       Center              X                  Y                   Z               Mass
    ------------   -----------------  -----------------  -----------------  -----------------
         S           -0.734745470519    -0.069502643308    -0.361513729587    31.972071174400
         O           -1.007458470519     0.929967356692    -1.396811729587    15.994914619570
         O           -0.963395470519    -1.498127643308    -0.594442729587    15.994914619570
         N            0.825227029481     0.101417556692     0.042887370413    14.003074004430
         C            1.385512529481     1.437293356692     0.273527270413    12.000000000000
         C            1.426352529481    -0.994802643308     0.907238270413    12.000000000000
         C           -1.694334470519     0.400098356692     1.080024270413    12.000000000000
         C            2.812345529481     1.551963356692    -0.239680729587    12.000000000000
         C            2.205711529481    -2.001220643308     0.077608270413    12.000000000000
         C           -3.185637470519     0.286389356692     0.792718270413    12.000000000000
         H            0.726557329481     2.092199956692    -0.297291729587     1.007825032230
         H            1.338481529481     1.714059356692     1.338214270413     1.007825032230
         H            2.066935529481    -0.521136643308     1.659108270413     1.007825032230
         H            0.627220529481    -1.511808643308     1.448842270413     1.007825032230
         H           -1.386895470519    -0.259133643308     1.896259270413     1.007825032230
         H           -1.406016470519     1.425864356692     1.326708270413     1.007825032230
         H            3.489389529481     0.882610356692     0.296636270413     1.007825032230
         H            2.842881529481     1.302254356692    -1.301481729587     1.007825032230
         H            3.176524529481     2.574868356692    -0.105625729587     1.007825032230
         H            1.535356529481    -2.468534643308    -0.645011729587     1.007825032230
         H            3.018335529481    -1.511500643308    -0.462675729587     1.007825032230
         H            2.630776529481    -2.777930643308     0.721320270413     1.007825032230
         H           -3.756844470519     0.579314356692     1.677018270413     1.007825032230
         H           -3.461193470519     0.939338356692    -0.036210729587     1.007825032230
         H           -3.444230470519    -0.740912643308     0.531723270413     1.007825032230

  Basis Set: AUG-CC-PVTZ
    Blend: AUG-CC-PVTZ
  Basis Set: (AUG-CC-PVTZ AUX)
    Blend: AUG-CC-PVTZ-JKFIT
	 Reference Energy          =    -837.7752261296767529 [Eh]
	 Singles Energy            =      -0.0000000000000000 [Eh]
	 Same-Spin Energy          =      -0.5164994560776391 [Eh]
	 Opposite-Spin Energy      =      -1.6692471426926909 [Eh]
	 Correlation Energy        =      -2.1857465987703302 [Eh]
	 Total Energy              =    -839.9609727284471319 [Eh]

	 ================> DF-SCS-MP2 Energies <==================
	-----------------------------------------------------------
	 SCS Same-Spin Scale       =       0.3333333333333333 [-]
	 SCS Opposite-Spin Scale   =       1.2000000000000000 [-]
	 SCS Same-Spin Energy      =      -0.1721664853592130 [Eh]
	 SCS Opposite-Spin Energy  =      -2.0030965712312292 [Eh]
	 SCS Correlation Energy    =      -2.1752630565904423 [Eh]
	 SCS Total Energy          =    -839.9504891862671911 [Eh]
	-----------------------------------------------------------

  Dipole Moment: [D]
     X:     1.8533      Y:     1.3502      Z:     4.4037     Total:     4.9649

*** Psi4 exiting successfully. Buy a developer a beer!
