                               Psi4 1.3.2 release

  ==> Input File <==

--------------------------------------------------------------------------
#psi4
#
memory 32 gb

molecule  {
0 1
  S       -0.7380000    -0.0680220    -0.3640970
  O       -1.0107130     0.9314480    -1.3993950
  O       -0.9666500    -1.4966470    -0.5970260
  N        0.8505719     0.0919559     0.0963614
  C        1.3822580     1.4387740     0.2709440
  C        1.4230980    -0.9933220     0.9046550
  C       -1.6709837     0.4068709     1.0930873
  C        2.8090910     1.5534440    -0.2422640
  C        2.2024570    -1.9997400     0.0750250
  C       -3.1888920     0.2878700     0.7901350
  H        0.7441850     2.1234290    -0.2885820
  H        1.3352270     1.7155400     1.3356310
  H        2.0636810    -0.5196560     1.6565250
  H        0.6239660    -1.5103280     1.4462590
  H       -1.3901500    -0.2576530     1.8936760
  H       -1.4092710     1.4273450     1.3241250
  H        3.4861350     0.8840910     0.2940530
  H        2.8396270     1.3037350    -1.3040650
  H        3.1732700     2.5763490    -0.1082090
  H        1.5321020    -2.4670540    -0.6475950
  H        3.0150810    -1.5100200    -0.4652590
  H        2.6275220    -2.7764500     0.7187370
  H       -3.7600990     0.5807950     1.6744350
  H       -3.4644480     0.9408190    -0.0387940
  H       -3.4474850    -0.7394320     0.5291400
units angstrom
no_reorient  #important for SAPT in psi4, default
symmetry c1  #important for SAPT in psi4, default
}

set PROPERTIES_ORIGIN ["COM"]
properties('MP2/aug-cc-pvtz', properties = ['dipole'])
--------------------------------------------------------------------------

    Molecular point group: c1
  Charge       = 0
  Multiplicity = 1
  Basis Set: AUG-CC-PVTZ
    Blend: AUG-CC-PVTZ
  Basis Set: (AUG-CC-PVTZ AUX)
    Blend: AUG-CC-PVTZ-JKFIT

    Orbital Energies [Eh]
    ---------------------

    Doubly Occupied:

       1A    -92.191867     2A    -20.540561     3A    -20.540443
       4A    -15.590720     5A    -11.275605     6A    -11.275539
       7A    -11.273406     8A    -11.237930     9A    -11.227685
      10A    -11.216387    11A     -9.157384    12A     -6.842517
      13A     -6.841775    14A     -6.841619    15A     -1.444756
      16A     -1.328275    17A     -1.250543    18A     -1.074830
      19A     -1.046577    20A     -1.009291    21A     -0.916076
      22A     -0.871434    23A     -0.858156    24A     -0.774527
      25A     -0.720420    26A     -0.672330    27A     -0.669028
      28A     -0.652396    29A     -0.640973    30A     -0.612621
      31A     -0.600280    32A     -0.578164    33A     -0.568193
      34A     -0.549600    35A     -0.545125    36A     -0.536143
      37A     -0.530315    38A     -0.519669    39A     -0.512662
      40A     -0.498886    41A     -0.490697    42A     -0.487414
      43A     -0.461969    44A     -0.446853    45A     -0.391848

  @DF-RHF Final Energy:  -837.77620160965046

   => Energetics <=

    Nuclear Repulsion Energy =            743.5760361525690314
    One-Electron Energy =               -2626.0774921451138653
    Two-Electron Energy =                1044.7252543828944908
    Total Energy =                       -837.7762016096503430
  Basis Set: (AUG-CC-PVTZ AUX)
    Blend: AUG-CC-PVTZ-RI
    Molecular point group: c1

    Geometry (in Angstrom), charge = 0, multiplicity = 1:

       Center              X                  Y                   Z               Mass
    ------------   -----------------  -----------------  -----------------  -----------------
         S           -0.739232859504    -0.069140752079    -0.367475066393    31.972071174400
         O           -1.011945859504     0.930329247921    -1.402773066393    15.994914619570
         O           -0.967882859504    -1.497765752079    -0.600404066393    15.994914619570
         N            0.849339040496     0.090837147921     0.092983333607    14.003074004430
         C            1.381025140496     1.437655247921     0.267565933607    12.000000000000
         C            1.421865140496    -0.994440752079     0.901276933607    12.000000000000
         C           -1.672216559504     0.405752147921     1.089709233607    12.000000000000
         C            2.807858140496     1.552325247921    -0.245642066393    12.000000000000
         C            2.201224140496    -2.000858752079     0.071646933607    12.000000000000
         C           -3.190124859504     0.286751247921     0.786756933607    12.000000000000
         H            0.742952140496     2.122310247921    -0.291960066393     1.007825032230
         H            1.333994140496     1.714421247921     1.332252933607     1.007825032230
         H            2.062448140496    -0.520774752079     1.653146933607     1.007825032230
         H            0.622733140496    -1.511446752079     1.442880933607     1.007825032230
         H           -1.391382859504    -0.258771752079     1.890297933607     1.007825032230
         H           -1.410503859504     1.426226247921     1.320746933607     1.007825032230
         H            3.484902140496     0.882972247921     0.290674933607     1.007825032230
         H            2.838394140496     1.302616247921    -1.307443066393     1.007825032230
         H            3.172037140496     2.575230247921    -0.111587066393     1.007825032230
         H            1.530869140496    -2.468172752079    -0.650973066393     1.007825032230
         H            3.013848140496    -1.511138752079    -0.468637066393     1.007825032230
         H            2.626289140496    -2.777568752079     0.715358933607     1.007825032230
         H           -3.761331859504     0.579676247921     1.671056933607     1.007825032230
         H           -3.465680859504     0.939700247921    -0.042172066393     1.007825032230
         H           -3.448717859504    -0.740550752079     0.525761933607     1.007825032230

  Basis Set: AUG-CC-PVTZ
    Blend: AUG-CC-PVTZ
  Basis Set: (AUG-CC-PVTZ AUX)
    Blend: AUG-CC-PVTZ-JKFIT
	 Reference Energy          =    -837.7762016096504567 [Eh]
	 Singles Energy            =      -0.0000000000000000 [Eh]
	 Same-Spin Energy          =      -0.5166547613976867 [Eh]
	 Opposite-Spin Energy      =      -1.6695594829075904 [Eh]
	 Correlation Energy        =      -2.1862142443052770 [Eh]
	 Total Energy              =    -839.9624158539556902 [Eh]

	 ================> DF-SCS-MP2 Energies <==================
	-----------------------------------------------------------
	 SCS Same-Spin Scale       =       0.3333333333333333 [-]
	 SCS Opposite-Spin Scale   =       1.2000000000000000 [-]
	 SCS Same-Spin Energy      =      -0.1722182537992289 [Eh]
	 SCS Opposite-Spin Energy  =      -2.0034713794891084 [Eh]
	 SCS Correlation Energy    =      -2.1756896332883371 [Eh]
	 SCS Total Energy          =    -839.9518912429388138 [Eh]
	-----------------------------------------------------------

  Dipole Moment: [D]
     X:     1.5852      Y:     1.4146      Z:     4.2389     Total:     4.7415

*** Psi4 exiting successfully. Buy a developer a beer!
