                               Psi4 1.4a3.dev225

  ==> Input File <==

--------------------------------------------------------------------------
#psi4
#
memory 32 gb

molecule  {
0 1
  S        0.7616280     0.0424770    -0.4366460
  O        0.9991380    -1.0441750    -1.3599618
  O        0.9495440     1.4436620    -0.8249950
  N       -0.8076120    -0.0882160     0.0931460
  C       -1.3185710    -1.4233650     0.4283730
  C       -1.3686840     1.0652840     0.8208400
  C        1.8058710    -0.2545270     0.9952940
  C       -2.7505920    -1.6006810    -0.0558370
  C       -2.1814690     1.9714470    -0.0911900
  C        3.2787560    -0.1326200     0.6229570
  H       -0.6761480    -2.1530350    -0.0688350
  H       -1.2569730    -1.5943860     1.5141500
  H       -1.9866060     0.6632120     1.6319710
  H       -0.5646970     1.6429440     1.2905320
  H        1.5186250     0.4781900     1.7554980
  H        1.5601880    -1.2573080     1.3582850
  H       -3.4295210    -0.8918450     0.4253230
  H       -2.7963610    -1.4499180    -1.1363750
  H       -3.1014500    -2.6111540     0.1760480
  H       -1.5338360     2.3728670    -0.8718090
  H       -2.9953600     1.4152720    -0.5615490
  H       -2.6084920     2.8033720     0.4789350
  H        3.8991710    -0.3169240     1.5035790
  H        3.5375790    -0.8611900    -0.1476860
  H        3.4935140     0.8689240     0.2454810
units angstrom
no_reorient  #important for SAPT in psi4, default
symmetry c1  #important for SAPT in psi4, default
}

set PROPERTIES_ORIGIN ["COM"]
properties('MP2/aug-cc-pvtz', properties = ['dipole'])
--------------------------------------------------------------------------

    Molecular point group: c1
  Charge       = 0
  Multiplicity = 1
  Basis Set: AUG-CC-PVTZ
    Blend: AUG-CC-PVTZ
  Basis Set: (AUG-CC-PVTZ AUX)
    Blend: AUG-CC-PVTZ-JKFIT

    Orbital Energies [Eh]
    ---------------------

    Doubly Occupied:

       1A    -92.189419     2A    -20.539549     3A    -20.537319
       4A    -15.591813     5A    -11.276593     6A    -11.275687
       7A    -11.274257     8A    -11.236487     9A    -11.227720
      10A    -11.215661    11A     -9.155252    12A     -6.840358
      13A     -6.839735    14A     -6.839505    15A     -1.449662
      16A     -1.331757    17A     -1.247090    18A     -1.076331
      19A     -1.045163    20A     -1.008770    21A     -0.914781
      22A     -0.869186    23A     -0.856710    24A     -0.772942
      25A     -0.719932    26A     -0.671796    27A     -0.667619
      28A     -0.650274    29A     -0.639358    30A     -0.613589
      31A     -0.599563    32A     -0.577908    33A     -0.571916
      34A     -0.549337    35A     -0.543694    36A     -0.539777
      37A     -0.525998    38A     -0.519272    39A     -0.512125
      40A     -0.497554    41A     -0.491429    42A     -0.486438
      43A     -0.462163    44A     -0.444991    45A     -0.393890

  @DF-RHF Final Energy:  -837.77831537915154

   => Energetics <=

    Nuclear Repulsion Energy =            743.8311706038766715
    One-Electron Energy =               -2626.6382340849427237
    Two-Electron Energy =                1045.0287481019145162
    Total Energy =                       -837.7783153791515360
  Basis Set: (AUG-CC-PVTZ AUX)
    Blend: AUG-CC-PVTZ-RI
    Molecular point group: c1

    Geometry (in Angstrom), charge = 0, multiplicity = 1:

       Center              X                  Y                   Z               Mass
    ------------   -----------------  -----------------  -----------------  -----------------
         S            0.720437450914     0.035686158891    -0.392388498403    31.972071174400
         O            0.957947450914    -1.050965841109    -1.315704298403    15.994914619570
         O            0.908353450914     1.436871158891    -0.780737498403    15.994914619570
         N           -0.848802549086    -0.095006841109     0.137403501597    14.003074004430
         C           -1.359761549086    -1.430155841109     0.472630501597    12.000000000000
         C           -1.409874549086     1.058493158891     0.865097501597    12.000000000000
         C            1.764680450914    -0.261317841109     1.039551501597    12.000000000000
         C           -2.791782549086    -1.607471841109    -0.011579498403    12.000000000000
         C           -2.222659549086     1.964656158891    -0.046932498403    12.000000000000
         C            3.237565450914    -0.139410841109     0.667214501597    12.000000000000
         H           -0.717338549086    -2.159825841109    -0.024577498403     1.007825032230
         H           -1.298163549086    -1.601176841109     1.558407501597     1.007825032230
         H           -2.027796549086     0.656421158891     1.676228501597     1.007825032230
         H           -0.605887549086     1.636153158891     1.334789501597     1.007825032230
         H            1.477434450914     0.471399158891     1.799755501597     1.007825032230
         H            1.518997450914    -1.264098841109     1.402542501597     1.007825032230
         H           -3.470711549086    -0.898635841109     0.469580501597     1.007825032230
         H           -2.837551549086    -1.456708841109    -1.092117498403     1.007825032230
         H           -3.142640549086    -2.617944841109     0.220305501597     1.007825032230
         H           -1.575026549086     2.366076158891    -0.827551498403     1.007825032230
         H           -3.036550549086     1.408481158891    -0.517291498403     1.007825032230
         H           -2.649682549086     2.796581158891     0.523192501597     1.007825032230
         H            3.857980450914    -0.323714841109     1.547836501597     1.007825032230
         H            3.496388450914    -0.867980841109    -0.103428498403     1.007825032230
         H            3.452323450914     0.862133158891     0.289738501597     1.007825032230

  Basis Set: AUG-CC-PVTZ
    Blend: AUG-CC-PVTZ
  Basis Set: (AUG-CC-PVTZ AUX)
    Blend: AUG-CC-PVTZ-JKFIT
	 Reference Energy          =    -837.7783153791515360 [Eh]
	 Singles Energy            =      -0.0000000000000000 [Eh]
	 Same-Spin Energy          =      -0.5162487969603299 [Eh]
	 Opposite-Spin Energy      =      -1.6687217913230994 [Eh]
	 Correlation Energy        =      -2.1849705882834294 [Eh]
	 Total Energy              =    -839.9632859674350129 [Eh]

	 ================> DF-SCS-MP2 Energies <==================
	-----------------------------------------------------------
	 SCS Same-Spin Scale       =       0.3333333333333333 [-]
	 SCS Opposite-Spin Scale   =       1.2000000000000000 [-]
	 SCS Same-Spin Energy      =      -0.1720829323201100 [Eh]
	 SCS Opposite-Spin Energy  =      -2.0024661495877192 [Eh]
	 SCS Correlation Energy    =      -2.1745490819078293 [Eh]
	 SCS Total Energy          =    -839.9528644610593346 [Eh]
	-----------------------------------------------------------

  Dipole Moment: [D]
     X:    -1.3590      Y:    -1.0667      Z:     4.3762     Total:     4.7049

*** Psi4 exiting successfully. Buy a developer a beer!
