                               Psi4 1.4a3.dev225

  ==> Input File <==

--------------------------------------------------------------------------
#psi4
#
memory 32 gb

molecule  {
0 1
  S        0.7616280     0.0424770    -0.4366460
  O        1.0024240    -1.0592090    -1.3727360
  O        0.9495440     1.4436620    -0.8249950
  N       -0.8076120    -0.0882160     0.0931460
  C       -1.3185710    -1.4233650     0.4283730
  C       -1.3686840     1.0652840     0.8208400
  C        1.8058710    -0.2545270     0.9952940
  C       -2.7505920    -1.6006810    -0.0558370
  C       -2.1814690     1.9714470    -0.0911900
  C        3.2594281    -0.1342197     0.6278430
  H       -0.6761480    -2.1530350    -0.0688350
  H       -1.2569730    -1.5943860     1.5141500
  H       -1.9866060     0.6632120     1.6319710
  H       -0.5646970     1.6429440     1.2905320
  H        1.5186250     0.4781900     1.7554980
  H        1.5601880    -1.2573080     1.3582850
  H       -3.4295210    -0.8918450     0.4253230
  H       -2.7963610    -1.4499180    -1.1363750
  H       -3.1014500    -2.6111540     0.1760480
  H       -1.5338360     2.3728670    -0.8718090
  H       -2.9953600     1.4152720    -0.5615490
  H       -2.6084920     2.8033720     0.4789350
  H        3.8991710    -0.3169240     1.5035790
  H        3.5375790    -0.8611900    -0.1476860
  H        3.4935140     0.8689240     0.2454810
units angstrom
no_reorient  #important for SAPT in psi4, default
symmetry c1  #important for SAPT in psi4, default
}

set PROPERTIES_ORIGIN ["COM"]
properties('MP2/aug-cc-pvtz', properties = ['dipole'])
--------------------------------------------------------------------------

    Molecular point group: c1
  Charge       = 0
  Multiplicity = 1
  Basis Set: AUG-CC-PVTZ
    Blend: AUG-CC-PVTZ
  Basis Set: (AUG-CC-PVTZ AUX)
    Blend: AUG-CC-PVTZ-JKFIT

    Orbital Energies [Eh]
    ---------------------

    Doubly Occupied:

       1A    -92.191365     2A    -20.539261     3A    -20.539047
       4A    -15.593119     5A    -11.276854     6A    -11.276512
       7A    -11.275010     8A    -11.237156     9A    -11.227907
      10A    -11.216200    11A     -9.156898    12A     -6.842000
      13A     -6.841244    14A     -6.841161    15A     -1.443474
      16A     -1.327151    17A     -1.247630    18A     -1.080517
      19A     -1.045630    20A     -1.009628    21A     -0.914520
      22A     -0.869658    23A     -0.856692    24A     -0.774027
      25A     -0.719724    26A     -0.671161    27A     -0.667377
      28A     -0.651154    29A     -0.639776    30A     -0.611817
      31A     -0.599513    32A     -0.577919    33A     -0.573307
      34A     -0.548237    35A     -0.544832    36A     -0.541712
      37A     -0.523344    38A     -0.518723    39A     -0.512050
      40A     -0.497446    41A     -0.489214    42A     -0.485577
      43A     -0.460621    44A     -0.445067    45A     -0.394665

  @DF-RHF Final Energy:  -837.77593723146174

   => Energetics <=

    Nuclear Repulsion Energy =            743.2119389331297725
    One-Electron Energy =               -2625.3839562465755080
    Two-Electron Energy =                1044.3960800819841097
    Total Energy =                       -837.7759372314617394
  Basis Set: (AUG-CC-PVTZ AUX)
    Blend: AUG-CC-PVTZ-RI
    Molecular point group: c1

    Geometry (in Angstrom), charge = 0, multiplicity = 1:

       Center              X                  Y                   Z               Mass
    ------------   -----------------  -----------------  -----------------  -----------------
         S            0.721524032918     0.037259094741    -0.391505967724    31.972071174400
         O            0.962320032918    -1.064426905259    -1.327595967724    15.994914619570
         O            0.909440032918     1.438444094741    -0.779854967724    15.994914619570
         N           -0.847715967082    -0.093433905259     0.138286032276    14.003074004430
         C           -1.358674967082    -1.428582905259     0.473513032276    12.000000000000
         C           -1.408787967082     1.060066094741     0.865980032276    12.000000000000
         C            1.765767032918    -0.259744905259     1.040434032276    12.000000000000
         C           -2.790695967082    -1.605898905259    -0.010696967724    12.000000000000
         C           -2.221572967082     1.966229094741    -0.046049967724    12.000000000000
         C            3.219324132918    -0.139437605259     0.672983032276    12.000000000000
         H           -0.716251967082    -2.158252905259    -0.023694967724     1.007825032230
         H           -1.297076967082    -1.599603905259     1.559290032276     1.007825032230
         H           -2.026709967082     0.657994094741     1.677111032276     1.007825032230
         H           -0.604800967082     1.637726094741     1.335672032276     1.007825032230
         H            1.478521032918     0.472972094741     1.800638032276     1.007825032230
         H            1.520084032918    -1.262525905259     1.403425032276     1.007825032230
         H           -3.469624967082    -0.897062905259     0.470463032276     1.007825032230
         H           -2.836464967082    -1.455135905259    -1.091234967724     1.007825032230
         H           -3.141553967082    -2.616371905259     0.221188032276     1.007825032230
         H           -1.573939967082     2.367649094741    -0.826668967724     1.007825032230
         H           -3.035463967082     1.410054094741    -0.516408967724     1.007825032230
         H           -2.648595967082     2.798154094741     0.524075032276     1.007825032230
         H            3.859067032918    -0.322141905259     1.548719032276     1.007825032230
         H            3.497475032918    -0.866407905259    -0.102545967724     1.007825032230
         H            3.453410032918     0.863706094741     0.290621032276     1.007825032230

  Basis Set: AUG-CC-PVTZ
    Blend: AUG-CC-PVTZ
  Basis Set: (AUG-CC-PVTZ AUX)
    Blend: AUG-CC-PVTZ-JKFIT
	 Reference Energy          =    -837.7759372314617394 [Eh]
	 Singles Energy            =      -0.0000000000000000 [Eh]
	 Same-Spin Energy          =      -0.5168322939072918 [Eh]
	 Opposite-Spin Energy      =      -1.6699203757396843 [Eh]
	 Correlation Energy        =      -2.1867526696469763 [Eh]
	 Total Energy              =    -839.9626899011086607 [Eh]

	 ================> DF-SCS-MP2 Energies <==================
	-----------------------------------------------------------
	 SCS Same-Spin Scale       =       0.3333333333333333 [-]
	 SCS Opposite-Spin Scale   =       1.2000000000000000 [-]
	 SCS Same-Spin Energy      =      -0.1722774313024306 [Eh]
	 SCS Opposite-Spin Energy  =      -2.0039044508876209 [Eh]
	 SCS Correlation Energy    =      -2.1761818821900514 [Eh]
	 SCS Total Energy          =    -839.9521191136517473 [Eh]
	-----------------------------------------------------------

  Dipole Moment: [D]
     X:    -1.3891      Y:    -0.9915      Z:     4.4482     Total:     4.7644

*** Psi4 exiting successfully. Buy a developer a beer!
