                               Psi4 1.3.2 release

  ==> Input File <==

--------------------------------------------------------------------------
#psi4
#
memory 32 gb

molecule  {
0 1
  S       -0.7380000    -0.0680220    -0.3640970
  O       -1.0107130     0.9314480    -1.3993950
  O       -0.9666500    -1.4966470    -0.5970260
  N        0.8477439     0.0868576     0.0752520
  C        1.3822580     1.4387740     0.2709440
  C        1.4230980    -0.9933220     0.9046550
  C       -1.6975890     0.4015790     1.0774410
  C        2.8093306     1.5661898    -0.2385783
  C        2.2024570    -1.9997400     0.0750250
  C       -3.1888920     0.2878700     0.7901350
  H        0.7441850     2.1234290    -0.2885820
  H        1.3352270     1.7155400     1.3356310
  H        2.0636810    -0.5196560     1.6565250
  H        0.6239660    -1.5103280     1.4462590
  H       -1.3901500    -0.2576530     1.8936760
  H       -1.4092710     1.4273450     1.3241250
  H        3.4861350     0.8840910     0.2940530
  H        2.8396270     1.3037350    -1.3040650
  H        3.1732700     2.5763490    -0.1082090
  H        1.5321020    -2.4670540    -0.6475950
  H        3.0150810    -1.5100200    -0.4652590
  H        2.6275220    -2.7764500     0.7187370
  H       -3.7600990     0.5807950     1.6744350
  H       -3.4644480     0.9408190    -0.0387940
  H       -3.4474850    -0.7394320     0.5291400
units angstrom
no_reorient  #important for SAPT in psi4, default
symmetry c1  #important for SAPT in psi4, default
}

set PROPERTIES_ORIGIN ["COM"]
properties('MP2/aug-cc-pvtz', properties = ['dipole'])
--------------------------------------------------------------------------

    Molecular point group: c1
  Charge       = 0
  Multiplicity = 1
  Basis Set: AUG-CC-PVTZ
    Blend: AUG-CC-PVTZ
  Basis Set: (AUG-CC-PVTZ AUX)
    Blend: AUG-CC-PVTZ-JKFIT

    Orbital Energies [Eh]
    ---------------------

    Doubly Occupied:

       1A    -92.190686     2A    -20.538588     3A    -20.538470
       4A    -15.593434     5A    -11.276837     6A    -11.276729
       7A    -11.274696     8A    -11.236280     9A    -11.228380
      10A    -11.216797    11A     -9.156360    12A     -6.841498
      13A     -6.840727    14A     -6.840619    15A     -1.444243
      16A     -1.326914    17A     -1.249440    18A     -1.077817
      19A     -1.046455    20A     -1.011535    21A     -0.915894
      22A     -0.870332    23A     -0.858352    24A     -0.773561
      25A     -0.720299    26A     -0.671283    27A     -0.667473
      28A     -0.651217    29A     -0.640777    30A     -0.611812
      31A     -0.600017    32A     -0.578758    33A     -0.572754
      34A     -0.549844    35A     -0.544413    36A     -0.541016
      37A     -0.526720    38A     -0.519497    39A     -0.511098
      40A     -0.497096    41A     -0.489664    42A     -0.486279
      43A     -0.460166    44A     -0.446212    45A     -0.396074

  @DF-RHF Final Energy:  -837.77703777252145

   => Energetics <=

    Nuclear Repulsion Energy =            743.5969977633529879
    One-Electron Energy =               -2626.1338395099937770
    Two-Electron Energy =                1044.7598039741192224
    Total Energy =                       -837.7770377725214530
  Basis Set: (AUG-CC-PVTZ AUX)
    Blend: AUG-CC-PVTZ-RI
    Molecular point group: c1

    Geometry (in Angstrom), charge = 0, multiplicity = 1:

       Center              X                  Y                   Z               Mass
    ------------   -----------------  -----------------  -----------------  -----------------
         S           -0.737076426103    -0.069250121299    -0.364815038288    31.972071174400
         O           -1.009789426103     0.930219878701    -1.400113038288    15.994914619570
         O           -0.965726426103    -1.497875121299    -0.597744038288    15.994914619570
         N            0.848667473897     0.085629478701     0.074533961712    14.003074004430
         C            1.383181573897     1.437545878701     0.270225961712    12.000000000000
         C            1.424021573897    -0.994550121299     0.903936961712    12.000000000000
         C           -1.696665426103     0.400350878701     1.076722961712    12.000000000000
         C            2.810254173897     1.564961678701    -0.239296338288    12.000000000000
         C            2.203380573897    -2.000968121299     0.074306961712    12.000000000000
         C           -3.187968426103     0.286641878701     0.789416961712    12.000000000000
         H            0.745108573897     2.122200878701    -0.289300038288     1.007825032230
         H            1.336150573897     1.714311878701     1.334912961712     1.007825032230
         H            2.064604573897    -0.520884121299     1.655806961712     1.007825032230
         H            0.624889573897    -1.511556121299     1.445540961712     1.007825032230
         H           -1.389226426103    -0.258881121299     1.892957961712     1.007825032230
         H           -1.408347426103     1.426116878701     1.323406961712     1.007825032230
         H            3.487058573897     0.882862878701     0.293334961712     1.007825032230
         H            2.840550573897     1.302506878701    -1.304783038288     1.007825032230
         H            3.174193573897     2.575120878701    -0.108927038288     1.007825032230
         H            1.533025573897    -2.468282121299    -0.648313038288     1.007825032230
         H            3.016004573897    -1.511248121299    -0.465977038288     1.007825032230
         H            2.628445573897    -2.777678121299     0.718018961712     1.007825032230
         H           -3.759175426103     0.579566878701     1.673716961712     1.007825032230
         H           -3.463524426103     0.939590878701    -0.039512038288     1.007825032230
         H           -3.446561426103    -0.740660121299     0.528421961712     1.007825032230

  Basis Set: AUG-CC-PVTZ
    Blend: AUG-CC-PVTZ
  Basis Set: (AUG-CC-PVTZ AUX)
    Blend: AUG-CC-PVTZ-JKFIT
	 Reference Energy          =    -837.7770377725214530 [Eh]
	 Singles Energy            =      -0.0000000000000000 [Eh]
	 Same-Spin Energy          =      -0.5166648449369012 [Eh]
	 Opposite-Spin Energy      =      -1.6694827877174343 [Eh]
	 Correlation Energy        =      -2.1861476326543356 [Eh]
	 Total Energy              =    -839.9631854051757500 [Eh]

	 ================> DF-SCS-MP2 Energies <==================
	-----------------------------------------------------------
	 SCS Same-Spin Scale       =       0.3333333333333333 [-]
	 SCS Opposite-Spin Scale   =       1.2000000000000000 [-]
	 SCS Same-Spin Energy      =      -0.1722216149789671 [Eh]
	 SCS Opposite-Spin Energy  =      -2.0033793452609210 [Eh]
	 SCS Correlation Energy    =      -2.1756009602398882 [Eh]
	 SCS Total Energy          =    -839.9526387327613293 [Eh]
	-----------------------------------------------------------

  Dipole Moment: [D]
     X:     1.6522      Y:     1.4326      Z:     4.3063     Total:     4.8297

*** Psi4 exiting successfully. Buy a developer a beer!
