                               Psi4 1.3.2 release

  ==> Input File <==

--------------------------------------------------------------------------
#psi4
#
memory 32 gb

molecule  {
0 1
  S       -0.7380000    -0.0680220    -0.3640970
  O       -1.0107130     0.9314480    -1.3993950
  O       -0.9666500    -1.4966470    -0.5970260
  N        0.8588360     0.0833010     0.0699440
  C        1.3822580     1.4387740     0.2709440
  C        1.4230980    -0.9933220     0.9046550
  C       -1.6975890     0.4015790     1.0774410
  C        2.8090910     1.5534440    -0.2422640
  C        2.2024570    -1.9997400     0.0750250
  C       -3.0909717     0.2953362     0.8089998
  H        0.7441850     2.1234290    -0.2885820
  H        1.3352270     1.7155400     1.3356310
  H        2.0636810    -0.5196560     1.6565250
  H        0.6239660    -1.5103280     1.4462590
  H       -1.3901500    -0.2576530     1.8936760
  H       -1.4092710     1.4273450     1.3241250
  H        3.4861350     0.8840910     0.2940530
  H        2.8396270     1.3037350    -1.3040650
  H        3.1732700     2.5763490    -0.1082090
  H        1.5321020    -2.4670540    -0.6475950
  H        3.0150810    -1.5100200    -0.4652590
  H        2.6275220    -2.7764500     0.7187370
  H       -3.7600990     0.5807950     1.6744350
  H       -3.4644480     0.9408190    -0.0387940
  H       -3.4474850    -0.7394320     0.5291400
units angstrom
no_reorient  #important for SAPT in psi4, default
symmetry c1  #important for SAPT in psi4, default
}

set PROPERTIES_ORIGIN ["COM"]
properties('MP2/aug-cc-pvtz', properties = ['dipole'])
--------------------------------------------------------------------------

    Molecular point group: c1
  Charge       = 0
  Multiplicity = 1
  Basis Set: AUG-CC-PVTZ
    Blend: AUG-CC-PVTZ
  Basis Set: (AUG-CC-PVTZ AUX)
    Blend: AUG-CC-PVTZ-JKFIT

    Orbital Energies [Eh]
    ---------------------

    Doubly Occupied:

       1A    -92.191229     2A    -20.539670     3A    -20.539461
       4A    -15.594052     5A    -11.276864     6A    -11.276514
       7A    -11.272327     8A    -11.239602     9A    -11.228231
      10A    -11.216570    11A     -9.157099    12A     -6.842173
      13A     -6.841408    14A     -6.841347    15A     -1.444848
      16A     -1.327756    17A     -1.249556    18A     -1.097661
      19A     -1.046825    20A     -1.011474    21A     -0.910654
      22A     -0.870347    23A     -0.854164    24A     -0.775921
      25A     -0.722186    26A     -0.673813    27A     -0.670397
      28A     -0.654383    29A     -0.643139    30A     -0.612532
      31A     -0.600248    32A     -0.591402    33A     -0.577094
      34A     -0.548169    35A     -0.543849    36A     -0.539229
      37A     -0.521259    38A     -0.514298    39A     -0.504125
      40A     -0.496061    41A     -0.488856    42A     -0.484814
      43A     -0.460529    44A     -0.445174    45A     -0.396013

  @DF-RHF Final Energy:  -837.76508876612604

   => Energetics <=

    Nuclear Repulsion Energy =            745.5170786145239390
    One-Electron Energy =               -2629.8976845289012090
    Two-Electron Energy =                1046.6155171482510013
    Total Energy =                       -837.7650887661261550
  Basis Set: (AUG-CC-PVTZ AUX)
    Blend: AUG-CC-PVTZ-RI
    Molecular point group: c1

    Geometry (in Angstrom), charge = 0, multiplicity = 1:

       Center              X                  Y                   Z               Mass
    ------------   -----------------  -----------------  -----------------  -----------------
         S           -0.745117818159    -0.068564654118    -0.365468172213    31.972071174400
         O           -1.017830818159     0.930905345882    -1.400766172213    15.994914619570
         O           -0.973767818159    -1.497189654118    -0.598397172213    15.994914619570
         N            0.851718181841     0.082758345882     0.068572827787    14.003074004430
         C            1.375140181841     1.438231345882     0.269572827787    12.000000000000
         C            1.415980181841    -0.993864654118     0.903283827787    12.000000000000
         C           -1.704706818159     0.401036345882     1.076069827787    12.000000000000
         C            2.801973181841     1.552901345882    -0.243635172213    12.000000000000
         C            2.195339181841    -2.000282654118     0.073653827787    12.000000000000
         C           -3.098089518159     0.294793545882     0.807628627787    12.000000000000
         H            0.737067181841     2.122886345882    -0.289953172213     1.007825032230
         H            1.328109181841     1.714997345882     1.334259827787     1.007825032230
         H            2.056563181841    -0.520198654118     1.655153827787     1.007825032230
         H            0.616848181841    -1.510870654118     1.444887827787     1.007825032230
         H           -1.397267818159    -0.258195654118     1.892304827787     1.007825032230
         H           -1.416388818159     1.426802345882     1.322753827787     1.007825032230
         H            3.479017181841     0.883548345882     0.292681827787     1.007825032230
         H            2.832509181841     1.303192345882    -1.305436172213     1.007825032230
         H            3.166152181841     2.575806345882    -0.109580172213     1.007825032230
         H            1.524984181841    -2.467596654118    -0.648966172213     1.007825032230
         H            3.007963181841    -1.510562654118    -0.466630172213     1.007825032230
         H            2.620404181841    -2.776992654118     0.717365827787     1.007825032230
         H           -3.767216818159     0.580252345882     1.673063827787     1.007825032230
         H           -3.471565818159     0.940276345882    -0.040165172213     1.007825032230
         H           -3.454602818159    -0.739974654118     0.527768827787     1.007825032230

  Basis Set: AUG-CC-PVTZ
    Blend: AUG-CC-PVTZ
  Basis Set: (AUG-CC-PVTZ AUX)
    Blend: AUG-CC-PVTZ-JKFIT
	 Reference Energy          =    -837.7650887661260413 [Eh]
	 Singles Energy            =      -0.0000000000000000 [Eh]
	 Same-Spin Energy          =      -0.5178937819513627 [Eh]
	 Opposite-Spin Energy      =      -1.6710533235118803 [Eh]
	 Correlation Energy        =      -2.1889471054632432 [Eh]
	 Total Energy              =    -839.9540358715893262 [Eh]

	 ================> DF-SCS-MP2 Energies <==================
	-----------------------------------------------------------
	 SCS Same-Spin Scale       =       0.3333333333333333 [-]
	 SCS Opposite-Spin Scale   =       1.2000000000000000 [-]
	 SCS Same-Spin Energy      =      -0.1726312606504542 [Eh]
	 SCS Opposite-Spin Energy  =      -2.0052639882142564 [Eh]
	 SCS Correlation Energy    =      -2.1778952488647105 [Eh]
	 SCS Total Energy          =    -839.9429840149907704 [Eh]
	-----------------------------------------------------------

  Dipole Moment: [D]
     X:     1.6293      Y:     1.4345      Z:     4.2903     Total:     4.8082

*** Psi4 exiting successfully. Buy a developer a beer!
