                               Psi4 1.3.2 release

  ==> Input File <==

--------------------------------------------------------------------------
#psi4
#
memory 32 gb

molecule  {
0 1
  S       -0.7380000    -0.0680220    -0.3640970
  O       -0.9985734     0.9353879    -1.3987103
  O       -0.9666500    -1.4966470    -0.5970260
  N        0.8603487     0.0940907     0.0603749
  C        1.3822580     1.4387740     0.2709440
  C        1.4230980    -0.9933220     0.9046550
  C       -1.6975890     0.4015790     1.0774410
  C        2.8090910     1.5534440    -0.2422640
  C        2.2024570    -1.9997400     0.0750250
  C       -3.1888920     0.2878700     0.7901350
  H        0.7441850     2.1234290    -0.2885820
  H        1.3352270     1.7155400     1.3356310
  H        2.0636810    -0.5196560     1.6565250
  H        0.6239660    -1.5103280     1.4462590
  H       -1.3901500    -0.2576530     1.8936760
  H       -1.4092710     1.4273450     1.3241250
  H        3.4861350     0.8840910     0.2940530
  H        2.8396270     1.3037350    -1.3040650
  H        3.1732700     2.5763490    -0.1082090
  H        1.5321020    -2.4670540    -0.6475950
  H        3.0150810    -1.5100200    -0.4652590
  H        2.6275220    -2.7764500     0.7187370
  H       -3.7600990     0.5807950     1.6744350
  H       -3.4644480     0.9408190    -0.0387940
  H       -3.4474850    -0.7394320     0.5291400
units angstrom
no_reorient  #important for SAPT in psi4, default
symmetry c1  #important for SAPT in psi4, default
}

set PROPERTIES_ORIGIN ["COM"]
properties('MP2/aug-cc-pvtz', properties = ['dipole'])
--------------------------------------------------------------------------

    Molecular point group: c1
  Charge       = 0
  Multiplicity = 1
  Basis Set: AUG-CC-PVTZ
    Blend: AUG-CC-PVTZ
  Basis Set: (AUG-CC-PVTZ AUX)
    Blend: AUG-CC-PVTZ-JKFIT

    Orbital Energies [Eh]
    ---------------------

    Doubly Occupied:

       1A    -92.190728     2A    -20.539798     3A    -20.537965
       4A    -15.593298     5A    -11.276926     6A    -11.275978
       7A    -11.274971     8A    -11.237264     9A    -11.227198
      10A    -11.216646    11A     -9.156452    12A     -6.841547
      13A     -6.840790    14A     -6.840709    15A     -1.444003
      16A     -1.327378    17A     -1.248134    18A     -1.078690
      19A     -1.045901    20A     -1.009919    21A     -0.916118
      22A     -0.869282    23A     -0.857224    24A     -0.774513
      25A     -0.720510    26A     -0.670721    27A     -0.667591
      28A     -0.652238    29A     -0.640162    30A     -0.611861
      31A     -0.600566    32A     -0.576325    33A     -0.572498
      34A     -0.549978    35A     -0.544357    36A     -0.540605
      37A     -0.527268    38A     -0.519401    39A     -0.511701
      40A     -0.496512    41A     -0.488933    42A     -0.486468
      43A     -0.460458    44A     -0.446148    45A     -0.396169

  @DF-RHF Final Energy:  -837.77647560883611

   => Energetics <=

    Nuclear Repulsion Energy =            743.5332611105392289
    One-Electron Energy =               -2626.0156743961897519
    Two-Electron Energy =                1044.7059376768145285
    Total Energy =                       -837.7764756088361082
  Basis Set: (AUG-CC-PVTZ AUX)
    Blend: AUG-CC-PVTZ-RI
    Molecular point group: c1

    Geometry (in Angstrom), charge = 0, multiplicity = 1:

       Center              X                  Y                   Z               Mass
    ------------   -----------------  -----------------  -----------------  -----------------
         S           -0.739304420876    -0.069318901509    -0.363351515298    31.972071174400
         O           -0.999877820876     0.934090998491    -1.397964815298    15.994914619570
         O           -0.967954420876    -1.497943901509    -0.596280515298    15.994914619570
         N            0.859044279124     0.092793798491     0.061120384702    14.003074004430
         C            1.380953579124     1.437477098491     0.271689484702    12.000000000000
         C            1.421793579124    -0.994618901509     0.905400484702    12.000000000000
         C           -1.698893420876     0.400282098491     1.078186484702    12.000000000000
         C            2.807786579124     1.552147098491    -0.241518515298    12.000000000000
         C            2.201152579124    -2.001036901509     0.075770484702    12.000000000000
         C           -3.190196420876     0.286573098491     0.790880484702    12.000000000000
         H            0.742880579124     2.122132098491    -0.287836515298     1.007825032230
         H            1.333922579124     1.714243098491     1.336376484702     1.007825032230
         H            2.062376579124    -0.520952901509     1.657270484702     1.007825032230
         H            0.622661579124    -1.511624901509     1.447004484702     1.007825032230
         H           -1.391454420876    -0.258949901509     1.894421484702     1.007825032230
         H           -1.410575420876     1.426048098491     1.324870484702     1.007825032230
         H            3.484830579124     0.882794098491     0.294798484702     1.007825032230
         H            2.838322579124     1.302438098491    -1.303319515298     1.007825032230
         H            3.171965579124     2.575052098491    -0.107463515298     1.007825032230
         H            1.530797579124    -2.468350901509    -0.646849515298     1.007825032230
         H            3.013776579124    -1.511316901509    -0.464513515298     1.007825032230
         H            2.626217579124    -2.777746901509     0.719482484702     1.007825032230
         H           -3.761403420876     0.579498098491     1.675180484702     1.007825032230
         H           -3.465752420876     0.939522098491    -0.038048515298     1.007825032230
         H           -3.448789420876    -0.740728901509     0.529885484702     1.007825032230

  Basis Set: AUG-CC-PVTZ
    Blend: AUG-CC-PVTZ
  Basis Set: (AUG-CC-PVTZ AUX)
    Blend: AUG-CC-PVTZ-JKFIT
	 Reference Energy          =    -837.7764756088361082 [Eh]
	 Singles Energy            =      -0.0000000000000000 [Eh]
	 Same-Spin Energy          =      -0.5168076966888686 [Eh]
	 Opposite-Spin Energy      =      -1.6698183020687343 [Eh]
	 Correlation Energy        =      -2.1866259987576031 [Eh]
	 Total Energy              =    -839.9631016075936714 [Eh]

	 ================> DF-SCS-MP2 Energies <==================
	-----------------------------------------------------------
	 SCS Same-Spin Scale       =       0.3333333333333333 [-]
	 SCS Opposite-Spin Scale   =       1.2000000000000000 [-]
	 SCS Same-Spin Energy      =      -0.1722692322296229 [Eh]
	 SCS Opposite-Spin Energy  =      -2.0037819624824809 [Eh]
	 SCS Correlation Energy    =      -2.1760511947121035 [Eh]
	 SCS Total Energy          =    -839.9525268035482668 [Eh]
	-----------------------------------------------------------

  Dipole Moment: [D]
     X:     1.5469      Y:     1.3864      Z:     4.3344     Total:     4.8065

*** Psi4 exiting successfully. Buy a developer a beer!
