                               Psi4 1.3.2 release

  ==> Input File <==

--------------------------------------------------------------------------
#psi4
#
memory 32 gb

molecule  {
0 1
  S       -0.7380000    -0.0680220    -0.3640970
  O       -1.0107130     0.9314480    -1.3993950
  O       -0.9666500    -1.4966470    -0.5970260
  N        0.8588360     0.0833010     0.0699440
  C        1.3822580     1.4387740     0.2709440
  C        1.4230980    -0.9933220     0.9046550
  C       -1.6975890     0.4015790     1.0774410
  C        2.8090910     1.5534440    -0.2422640
  C        2.2024570    -1.9997400     0.0750250
  C       -3.3847325     0.2729375     0.7524055
  H        0.7441850     2.1234290    -0.2885820
  H        1.3352270     1.7155400     1.3356310
  H        2.0636810    -0.5196560     1.6565250
  H        0.6239660    -1.5103280     1.4462590
  H       -1.3901500    -0.2576530     1.8936760
  H       -1.4092710     1.4273450     1.3241250
  H        3.4861350     0.8840910     0.2940530
  H        2.8396270     1.3037350    -1.3040650
  H        3.1732700     2.5763490    -0.1082090
  H        1.5321020    -2.4670540    -0.6475950
  H        3.0150810    -1.5100200    -0.4652590
  H        2.6275220    -2.7764500     0.7187370
  H       -3.7600990     0.5807950     1.6744350
  H       -3.4644480     0.9408190    -0.0387940
  H       -3.4474850    -0.7394320     0.5291400
units angstrom
no_reorient  #important for SAPT in psi4, default
symmetry c1  #important for SAPT in psi4, default
}

set PROPERTIES_ORIGIN ["COM"]
properties('MP2/aug-cc-pvtz', properties = ['dipole'])
--------------------------------------------------------------------------

    Molecular point group: c1
  Charge       = 0
  Multiplicity = 1
  Basis Set: AUG-CC-PVTZ
    Blend: AUG-CC-PVTZ
  Basis Set: (AUG-CC-PVTZ AUX)
    Blend: AUG-CC-PVTZ-JKFIT

    Orbital Energies [Eh]
    ---------------------

    Doubly Occupied:

       1A    -92.189528     2A    -20.537273     3A    -20.537078
       4A    -15.591988     5A    -11.277620     6A    -11.275286
       7A    -11.274959     8A    -11.241434     9A    -11.227059
      10A    -11.215419    11A     -9.154930    12A     -6.840046
      13A     -6.839331    14A     -6.839196    15A     -1.442054
      16A     -1.325585    17A     -1.247589    18A     -1.054135
      19A     -1.045338    20A     -1.006990    21A     -0.927619
      22A     -0.868946    23A     -0.859893    24A     -0.771275
      25A     -0.717545    26A     -0.667625    27A     -0.663938
      28A     -0.649307    29A     -0.639533    30A     -0.614073
      31A     -0.600311    32A     -0.595096    33A     -0.575402
      34A     -0.557954    35A     -0.549351    36A     -0.541466
      37A     -0.519357    38A     -0.511832    39A     -0.498033
      40A     -0.490636    41A     -0.485829    42A     -0.484537
      43A     -0.459194    44A     -0.445295    45A     -0.391692

  @DF-RHF Final Energy:  -837.75096866344359

   => Energetics <=

    Nuclear Repulsion Energy =            739.7751310268380394
    One-Electron Energy =               -2618.5550506919703366
    Two-Electron Energy =                1041.0289510016887107
    Total Energy =                       -837.7509686634434729
  Basis Set: (AUG-CC-PVTZ AUX)
    Blend: AUG-CC-PVTZ-RI
    Molecular point group: c1

    Geometry (in Angstrom), charge = 0, multiplicity = 1:

       Center              X                  Y                   Z               Mass
    ------------   -----------------  -----------------  -----------------  -----------------
         S           -0.723764053798    -0.066936470365    -0.361354276328    31.972071174400
         O           -0.996477053798     0.932533529635    -1.396652276328    15.994914619570
         O           -0.952414053798    -1.495561470365    -0.594283276328    15.994914619570
         N            0.873071946202     0.084386529635     0.072686723672    14.003074004430
         C            1.396493946202     1.439859529635     0.273686723672    12.000000000000
         C            1.437333946202    -0.992236470365     0.907397723672    12.000000000000
         C           -1.683353053798     0.402664529635     1.080183723672    12.000000000000
         C            2.823326946202     1.554529529635    -0.239521276328    12.000000000000
         C            2.216692946202    -1.998654470365     0.077767723672    12.000000000000
         C           -3.370496553798     0.274023029635     0.755148223672    12.000000000000
         H            0.758420946202     2.124514529635    -0.285839276328     1.007825032230
         H            1.349462946202     1.716625529635     1.338373723672     1.007825032230
         H            2.077916946202    -0.518570470365     1.659267723672     1.007825032230
         H            0.638201946202    -1.509242470365     1.449001723672     1.007825032230
         H           -1.375914053798    -0.256567470365     1.896418723672     1.007825032230
         H           -1.395035053798     1.428430529635     1.326867723672     1.007825032230
         H            3.500370946202     0.885176529635     0.296795723672     1.007825032230
         H            2.853862946202     1.304820529635    -1.301322276328     1.007825032230
         H            3.187505946202     2.577434529635    -0.105466276328     1.007825032230
         H            1.546337946202    -2.465968470365    -0.644852276328     1.007825032230
         H            3.029316946202    -1.508934470365    -0.462516276328     1.007825032230
         H            2.641757946202    -2.775364470365     0.721479723672     1.007825032230
         H           -3.745863053798     0.581880529635     1.677177723672     1.007825032230
         H           -3.450212053798     0.941904529635    -0.036051276328     1.007825032230
         H           -3.433249053798    -0.738346470365     0.531882723672     1.007825032230

  Basis Set: AUG-CC-PVTZ
    Blend: AUG-CC-PVTZ
  Basis Set: (AUG-CC-PVTZ AUX)
    Blend: AUG-CC-PVTZ-JKFIT
	 Reference Energy          =    -837.7509686634435866 [Eh]
	 Singles Energy            =      -0.0000000000000000 [Eh]
	 Same-Spin Energy          =      -0.5165515531561269 [Eh]
	 Opposite-Spin Energy      =      -1.6706300089882364 [Eh]
	 Correlation Energy        =      -2.1871815621443633 [Eh]
	 Total Energy              =    -839.9381502255879468 [Eh]

	 ================> DF-SCS-MP2 Energies <==================
	-----------------------------------------------------------
	 SCS Same-Spin Scale       =       0.3333333333333333 [-]
	 SCS Opposite-Spin Scale   =       1.2000000000000000 [-]
	 SCS Same-Spin Energy      =      -0.1721838510520423 [Eh]
	 SCS Opposite-Spin Energy  =      -2.0047560107858837 [Eh]
	 SCS Correlation Energy    =      -2.1769398618379259 [Eh]
	 SCS Total Energy          =    -839.9279085252815094 [Eh]
	-----------------------------------------------------------

  Dipole Moment: [D]
     X:     1.5162      Y:     1.4517      Z:     4.3467     Total:     4.8271

*** Psi4 exiting successfully. Buy a developer a beer!
