                               Psi4 1.3.2 release

  ==> Input File <==

--------------------------------------------------------------------------
#psi4
#
memory 32 gb

molecule  {
0 1
  S       -0.7380000    -0.0680220    -0.3640970
  O       -1.0107130     0.9314480    -1.3993950
  O       -0.9666500    -1.4966470    -0.5970260
  N        0.8147152     0.0981440     0.0912636
  C        1.3822580     1.4387740     0.2709440
  C        1.4230980    -0.9933220     0.9046550
  C       -1.6975890     0.4015790     1.0774410
  C        2.8093974     1.6043651    -0.2272896
  C        2.2024570    -1.9997400     0.0750250
  C       -3.1888920     0.2878700     0.7901350
  H        0.7441850     2.1234290    -0.2885820
  H        1.3352270     1.7155400     1.3356310
  H        2.0636810    -0.5196560     1.6565250
  H        0.6239660    -1.5103280     1.4462590
  H       -1.3901500    -0.2576530     1.8936760
  H       -1.4092710     1.4273450     1.3241250
  H        3.4861350     0.8840910     0.2940530
  H        2.8396270     1.3037350    -1.3040650
  H        3.1732700     2.5763490    -0.1082090
  H        1.5321020    -2.4670540    -0.6475950
  H        3.0150810    -1.5100200    -0.4652590
  H        2.6275220    -2.7764500     0.7187370
  H       -3.7600990     0.5807950     1.6744350
  H       -3.4644480     0.9408190    -0.0387940
  H       -3.4474850    -0.7394320     0.5291400
units angstrom
no_reorient  #important for SAPT in psi4, default
symmetry c1  #important for SAPT in psi4, default
}

set PROPERTIES_ORIGIN ["COM"]
properties('MP2/aug-cc-pvtz', properties = ['dipole'])
--------------------------------------------------------------------------

    Molecular point group: c1
  Charge       = 0
  Multiplicity = 1
  Basis Set: AUG-CC-PVTZ
    Blend: AUG-CC-PVTZ
  Basis Set: (AUG-CC-PVTZ AUX)
    Blend: AUG-CC-PVTZ-JKFIT

    Orbital Energies [Eh]
    ---------------------

    Doubly Occupied:

       1A    -92.190114     2A    -20.538192     3A    -20.537046
       4A    -15.593470     5A    -11.279232     6A    -11.277806
       7A    -11.272313     8A    -11.234568     9A    -11.230211
      10A    -11.218556    11A     -9.155783    12A     -6.841058
      13A     -6.840203    14A     -6.840034    15A     -1.445158
      16A     -1.326303    17A     -1.250952    18A     -1.076370
      19A     -1.046730    20A     -1.015886    21A     -0.915715
      22A     -0.871617    23A     -0.861304    24A     -0.771383
      25A     -0.719723    26A     -0.672176    27A     -0.667751
      28A     -0.649614    29A     -0.639757    30A     -0.611623
      31A     -0.600359    32A     -0.587135    33A     -0.572146
      34A     -0.549648    35A     -0.546162    36A     -0.539972
      37A     -0.525730    38A     -0.519074    39A     -0.507853
      40A     -0.494428    41A     -0.491686    42A     -0.486131
      43A     -0.459385    44A     -0.446344    45A     -0.397005

  @DF-RHF Final Energy:  -837.77377204874801

   => Energetics <=

    Nuclear Repulsion Energy =            743.8632980494525100
    One-Electron Energy =               -2626.6467245627727607
    Two-Electron Energy =                1045.0096544645721224
    Total Energy =                       -837.7737720487480146
  Basis Set: (AUG-CC-PVTZ AUX)
    Blend: AUG-CC-PVTZ-RI
    Molecular point group: c1

    Geometry (in Angstrom), charge = 0, multiplicity = 1:

       Center              X                  Y                   Z               Mass
    ------------   -----------------  -----------------  -----------------  -----------------
         S           -0.734279629651    -0.072982488174    -0.366993805551    31.972071174400
         O           -1.006992629651     0.926487511826    -1.402291805551    15.994914619570
         O           -0.962929629651    -1.501607488174    -0.599922805551    15.994914619570
         N            0.818435570349     0.093183511826     0.088366794449    14.003074004430
         C            1.385978370349     1.433813511826     0.268047194449    12.000000000000
         C            1.426818370349    -0.998282488174     0.901758194449    12.000000000000
         C           -1.693868629651     0.396618511826     1.074544194449    12.000000000000
         C            2.813117770349     1.599404611826    -0.230186405551    12.000000000000
         C            2.206177370349    -2.004700488174     0.072128194449    12.000000000000
         C           -3.185171629651     0.282909511826     0.787238194449    12.000000000000
         H            0.747905370349     2.118468511826    -0.291478805551     1.007825032230
         H            1.338947370349     1.710579511826     1.332734194449     1.007825032230
         H            2.067401370349    -0.524616488174     1.653628194449     1.007825032230
         H            0.627686370349    -1.515288488174     1.443362194449     1.007825032230
         H           -1.386429629651    -0.262613488174     1.890779194449     1.007825032230
         H           -1.405550629651     1.422384511826     1.321228194449     1.007825032230
         H            3.489855370349     0.879130511826     0.291156194449     1.007825032230
         H            2.843347370349     1.298774511826    -1.306961805551     1.007825032230
         H            3.176990370349     2.571388511826    -0.111105805551     1.007825032230
         H            1.535822370349    -2.472014488174    -0.650491805551     1.007825032230
         H            3.018801370349    -1.514980488174    -0.468155805551     1.007825032230
         H            2.631242370349    -2.781410488174     0.715840194449     1.007825032230
         H           -3.756378629651     0.575834511826     1.671538194449     1.007825032230
         H           -3.460727629651     0.935858511826    -0.041690805551     1.007825032230
         H           -3.443764629651    -0.744392488174     0.526243194449     1.007825032230

  Basis Set: AUG-CC-PVTZ
    Blend: AUG-CC-PVTZ
  Basis Set: (AUG-CC-PVTZ AUX)
    Blend: AUG-CC-PVTZ-JKFIT
	 Reference Energy          =    -837.7737720487480146 [Eh]
	 Singles Energy            =      -0.0000000000000000 [Eh]
	 Same-Spin Energy          =      -0.5164356493301769 [Eh]
	 Opposite-Spin Energy      =      -1.6689943229393607 [Eh]
	 Correlation Energy        =      -2.1854299722695378 [Eh]
	 Total Energy              =    -839.9592020210175178 [Eh]

	 ================> DF-SCS-MP2 Energies <==================
	-----------------------------------------------------------
	 SCS Same-Spin Scale       =       0.3333333333333333 [-]
	 SCS Opposite-Spin Scale   =       1.2000000000000000 [-]
	 SCS Same-Spin Energy      =      -0.1721452164433923 [Eh]
	 SCS Opposite-Spin Energy  =      -2.0027931875272329 [Eh]
	 SCS Correlation Energy    =      -2.1749384039706250 [Eh]
	 SCS Total Energy          =    -839.9487104527186148 [Eh]
	-----------------------------------------------------------

  Dipole Moment: [D]
     X:     1.8361      Y:     1.3979      Z:     4.2874     Total:     4.8690

*** Psi4 exiting successfully. Buy a developer a beer!
