                               Psi4 1.4a3.dev225

  ==> Input File <==

--------------------------------------------------------------------------
#psi4
#
memory 32 gb

molecule  {
0 1
  S        0.7616280     0.0424770    -0.4366460
  O        1.0024240    -1.0592090    -1.3727360
  O        0.9495440     1.4436620    -0.8249950
  N       -0.8076120    -0.0882160     0.0931460
  C       -1.3116114    -1.4051794     0.4238070
  C       -1.3686840     1.0652840     0.8208400
  C        1.8058710    -0.2545270     0.9952940
  C       -2.7505920    -1.6006810    -0.0558370
  C       -2.1814690     1.9714470    -0.0911900
  C        3.2787560    -0.1326200     0.6229570
  H       -0.6761480    -2.1530350    -0.0688350
  H       -1.2569730    -1.5943860     1.5141500
  H       -1.9866060     0.6632120     1.6319710
  H       -0.5646970     1.6429440     1.2905320
  H        1.5186250     0.4781900     1.7554980
  H        1.5601880    -1.2573080     1.3582850
  H       -3.4295210    -0.8918450     0.4253230
  H       -2.7963610    -1.4499180    -1.1363750
  H       -3.1014500    -2.6111540     0.1760480
  H       -1.5338360     2.3728670    -0.8718090
  H       -2.9953600     1.4152720    -0.5615490
  H       -2.6084920     2.8033720     0.4789350
  H        3.8991710    -0.3169240     1.5035790
  H        3.5375790    -0.8611900    -0.1476860
  H        3.4935140     0.8689240     0.2454810
units angstrom
no_reorient  #important for SAPT in psi4, default
symmetry c1  #important for SAPT in psi4, default
}

set PROPERTIES_ORIGIN ["COM"]
properties('MP2/aug-cc-pvtz', properties = ['dipole'])
--------------------------------------------------------------------------

    Molecular point group: c1
  Charge       = 0
  Multiplicity = 1
  Basis Set: AUG-CC-PVTZ
    Blend: AUG-CC-PVTZ
  Basis Set: (AUG-CC-PVTZ AUX)
    Blend: AUG-CC-PVTZ-JKFIT

    Orbital Energies [Eh]
    ---------------------

    Doubly Occupied:

       1A    -92.191970     2A    -20.539609     3A    -20.539521
       4A    -15.593818     5A    -11.277012     6A    -11.276265
       7A    -11.275939     8A    -11.237177     9A    -11.227391
      10A    -11.216558    11A     -9.157498    12A     -6.842612
      13A     -6.841839    14A     -6.841752    15A     -1.444088
      16A     -1.327571    17A     -1.251962    18A     -1.077554
      19A     -1.044915    20A     -1.008906    21A     -0.916498
      22A     -0.870238    23A     -0.857632    24A     -0.773959
      25A     -0.721105    26A     -0.671370    27A     -0.667500
      28A     -0.651202    29A     -0.638841    30A     -0.612099
      31A     -0.600873    32A     -0.577409    33A     -0.572034
      34A     -0.549387    35A     -0.542722    36A     -0.540868
      37A     -0.526755    38A     -0.519152    39A     -0.511606
      40A     -0.496302    41A     -0.489762    42A     -0.486829
      43A     -0.460737    44A     -0.445737    45A     -0.394111

  @DF-RHF Final Energy:  -837.77615672707896

   => Energetics <=

    Nuclear Repulsion Energy =            743.2395649455794455
    One-Electron Energy =               -2625.4140750659098558
    Two-Electron Energy =                1044.3983533932514547
    Total Energy =                       -837.7761567270790692
  Basis Set: (AUG-CC-PVTZ AUX)
    Blend: AUG-CC-PVTZ-RI
    Molecular point group: c1

    Geometry (in Angstrom), charge = 0, multiplicity = 1:

       Center              X                  Y                   Z               Mass
    ------------   -----------------  -----------------  -----------------  -----------------
         S            0.719613168430     0.035820881630    -0.390818892455    31.972071174400
         O            0.960409168430    -1.065865118370    -1.326908892455    15.994914619570
         O            0.907529168430     1.437005881630    -0.779167892455    15.994914619570
         N           -0.849626831570    -0.094872118370     0.138973107545    14.003074004430
         C           -1.353626231570    -1.411835518370     0.469634107545    12.000000000000
         C           -1.410698831570     1.058627881630     0.866667107545    12.000000000000
         C            1.763856168430    -0.261183118370     1.041121107545    12.000000000000
         C           -2.792606831570    -1.607337118370    -0.010009892455    12.000000000000
         C           -2.223483831570     1.964790881630    -0.045362892455    12.000000000000
         C            3.236741168430    -0.139276118370     0.668784107545    12.000000000000
         H           -0.718162831570    -2.159691118370    -0.023007892455     1.007825032230
         H           -1.298987831570    -1.601042118370     1.559977107545     1.007825032230
         H           -2.028620831570     0.656555881630     1.677798107545     1.007825032230
         H           -0.606711831570     1.636287881630     1.336359107545     1.007825032230
         H            1.476610168430     0.471533881630     1.801325107545     1.007825032230
         H            1.518173168430    -1.263964118370     1.404112107545     1.007825032230
         H           -3.471535831570    -0.898501118370     0.471150107545     1.007825032230
         H           -2.838375831570    -1.456574118370    -1.090547892455     1.007825032230
         H           -3.143464831570    -2.617810118370     0.221875107545     1.007825032230
         H           -1.575850831570     2.366210881630    -0.825981892455     1.007825032230
         H           -3.037374831570     1.408615881630    -0.515721892455     1.007825032230
         H           -2.650506831570     2.796715881630     0.524762107545     1.007825032230
         H            3.857156168430    -0.323580118370     1.549406107545     1.007825032230
         H            3.495564168430    -0.867846118370    -0.101858892455     1.007825032230
         H            3.451499168430     0.862267881630     0.291308107545     1.007825032230

  Basis Set: AUG-CC-PVTZ
    Blend: AUG-CC-PVTZ
  Basis Set: (AUG-CC-PVTZ AUX)
    Blend: AUG-CC-PVTZ-JKFIT
	 Reference Energy          =    -837.7761567270789556 [Eh]
	 Singles Energy            =      -0.0000000000000000 [Eh]
	 Same-Spin Energy          =      -0.5167755034571817 [Eh]
	 Opposite-Spin Energy      =      -1.6697974299072131 [Eh]
	 Correlation Energy        =      -2.1865729333643946 [Eh]
	 Total Energy              =    -839.9627296604433013 [Eh]

	 ================> DF-SCS-MP2 Energies <==================
	-----------------------------------------------------------
	 SCS Same-Spin Scale       =       0.3333333333333333 [-]
	 SCS Opposite-Spin Scale   =       1.2000000000000000 [-]
	 SCS Same-Spin Energy      =      -0.1722585011523939 [Eh]
	 SCS Opposite-Spin Energy  =      -2.0037569158886557 [Eh]
	 SCS Correlation Energy    =      -2.1760154170410497 [Eh]
	 SCS Total Energy          =    -839.9521721441200270 [Eh]
	-----------------------------------------------------------

  Dipole Moment: [D]
     X:    -1.3351      Y:    -0.9406      Z:     4.4336     Total:     4.7248

*** Psi4 exiting successfully. Buy a developer a beer!
