                               Psi4 1.4a3.dev225

  ==> Input File <==

--------------------------------------------------------------------------
#psi4
#
memory 32 gb

molecule  {
0 1
  S        0.7616280     0.0424770    -0.4366460
  O        1.0024240    -1.0592090    -1.3727360
  O        0.9495440     1.4436620    -0.8249950
  N       -0.8076120    -0.0882160     0.0931460
  C       -1.3185710    -1.4233650     0.4283730
  C       -1.3686840     1.0652840     0.8208400
  C        1.8174933    -0.2578326     1.0112313
  C       -2.7505920    -1.6006810    -0.0558370
  C       -2.1814690     1.9714470    -0.0911900
  C        3.2787560    -0.1326200     0.6229570
  H       -0.6761480    -2.1530350    -0.0688350
  H       -1.2569730    -1.5943860     1.5141500
  H       -1.9866060     0.6632120     1.6319710
  H       -0.5646970     1.6429440     1.2905320
  H        1.5186250     0.4781900     1.7554980
  H        1.5601880    -1.2573080     1.3582850
  H       -3.4295210    -0.8918450     0.4253230
  H       -2.7963610    -1.4499180    -1.1363750
  H       -3.1014500    -2.6111540     0.1760480
  H       -1.5338360     2.3728670    -0.8718090
  H       -2.9953600     1.4152720    -0.5615490
  H       -2.6084920     2.8033720     0.4789350
  H        3.8991710    -0.3169240     1.5035790
  H        3.5375790    -0.8611900    -0.1476860
  H        3.4935140     0.8689240     0.2454810
units angstrom
no_reorient  #important for SAPT in psi4, default
symmetry c1  #important for SAPT in psi4, default
}

set PROPERTIES_ORIGIN ["COM"]
properties('MP2/aug-cc-pvtz', properties = ['dipole'])
--------------------------------------------------------------------------

    Molecular point group: c1
  Charge       = 0
  Multiplicity = 1
  Basis Set: AUG-CC-PVTZ
    Blend: AUG-CC-PVTZ
  Basis Set: (AUG-CC-PVTZ AUX)
    Blend: AUG-CC-PVTZ-JKFIT

    Orbital Energies [Eh]
    ---------------------

    Doubly Occupied:

       1A    -92.190624     2A    -20.539063     3A    -20.538841
       4A    -15.592929     5A    -11.276756     6A    -11.276428
       7A    -11.275699     8A    -11.236290     9A    -11.227831
      10A    -11.216123    11A     -9.156054    12A     -6.841145
      13A     -6.840399    14A     -6.840261    15A     -1.442580
      16A     -1.326742    17A     -1.247350    18A     -1.076875
      19A     -1.045530    20A     -1.009368    21A     -0.914029
      22A     -0.869552    23A     -0.857417    24A     -0.773887
      25A     -0.718522    26A     -0.670312    27A     -0.666738
      28A     -0.651617    29A     -0.639329    30A     -0.612124
      31A     -0.599470    32A     -0.577708    33A     -0.571385
      34A     -0.550679    35A     -0.544561    36A     -0.541260
      37A     -0.526876    38A     -0.519421    39A     -0.512378
      40A     -0.497587    41A     -0.489047    42A     -0.485240
      43A     -0.460655    44A     -0.442949    45A     -0.393525

  @DF-RHF Final Energy:  -837.77625721211177

   => Energetics <=

    Nuclear Repulsion Energy =            742.3538568521245224
    One-Electron Energy =               -2623.6939120530810214
    Two-Electron Energy =                1043.5637979888447262
    Total Energy =                       -837.7762572121118865
  Basis Set: (AUG-CC-PVTZ AUX)
    Blend: AUG-CC-PVTZ-RI
    Molecular point group: c1

    Geometry (in Angstrom), charge = 0, multiplicity = 1:

       Center              X                  Y                   Z               Mass
    ------------   -----------------  -----------------  -----------------  -----------------
         S            0.719274232136     0.037383098306    -0.392309297699    31.972071174400
         O            0.960070232136    -1.064302901694    -1.328399297699    15.994914619570
         O            0.907190232136     1.438568098306    -0.780658297699    15.994914619570
         N           -0.849965767864    -0.093309901694     0.137482702301    14.003074004430
         C           -1.360924767864    -1.428458901694     0.472709702301    12.000000000000
         C           -1.411037767864     1.060190098306     0.865176702301    12.000000000000
         C            1.775139532136    -0.262926501694     1.055568002301    12.000000000000
         C           -2.792945767864    -1.605774901694    -0.011500297699    12.000000000000
         C           -2.223822767864     1.966353098306    -0.046853297699    12.000000000000
         C            3.236402232136    -0.137713901694     0.667293702301    12.000000000000
         H           -0.718501767864    -2.158128901694    -0.024498297699     1.007825032230
         H           -1.299326767864    -1.599479901694     1.558486702301     1.007825032230
         H           -2.028959767864     0.658118098306     1.676307702301     1.007825032230
         H           -0.607050767864     1.637850098306     1.334868702301     1.007825032230
         H            1.476271232136     0.473096098306     1.799834702301     1.007825032230
         H            1.517834232136    -1.262401901694     1.402621702301     1.007825032230
         H           -3.471874767864    -0.896938901694     0.469659702301     1.007825032230
         H           -2.838714767864    -1.455011901694    -1.092038297699     1.007825032230
         H           -3.143803767864    -2.616247901694     0.220384702301     1.007825032230
         H           -1.576189767864     2.367773098306    -0.827472297699     1.007825032230
         H           -3.037713767864     1.410178098306    -0.517212297699     1.007825032230
         H           -2.650845767864     2.798278098306     0.523271702301     1.007825032230
         H            3.856817232136    -0.322017901694     1.547915702301     1.007825032230
         H            3.495225232136    -0.866283901694    -0.103349297699     1.007825032230
         H            3.451160232136     0.863830098306     0.289817702301     1.007825032230

  Basis Set: AUG-CC-PVTZ
    Blend: AUG-CC-PVTZ
  Basis Set: (AUG-CC-PVTZ AUX)
    Blend: AUG-CC-PVTZ-JKFIT
	 Reference Energy          =    -837.7762572121117728 [Eh]
	 Singles Energy            =      -0.0000000000000000 [Eh]
	 Same-Spin Energy          =      -0.5166739232731687 [Eh]
	 Opposite-Spin Energy      =      -1.6698462920800108 [Eh]
	 Correlation Energy        =      -2.1865202153531795 [Eh]
	 Total Energy              =    -839.9627774274649710 [Eh]

	 ================> DF-SCS-MP2 Energies <==================
	-----------------------------------------------------------
	 SCS Same-Spin Scale       =       0.3333333333333333 [-]
	 SCS Opposite-Spin Scale   =       1.2000000000000000 [-]
	 SCS Same-Spin Energy      =      -0.1722246410910562 [Eh]
	 SCS Opposite-Spin Energy  =      -2.0038155504960127 [Eh]
	 SCS Correlation Energy    =      -2.1760401915870689 [Eh]
	 SCS Total Energy          =    -839.9522974036988217 [Eh]
	-----------------------------------------------------------

  Dipole Moment: [D]
     X:    -1.3918      Y:    -0.9892      Z:     4.4389     Total:     4.7560

*** Psi4 exiting successfully. Buy a developer a beer!
