                               Psi4 1.3.2 release

  ==> Input File <==

--------------------------------------------------------------------------
#psi4
#
memory 32 gb

molecule  {
0 1
  S       -0.7365003    -0.0824430    -0.3643443
  O       -1.0107130     0.9314480    -1.3993950
  O       -0.9666500    -1.4966470    -0.5970260
  N        0.8588360     0.0833010     0.0699440
  C        1.3937301     1.4338612     0.2737924
  C        1.4230980    -0.9933220     0.9046550
  C       -1.6975890     0.4015790     1.0774410
  C        2.8090910     1.5534440    -0.2422640
  C        2.2024570    -1.9997400     0.0750250
  C       -3.1888920     0.2878700     0.7901350
  H        0.7441850     2.1234290    -0.2885820
  H        1.3352270     1.7155400     1.3356310
  H        2.0636810    -0.5196560     1.6565250
  H        0.6239660    -1.5103280     1.4462590
  H       -1.3901500    -0.2576530     1.8936760
  H       -1.4092710     1.4273450     1.3241250
  H        3.4861350     0.8840910     0.2940530
  H        2.8396270     1.3037350    -1.3040650
  H        3.1732700     2.5763490    -0.1082090
  H        1.5321020    -2.4670540    -0.6475950
  H        3.0150810    -1.5100200    -0.4652590
  H        2.6275220    -2.7764500     0.7187370
  H       -3.7600990     0.5807950     1.6744350
  H       -3.4644480     0.9408190    -0.0387940
  H       -3.4474850    -0.7394320     0.5291400
units angstrom
no_reorient  #important for SAPT in psi4, default
symmetry c1  #important for SAPT in psi4, default
}

set PROPERTIES_ORIGIN ["COM"]
properties('MP2/aug-cc-pvtz', properties = ['dipole'])
--------------------------------------------------------------------------

    Molecular point group: c1
  Charge       = 0
  Multiplicity = 1
  Basis Set: AUG-CC-PVTZ
    Blend: AUG-CC-PVTZ
  Basis Set: (AUG-CC-PVTZ AUX)
    Blend: AUG-CC-PVTZ-JKFIT

    Orbital Energies [Eh]
    ---------------------

    Doubly Occupied:

       1A    -92.190955     2A    -20.542272     3A    -20.536406
       4A    -15.593154     5A    -11.276559     6A    -11.275957
       7A    -11.274989     8A    -11.236395     9A    -11.227512
      10A    -11.216617    11A     -9.156607    12A     -6.841711
      13A     -6.841013    14A     -6.840827    15A     -1.445992
      16A     -1.328033    17A     -1.249016    18A     -1.077120
      19A     -1.047220    20A     -1.010786    21A     -0.915344
      22A     -0.869210    23A     -0.857397    24A     -0.774012
      25A     -0.720282    26A     -0.671343    27A     -0.667632
      28A     -0.651665    29A     -0.640376    30A     -0.612409
      31A     -0.599910    32A     -0.578737    33A     -0.572173
      34A     -0.550043    35A     -0.545476    36A     -0.540731
      37A     -0.526554    38A     -0.519898    39A     -0.512294
      40A     -0.495201    41A     -0.489264    42A     -0.487412
      43A     -0.460640    44A     -0.445617    45A     -0.395762

  @DF-RHF Final Energy:  -837.77640191515013

   => Energetics <=

    Nuclear Repulsion Energy =            743.5263096109750904
    One-Electron Energy =               -2625.9883781851549429
    Two-Electron Energy =                1044.6856666590294935
    Total Energy =                       -837.7764019151502453
  Basis Set: (AUG-CC-PVTZ AUX)
    Blend: AUG-CC-PVTZ-RI
    Molecular point group: c1

    Geometry (in Angstrom), charge = 0, multiplicity = 1:

       Center              X                  Y                   Z               Mass
    ------------   -----------------  -----------------  -----------------  -----------------
         S           -0.737624564727    -0.079292847232    -0.364503328739    31.972071174400
         O           -1.011837264727     0.934598152768    -1.399554028739    15.994914619570
         O           -0.967774264727    -1.493496847232    -0.597185028739    15.994914619570
         N            0.857711735273     0.086451152768     0.069784971261    14.003074004430
         C            1.392605835273     1.437011352768     0.273633371261    12.000000000000
         C            1.421973735273    -0.990171847232     0.904495971261    12.000000000000
         C           -1.698713264727     0.404729152768     1.077281971261    12.000000000000
         C            2.807966735273     1.556594152768    -0.242423028739    12.000000000000
         C            2.201332735273    -1.996589847232     0.074865971261    12.000000000000
         C           -3.190016264727     0.291020152768     0.789975971261    12.000000000000
         H            0.743060735273     2.126579152768    -0.288741028739     1.007825032230
         H            1.334102735273     1.718690152768     1.335471971261     1.007825032230
         H            2.062556735273    -0.516505847232     1.656365971261     1.007825032230
         H            0.622841735273    -1.507177847232     1.446099971261     1.007825032230
         H           -1.391274264727    -0.254502847232     1.893516971261     1.007825032230
         H           -1.410395264727     1.430495152768     1.323965971261     1.007825032230
         H            3.485010735273     0.887241152768     0.293893971261     1.007825032230
         H            2.838502735273     1.306885152768    -1.304224028739     1.007825032230
         H            3.172145735273     2.579499152768    -0.108368028739     1.007825032230
         H            1.530977735273    -2.463903847232    -0.647754028739     1.007825032230
         H            3.013956735273    -1.506869847232    -0.465418028739     1.007825032230
         H            2.626397735273    -2.773299847232     0.718577971261     1.007825032230
         H           -3.761223264727     0.583945152768     1.674275971261     1.007825032230
         H           -3.465572264727     0.943969152768    -0.038953028739     1.007825032230
         H           -3.448609264727    -0.736281847232     0.528980971261     1.007825032230

  Basis Set: AUG-CC-PVTZ
    Blend: AUG-CC-PVTZ
  Basis Set: (AUG-CC-PVTZ AUX)
    Blend: AUG-CC-PVTZ-JKFIT
	 Reference Energy          =    -837.7764019151501316 [Eh]
	 Singles Energy            =      -0.0000000000000000 [Eh]
	 Same-Spin Energy          =      -0.5167736153043361 [Eh]
	 Opposite-Spin Energy      =      -1.6697062197361341 [Eh]
	 Correlation Energy        =      -2.1864798350404699 [Eh]
	 Total Energy              =    -839.9628817501906042 [Eh]

	 ================> DF-SCS-MP2 Energies <==================
	-----------------------------------------------------------
	 SCS Same-Spin Scale       =       0.3333333333333333 [-]
	 SCS Opposite-Spin Scale   =       1.2000000000000000 [-]
	 SCS Same-Spin Energy      =      -0.1722578717681120 [Eh]
	 SCS Opposite-Spin Energy  =      -2.0036474636833610 [Eh]
	 SCS Correlation Energy    =      -2.1759053354514730 [Eh]
	 SCS Total Energy          =    -839.9523072506016206 [Eh]
	-----------------------------------------------------------

  Dipole Moment: [D]
     X:     1.6114      Y:     1.3254      Z:     4.3133     Total:     4.7915

*** Psi4 exiting successfully. Buy a developer a beer!
