                               Psi4 1.3.2 release

  ==> Input File <==

--------------------------------------------------------------------------
#psi4
#
memory 32 gb

molecule  {
0 1
  S       -0.7380000    -0.0680220    -0.3640970
  O       -1.0107130     0.9314480    -1.3993950
  O       -0.9666500    -1.4966470    -0.5970260
  N        0.8588360     0.0833010     0.0699440
  C        1.3979552     1.4297842     0.2890604
  C        1.4384674    -0.9761171     0.9160598
  C       -1.6975890     0.4015790     1.0774410
  C        2.8090910     1.5534440    -0.2422640
  C        2.2024570    -1.9997400     0.0750250
  C       -3.1888920     0.2878700     0.7901350
  H        0.7441850     2.1234290    -0.2885820
  H        1.3352270     1.7155400     1.3356310
  H        2.0636810    -0.5196560     1.6565250
  H        0.6239660    -1.5103280     1.4462590
  H       -1.3901500    -0.2576530     1.8936760
  H       -1.4092710     1.4273450     1.3241250
  H        3.4861350     0.8840910     0.2940530
  H        2.8396270     1.3037350    -1.3040650
  H        3.1732700     2.5763490    -0.1082090
  H        1.5321020    -2.4670540    -0.6475950
  H        3.0150810    -1.5100200    -0.4652590
  H        2.6275220    -2.7764500     0.7187370
  H       -3.7600990     0.5807950     1.6744350
  H       -3.4644480     0.9408190    -0.0387940
  H       -3.4474850    -0.7394320     0.5291400
units angstrom
no_reorient  #important for SAPT in psi4, default
symmetry c1  #important for SAPT in psi4, default
}

set PROPERTIES_ORIGIN ["COM"]
properties('MP2/aug-cc-pvtz', properties = ['dipole'])
--------------------------------------------------------------------------

    Molecular point group: c1
  Charge       = 0
  Multiplicity = 1
  Basis Set: AUG-CC-PVTZ
    Blend: AUG-CC-PVTZ
  Basis Set: (AUG-CC-PVTZ AUX)
    Blend: AUG-CC-PVTZ-JKFIT

    Orbital Energies [Eh]
    ---------------------

    Doubly Occupied:

       1A    -92.191533     2A    -20.539304     3A    -20.539087
       4A    -15.593211     5A    -11.276230     6A    -11.275497
       7A    -11.275089     8A    -11.236856     9A    -11.227772
      10A    -11.216412    11A     -9.157122    12A     -6.842238
      13A     -6.841463    14A     -6.841385    15A     -1.444055
      16A     -1.327271    17A     -1.249239    18A     -1.078403
      19A     -1.045417    20A     -1.010152    21A     -0.916382
      22A     -0.868531    23A     -0.859042    24A     -0.774728
      25A     -0.718807    26A     -0.672493    27A     -0.667812
      28A     -0.652784    29A     -0.641011    30A     -0.612607
      31A     -0.597772    32A     -0.578217    33A     -0.572533
      34A     -0.550032    35A     -0.543739    36A     -0.539264
      37A     -0.526903    38A     -0.522569    39A     -0.510613
      40A     -0.493145    41A     -0.489904    42A     -0.485980
      43A     -0.460342    44A     -0.447465    45A     -0.395822

  @DF-RHF Final Energy:  -837.77502432588437

   => Energetics <=

    Nuclear Repulsion Energy =            743.2932267833002697
    One-Electron Energy =               -2625.5240412542930244
    Two-Electron Energy =                1044.4557901451084945
    Total Energy =                       -837.7750243258842602
  Basis Set: (AUG-CC-PVTZ AUX)
    Blend: AUG-CC-PVTZ-RI
    Molecular point group: c1

    Geometry (in Angstrom), charge = 0, multiplicity = 1:

       Center              X                  Y                   Z               Mass
    ------------   -----------------  -----------------  -----------------  -----------------
         S           -0.740258156297    -0.068619092403    -0.366242796515    31.972071174400
         O           -1.012971156297     0.930850907597    -1.401540796515    15.994914619570
         O           -0.968908156297    -1.497244092403    -0.599171796515    15.994914619570
         N            0.856577843703     0.082703907597     0.067798203485    14.003074004430
         C            1.395697043703     1.429187107597     0.286914603485    12.000000000000
         C            1.436209243703    -0.976714192403     0.913914003485    12.000000000000
         C           -1.699847156297     0.400981907597     1.075295203485    12.000000000000
         C            2.806832843703     1.552846907597    -0.244409796515    12.000000000000
         C            2.200198843703    -2.000337092403     0.072879203485    12.000000000000
         C           -3.191150156297     0.287272907597     0.787989203485    12.000000000000
         H            0.741926843703     2.122831907597    -0.290727796515     1.007825032230
         H            1.332968843703     1.714942907597     1.333485203485     1.007825032230
         H            2.061422843703    -0.520253092403     1.654379203485     1.007825032230
         H            0.621707843703    -1.510925092403     1.444113203485     1.007825032230
         H           -1.392408156297    -0.258250092403     1.891530203485     1.007825032230
         H           -1.411529156297     1.426747907597     1.321979203485     1.007825032230
         H            3.483876843703     0.883493907597     0.291907203485     1.007825032230
         H            2.837368843703     1.303137907597    -1.306210796515     1.007825032230
         H            3.171011843703     2.575751907597    -0.110354796515     1.007825032230
         H            1.529843843703    -2.467651092403    -0.649740796515     1.007825032230
         H            3.012822843703    -1.510617092403    -0.467404796515     1.007825032230
         H            2.625263843703    -2.777047092403     0.716591203485     1.007825032230
         H           -3.762357156297     0.580197907597     1.672289203485     1.007825032230
         H           -3.466706156297     0.940221907597    -0.040939796515     1.007825032230
         H           -3.449743156297    -0.740029092403     0.526994203485     1.007825032230

  Basis Set: AUG-CC-PVTZ
    Blend: AUG-CC-PVTZ
  Basis Set: (AUG-CC-PVTZ AUX)
    Blend: AUG-CC-PVTZ-JKFIT
	 Reference Energy          =    -837.7750243258843739 [Eh]
	 Singles Energy            =      -0.0000000000000000 [Eh]
	 Same-Spin Energy          =      -0.5168559977699556 [Eh]
	 Opposite-Spin Energy      =      -1.6699437204614158 [Eh]
	 Correlation Energy        =      -2.1867997182313714 [Eh]
	 Total Energy              =    -839.9618240441157013 [Eh]

	 ================> DF-SCS-MP2 Energies <==================
	-----------------------------------------------------------
	 SCS Same-Spin Scale       =       0.3333333333333333 [-]
	 SCS Opposite-Spin Scale   =       1.2000000000000000 [-]
	 SCS Same-Spin Energy      =      -0.1722853325899852 [Eh]
	 SCS Opposite-Spin Energy  =      -2.0039324645536989 [Eh]
	 SCS Correlation Energy    =      -2.1762177971436842 [Eh]
	 SCS Total Energy          =    -839.9512421230280097 [Eh]
	-----------------------------------------------------------

  Dipole Moment: [D]
     X:     1.5854      Y:     1.4612      Z:     4.3301     Total:     4.8372

*** Psi4 exiting successfully. Buy a developer a beer!
