                               Psi4 1.3.2 release

  ==> Input File <==

--------------------------------------------------------------------------
#psi4
#
memory 32 gb

molecule  {
0 1
  S       -0.7380000    -0.0680220    -0.3640970
  O       -1.0107130     0.9314480    -1.3993950
  O       -0.9666500    -1.4966470    -0.5970260
  N        0.8699680     0.0798476     0.0646514
  C        1.3822580     1.4387740     0.2709440
  C        1.4230980    -0.9933220     0.9046550
  C       -1.6975890     0.4015790     1.0774410
  C        2.8087427     1.5406895    -0.2459106
  C        2.2024570    -1.9997400     0.0750250
  C       -3.1888920     0.2878700     0.7901350
  H        0.7441850     2.1234290    -0.2885820
  H        1.3352270     1.7155400     1.3356310
  H        2.0636810    -0.5196560     1.6565250
  H        0.6239660    -1.5103280     1.4462590
  H       -1.3901500    -0.2576530     1.8936760
  H       -1.4092710     1.4273450     1.3241250
  H        3.4861350     0.8840910     0.2940530
  H        2.8396270     1.3037350    -1.3040650
  H        3.1732700     2.5763490    -0.1082090
  H        1.5321020    -2.4670540    -0.6475950
  H        3.0150810    -1.5100200    -0.4652590
  H        2.6275220    -2.7764500     0.7187370
  H       -3.7600990     0.5807950     1.6744350
  H       -3.4644480     0.9408190    -0.0387940
  H       -3.4474850    -0.7394320     0.5291400
units angstrom
no_reorient  #important for SAPT in psi4, default
symmetry c1  #important for SAPT in psi4, default
}

set PROPERTIES_ORIGIN ["COM"]
properties('MP2/aug-cc-pvtz', properties = ['dipole'])
--------------------------------------------------------------------------

    Molecular point group: c1
  Charge       = 0
  Multiplicity = 1
  Basis Set: AUG-CC-PVTZ
    Blend: AUG-CC-PVTZ
  Basis Set: (AUG-CC-PVTZ AUX)
    Blend: AUG-CC-PVTZ-JKFIT

    Orbital Energies [Eh]
    ---------------------

    Doubly Occupied:

       1A    -92.190897     2A    -20.539362     3A    -20.538845
       4A    -15.593614     5A    -11.276229     6A    -11.276195
       7A    -11.275396     8A    -11.237379     9A    -11.227535
      10A    -11.215751    11A     -9.156618    12A     -6.841667
      13A     -6.840943    14A     -6.840874    15A     -1.443678
      16A     -1.327291    17A     -1.248672    18A     -1.078783
      19A     -1.046457    20A     -1.008663    21A     -0.916187
      22A     -0.869653    23A     -0.856381    24A     -0.775071
      25A     -0.720608    26A     -0.670826    27A     -0.667366
      28A     -0.652357    29A     -0.641654    30A     -0.612101
      31A     -0.599959    32A     -0.577041    33A     -0.571344
      34A     -0.549883    35A     -0.544415    36A     -0.539877
      37A     -0.527068    38A     -0.519506    39A     -0.512881
      40A     -0.498427    41A     -0.488981    42A     -0.485228
      43A     -0.460636    44A     -0.445890    45A     -0.395432

  @DF-RHF Final Energy:  -837.77604358337362

   => Energetics <=

    Nuclear Repulsion Energy =            743.4218738485808444
    One-Electron Energy =               -2625.7885949150381748
    Two-Electron Energy =                1044.5906774830837094
    Total Energy =                       -837.7760435833736210
  Basis Set: (AUG-CC-PVTZ AUX)
    Blend: AUG-CC-PVTZ-RI
    Molecular point group: c1

    Geometry (in Angstrom), charge = 0, multiplicity = 1:

       Center              X                  Y                   Z               Mass
    ------------   -----------------  -----------------  -----------------  -----------------
         S           -0.738918845460    -0.066801857454    -0.363382852555    31.972071174400
         O           -1.011631845460     0.932668142546    -1.398680852555    15.994914619570
         O           -0.967568845460    -1.495426857454    -0.596311852555    15.994914619570
         N            0.869049154540     0.081067742546     0.065365547445    14.003074004430
         C            1.381339154540     1.439994142546     0.271658147445    12.000000000000
         C            1.422179154540    -0.992101857454     0.905369147445    12.000000000000
         C           -1.698507845460     0.402799142546     1.078155147445    12.000000000000
         C            2.807823854540     1.541909642546    -0.245196452555    12.000000000000
         C            2.201538154540    -1.998519857454     0.075739147445    12.000000000000
         C           -3.189810845460     0.289090142546     0.790849147445    12.000000000000
         H            0.743266154540     2.124649142546    -0.287867852555     1.007825032230
         H            1.334308154540     1.716760142546     1.336345147445     1.007825032230
         H            2.062762154540    -0.518435857454     1.657239147445     1.007825032230
         H            0.623047154540    -1.509107857454     1.446973147445     1.007825032230
         H           -1.391068845460    -0.256432857454     1.894390147445     1.007825032230
         H           -1.410189845460     1.428565142546     1.324839147445     1.007825032230
         H            3.485216154540     0.885311142546     0.294767147445     1.007825032230
         H            2.838708154540     1.304955142546    -1.303350852555     1.007825032230
         H            3.172351154540     2.577569142546    -0.107494852555     1.007825032230
         H            1.531183154540    -2.465833857454    -0.646880852555     1.007825032230
         H            3.014162154540    -1.508799857454    -0.464544852555     1.007825032230
         H            2.626603154540    -2.775229857454     0.719451147445     1.007825032230
         H           -3.761017845460     0.582015142546     1.675149147445     1.007825032230
         H           -3.465366845460     0.942039142546    -0.038079852555     1.007825032230
         H           -3.448403845460    -0.738211857454     0.529854147445     1.007825032230

  Basis Set: AUG-CC-PVTZ
    Blend: AUG-CC-PVTZ
  Basis Set: (AUG-CC-PVTZ AUX)
    Blend: AUG-CC-PVTZ-JKFIT
	 Reference Energy          =    -837.7760435833736210 [Eh]
	 Singles Energy            =      -0.0000000000000000 [Eh]
	 Same-Spin Energy          =      -0.5168970022731466 [Eh]
	 Opposite-Spin Energy      =      -1.6700085618664380 [Eh]
	 Correlation Energy        =      -2.1869055641395847 [Eh]
	 Total Energy              =    -839.9629491475131999 [Eh]

	 ================> DF-SCS-MP2 Energies <==================
	-----------------------------------------------------------
	 SCS Same-Spin Scale       =       0.3333333333333333 [-]
	 SCS Opposite-Spin Scale   =       1.2000000000000000 [-]
	 SCS Same-Spin Energy      =      -0.1722990007577155 [Eh]
	 SCS Opposite-Spin Energy  =      -2.0040102742397257 [Eh]
	 SCS Correlation Energy    =      -2.1763092749974411 [Eh]
	 SCS Total Energy          =    -839.9523528583711141 [Eh]
	-----------------------------------------------------------

  Dipole Moment: [D]
     X:     1.5296      Y:     1.4489      Z:     4.3197     Total:     4.8061

*** Psi4 exiting successfully. Buy a developer a beer!
