                               Psi4 1.4a3.dev225

  ==> Input File <==

--------------------------------------------------------------------------
#psi4
#
memory 32 gb

molecule  {
0 1
  S        0.7616280     0.0424770    -0.4366460
  O        1.0024240    -1.0592090    -1.3727360
  O        0.9495440     1.4436620    -0.8249950
  N       -0.7887215    -0.0866427     0.0867684
  C       -1.3185710    -1.4233650     0.4283730
  C       -1.3686840     1.0652840     0.8208400
  C        1.8058710    -0.2545270     0.9952940
  C       -2.7505920    -1.6006810    -0.0558370
  C       -2.1814690     1.9714470    -0.0911900
  C        3.2787560    -0.1326200     0.6229570
  H       -0.6761480    -2.1530350    -0.0688350
  H       -1.2569730    -1.5943860     1.5141500
  H       -1.9866060     0.6632120     1.6319710
  H       -0.5646970     1.6429440     1.2905320
  H        1.5186250     0.4781900     1.7554980
  H        1.5601880    -1.2573080     1.3582850
  H       -3.4295210    -0.8918450     0.4253230
  H       -2.7963610    -1.4499180    -1.1363750
  H       -3.1014500    -2.6111540     0.1760480
  H       -1.5338360     2.3728670    -0.8718090
  H       -2.9953600     1.4152720    -0.5615490
  H       -2.6084920     2.8033720     0.4789350
  H        3.8991710    -0.3169240     1.5035790
  H        3.5375790    -0.8611900    -0.1476860
  H        3.4935140     0.8689240     0.2454810
units angstrom
no_reorient  #important for SAPT in psi4, default
symmetry c1  #important for SAPT in psi4, default
}

set PROPERTIES_ORIGIN ["COM"]
properties('MP2/aug-cc-pvtz', properties = ['dipole'])
--------------------------------------------------------------------------

    Molecular point group: c1
  Charge       = 0
  Multiplicity = 1
  Basis Set: AUG-CC-PVTZ
    Blend: AUG-CC-PVTZ
  Basis Set: (AUG-CC-PVTZ AUX)
    Blend: AUG-CC-PVTZ-JKFIT

    Orbital Energies [Eh]
    ---------------------

    Doubly Occupied:

       1A    -92.190143     2A    -20.537664     3A    -20.537473
       4A    -15.593172     5A    -11.278311     6A    -11.277875
       7A    -11.274273     8A    -11.235932     9A    -11.228924
      10A    -11.216920    11A     -9.155728    12A     -6.840917
      13A     -6.840105    14A     -6.839999    15A     -1.443484
      16A     -1.325997    17A     -1.247040    18A     -1.076229
      19A     -1.045180    20A     -1.012353    21A     -0.914798
      22A     -0.869185    23A     -0.859354    24A     -0.772850
      25A     -0.718568    26A     -0.670815    27A     -0.666808
      28A     -0.649951    29A     -0.639731    30A     -0.611268
      31A     -0.598596    32A     -0.577949    33A     -0.571525
      34A     -0.549031    35A     -0.544379    36A     -0.539956
      37A     -0.525748    38A     -0.519425    39A     -0.512565
      40A     -0.496944    41A     -0.489338    42A     -0.484835
      43A     -0.459545    44A     -0.445482    45A     -0.396700

  @DF-RHF Final Energy:  -837.77696669578813

   => Energetics <=

    Nuclear Repulsion Energy =            743.1720516197219695
    One-Electron Energy =               -2625.3318992741596958
    Two-Electron Energy =                1044.3828809586495936
    Total Energy =                       -837.7769666957881327
  Basis Set: (AUG-CC-PVTZ AUX)
    Blend: AUG-CC-PVTZ-RI
    Molecular point group: c1

    Geometry (in Angstrom), charge = 0, multiplicity = 1:

       Center              X                  Y                   Z               Mass
    ------------   -----------------  -----------------  -----------------  -----------------
         S            0.718516686162     0.037009356132    -0.390609821014    31.972071174400
         O            0.959312686162    -1.064676643868    -1.326699821014    15.994914619570
         O            0.906432686162     1.438194356132    -0.778958821014    15.994914619570
         N           -0.831832813838    -0.092110343868     0.132804578986    14.003074004430
         C           -1.361682313838    -1.428832643868     0.474409178986    12.000000000000
         C           -1.411795313838     1.059816356132     0.866876178986    12.000000000000
         C            1.762759686162    -0.259994643868     1.041330178986    12.000000000000
         C           -2.793703313838    -1.606148643868    -0.009800821014    12.000000000000
         C           -2.224580313838     1.965979356132    -0.045153821014    12.000000000000
         C            3.235644686162    -0.138087643868     0.668993178986    12.000000000000
         H           -0.719259313838    -2.158502643868    -0.022798821014     1.007825032230
         H           -1.300084313838    -1.599853643868     1.560186178986     1.007825032230
         H           -2.029717313838     0.657744356132     1.678007178986     1.007825032230
         H           -0.607808313838     1.637476356132     1.336568178986     1.007825032230
         H            1.475513686162     0.472722356132     1.801534178986     1.007825032230
         H            1.517076686162    -1.262775643868     1.404321178986     1.007825032230
         H           -3.472632313838    -0.897312643868     0.471359178986     1.007825032230
         H           -2.839472313838    -1.455385643868    -1.090338821014     1.007825032230
         H           -3.144561313838    -2.616621643868     0.222084178986     1.007825032230
         H           -1.576947313838     2.367399356132    -0.825772821014     1.007825032230
         H           -3.038471313838     1.409804356132    -0.515512821014     1.007825032230
         H           -2.651603313838     2.797904356132     0.524971178986     1.007825032230
         H            3.856059686162    -0.322391643868     1.549615178986     1.007825032230
         H            3.494467686162    -0.866657643868    -0.101649821014     1.007825032230
         H            3.450402686162     0.863456356132     0.291517178986     1.007825032230

  Basis Set: AUG-CC-PVTZ
    Blend: AUG-CC-PVTZ
  Basis Set: (AUG-CC-PVTZ AUX)
    Blend: AUG-CC-PVTZ-JKFIT
	 Reference Energy          =    -837.7769666957881327 [Eh]
	 Singles Energy            =      -0.0000000000000000 [Eh]
	 Same-Spin Energy          =      -0.5164530340890200 [Eh]
	 Opposite-Spin Energy      =      -1.6693705078633001 [Eh]
	 Correlation Energy        =      -2.1858235419523200 [Eh]
	 Total Energy              =    -839.9627902377404780 [Eh]

	 ================> DF-SCS-MP2 Energies <==================
	-----------------------------------------------------------
	 SCS Same-Spin Scale       =       0.3333333333333333 [-]
	 SCS Opposite-Spin Scale   =       1.2000000000000000 [-]
	 SCS Same-Spin Energy      =      -0.1721510113630066 [Eh]
	 SCS Opposite-Spin Energy  =      -2.0032446094359599 [Eh]
	 SCS Correlation Energy    =      -2.1753956207989664 [Eh]
	 SCS Total Energy          =    -839.9523623165871413 [Eh]
	-----------------------------------------------------------

  Dipole Moment: [D]
     X:    -1.5159      Y:    -0.9979      Z:     4.4828     Total:     4.8362

*** Psi4 exiting successfully. Buy a developer a beer!
