                               Psi4 1.4a3.dev225

  ==> Input File <==

--------------------------------------------------------------------------
#psi4
#
memory 32 gb

molecule  {
0 1
  S        0.7616280     0.0424770    -0.4366460
  O        1.0024240    -1.0592090    -1.3727360
  O        0.9495440     1.4436620    -0.8249950
  N       -0.8076120    -0.0882160     0.0931460
  C       -1.3255306    -1.4415506     0.4329390
  C       -1.3686840     1.0652840     0.8208400
  C        1.8058710    -0.2545270     0.9952940
  C       -2.7505920    -1.6006810    -0.0558370
  C       -2.1814690     1.9714470    -0.0911900
  C        3.2787560    -0.1326200     0.6229570
  H       -0.6761480    -2.1530350    -0.0688350
  H       -1.2569730    -1.5943860     1.5141500
  H       -1.9866060     0.6632120     1.6319710
  H       -0.5646970     1.6429440     1.2905320
  H        1.5186250     0.4781900     1.7554980
  H        1.5601880    -1.2573080     1.3582850
  H       -3.4295210    -0.8918450     0.4253230
  H       -2.7963610    -1.4499180    -1.1363750
  H       -3.1014500    -2.6111540     0.1760480
  H       -1.5338360     2.3728670    -0.8718090
  H       -2.9953600     1.4152720    -0.5615490
  H       -2.6084920     2.8033720     0.4789350
  H        3.8991710    -0.3169240     1.5035790
  H        3.5375790    -0.8611900    -0.1476860
  H        3.4935140     0.8689240     0.2454810
units angstrom
no_reorient  #important for SAPT in psi4, default
symmetry c1  #important for SAPT in psi4, default
}

set PROPERTIES_ORIGIN ["COM"]
properties('MP2/aug-cc-pvtz', properties = ['dipole'])
--------------------------------------------------------------------------

    Molecular point group: c1
  Charge       = 0
  Multiplicity = 1
  Basis Set: AUG-CC-PVTZ
    Blend: AUG-CC-PVTZ
  Basis Set: (AUG-CC-PVTZ AUX)
    Blend: AUG-CC-PVTZ-JKFIT

    Orbital Energies [Eh]
    ---------------------

    Doubly Occupied:

       1A    -92.190559     2A    -20.538615     3A    -20.538263
       4A    -15.592105     5A    -11.277393     6A    -11.275831
       7A    -11.275096     8A    -11.236504     9A    -11.228320
      10A    -11.215714    11A     -9.156034    12A     -6.841130
      13A     -6.840397    14A     -6.840308    15A     -1.442516
      16A     -1.326460    17A     -1.243301    18A     -1.076692
      19A     -1.046385    20A     -1.009614    21A     -0.914802
      22A     -0.869045    23A     -0.856854    24A     -0.773399
      25A     -0.717734    26A     -0.670015    27A     -0.666331
      28A     -0.650452    29A     -0.640025    30A     -0.611451
      31A     -0.598151    32A     -0.577979    33A     -0.571425
      34A     -0.549782    35A     -0.545212    36A     -0.539303
      37A     -0.525800    38A     -0.519485    39A     -0.512938
      40A     -0.498458    41A     -0.488730    42A     -0.484324
      43A     -0.460317    44A     -0.444465    45A     -0.394701

  @DF-RHF Final Energy:  -837.77623153993420

   => Energetics <=

    Nuclear Repulsion Energy =            742.4084291755588083
    One-Electron Energy =               -2623.8244889523566599
    Two-Electron Energy =                1043.6398282368636501
    Total Energy =                       -837.7762315399340878
  Basis Set: (AUG-CC-PVTZ AUX)
    Blend: AUG-CC-PVTZ-RI
    Molecular point group: c1

    Geometry (in Angstrom), charge = 0, multiplicity = 1:

       Center              X                  Y                   Z               Mass
    ------------   -----------------  -----------------  -----------------  -----------------
         S            0.720624968905     0.038464740288    -0.391482706606    31.972071174400
         O            0.961420968905    -1.063221259712    -1.327572706606    15.994914619570
         O            0.908540968905     1.439649740288    -0.779831706606    15.994914619570
         N           -0.848615031095    -0.092228259712     0.138309293394    14.003074004430
         C           -1.366533631095    -1.445562859712     0.478102293394    12.000000000000
         C           -1.409687031095     1.061271740288     0.866003293394    12.000000000000
         C            1.764867968905    -0.258539259712     1.040457293394    12.000000000000
         C           -2.791595031095    -1.604693259712    -0.010673706606    12.000000000000
         C           -2.222472031095     1.967434740288    -0.046026706606    12.000000000000
         C            3.237752968905    -0.136632259712     0.668120293394    12.000000000000
         H           -0.717151031095    -2.157047259712    -0.023671706606     1.007825032230
         H           -1.297976031095    -1.598398259712     1.559313293394     1.007825032230
         H           -2.027609031095     0.659199740288     1.677134293394     1.007825032230
         H           -0.605700031095     1.638931740288     1.335695293394     1.007825032230
         H            1.477621968905     0.474177740288     1.800661293394     1.007825032230
         H            1.519184968905    -1.261320259712     1.403448293394     1.007825032230
         H           -3.470524031095    -0.895857259712     0.470486293394     1.007825032230
         H           -2.837364031095    -1.453930259712    -1.091211706606     1.007825032230
         H           -3.142453031095    -2.615166259712     0.221211293394     1.007825032230
         H           -1.574839031095     2.368854740288    -0.826645706606     1.007825032230
         H           -3.036363031095     1.411259740288    -0.516385706606     1.007825032230
         H           -2.649495031095     2.799359740288     0.524098293394     1.007825032230
         H            3.858167968905    -0.320936259712     1.548742293394     1.007825032230
         H            3.496575968905    -0.865202259712    -0.102522706606     1.007825032230
         H            3.452510968905     0.864911740288     0.290644293394     1.007825032230

  Basis Set: AUG-CC-PVTZ
    Blend: AUG-CC-PVTZ
  Basis Set: (AUG-CC-PVTZ AUX)
    Blend: AUG-CC-PVTZ-JKFIT
	 Reference Energy          =    -837.7762315399342015 [Eh]
	 Singles Energy            =      -0.0000000000000000 [Eh]
	 Same-Spin Energy          =      -0.5165991964489742 [Eh]
	 Opposite-Spin Energy      =      -1.6697772413726721 [Eh]
	 Correlation Energy        =      -2.1863764378216466 [Eh]
	 Total Energy              =    -839.9626079777558516 [Eh]

	 ================> DF-SCS-MP2 Energies <==================
	-----------------------------------------------------------
	 SCS Same-Spin Scale       =       0.3333333333333333 [-]
	 SCS Opposite-Spin Scale   =       1.2000000000000000 [-]
	 SCS Same-Spin Energy      =      -0.1721997321496581 [Eh]
	 SCS Opposite-Spin Energy  =      -2.0037326896472063 [Eh]
	 SCS Correlation Energy    =      -2.1759324217968645 [Eh]
	 SCS Total Energy          =    -839.9521639617311166 [Eh]
	-----------------------------------------------------------

  Dipole Moment: [D]
     X:    -1.4268      Y:    -1.0431      Z:     4.4694     Total:     4.8061

*** Psi4 exiting successfully. Buy a developer a beer!
