                               Psi4 1.3.2 release

  ==> Input File <==

--------------------------------------------------------------------------
#psi4
#
memory 32 gb

molecule  {
0 1
  S       -0.7380000    -0.0680220    -0.3640970
  O       -0.9734733     0.7949675    -1.2580221
  O       -0.9666500    -1.4966470    -0.5970260
  N        0.8588360     0.0833010     0.0699440
  C        1.3822580     1.4387740     0.2709440
  C        1.4230980    -0.9933220     0.9046550
  C       -1.6975890     0.4015790     1.0774410
  C        2.8090910     1.5534440    -0.2422640
  C        2.2024570    -1.9997400     0.0750250
  C       -3.1888920     0.2878700     0.7901350
  H        0.7441850     2.1234290    -0.2885820
  H        1.3352270     1.7155400     1.3356310
  H        2.0636810    -0.5196560     1.6565250
  H        0.6239660    -1.5103280     1.4462590
  H       -1.3901500    -0.2576530     1.8936760
  H       -1.4092710     1.4273450     1.3241250
  H        3.4861350     0.8840910     0.2940530
  H        2.8396270     1.3037350    -1.3040650
  H        3.1732700     2.5763490    -0.1082090
  H        1.5321020    -2.4670540    -0.6475950
  H        3.0150810    -1.5100200    -0.4652590
  H        2.6275220    -2.7764500     0.7187370
  H       -3.7600990     0.5807950     1.6744350
  H       -3.4644480     0.9408190    -0.0387940
  H       -3.4474850    -0.7394320     0.5291400
units angstrom
no_reorient  #important for SAPT in psi4, default
symmetry c1  #important for SAPT in psi4, default
}

set PROPERTIES_ORIGIN ["COM"]
properties('MP2/aug-cc-pvtz', properties = ['dipole'])
--------------------------------------------------------------------------

    Molecular point group: c1
  Charge       = 0
  Multiplicity = 1
  Basis Set: AUG-CC-PVTZ
    Blend: AUG-CC-PVTZ
  Basis Set: (AUG-CC-PVTZ AUX)
    Blend: AUG-CC-PVTZ-JKFIT

    Orbital Energies [Eh]
    ---------------------

    Doubly Occupied:

       1A    -92.161623     2A    -20.543120     3A    -20.521390
       4A    -15.580539     5A    -11.274850     6A    -11.268157
       7A    -11.261492     8A    -11.233382     9A    -11.226681
      10A    -11.211212    11A     -9.136702    12A     -6.824175
      13A     -6.820130    14A     -6.819313    15A     -1.549883
      16A     -1.347956    17A     -1.242878    18A     -1.070547
      19A     -1.042467    20A     -1.004544    21A     -0.907854
      22A     -0.866166    23A     -0.853183    24A     -0.767944
      25A     -0.733321    26A     -0.702394    27A     -0.677815
      28A     -0.647901    29A     -0.641389    30A     -0.627438
      31A     -0.604173    32A     -0.580281    33A     -0.575491
      34A     -0.550955    35A     -0.541699    36A     -0.536957
      37A     -0.526885    38A     -0.523445    39A     -0.512208
      40A     -0.501243    41A     -0.500041    42A     -0.488049
      43A     -0.467073    44A     -0.439988    45A     -0.388585

  @DF-RHF Final Energy:  -837.73287066142211

   => Energetics <=

    Nuclear Repulsion Energy =            754.6230460161602878
    One-Electron Energy =               -2648.1047983399344048
    Two-Electron Energy =                1055.7488816623520052
    Total Energy =                       -837.7328706614221119
  Basis Set: (AUG-CC-PVTZ AUX)
    Blend: AUG-CC-PVTZ-RI
    Molecular point group: c1

    Geometry (in Angstrom), charge = 0, multiplicity = 1:

       Center              X                  Y                   Z               Mass
    ------------   -----------------  -----------------  -----------------  -----------------
         S           -0.741608068156    -0.054798262096    -0.377794564867    31.972071174400
         O           -0.977081368156     0.808191237904    -1.271719664867    15.994914619570
         O           -0.970258068156    -1.483423262096    -0.610723564867    15.994914619570
         N            0.855227931844     0.096524737904     0.056246435133    14.003074004430
         C            1.378649931844     1.451997737904     0.257246435133    12.000000000000
         C            1.419489931844    -0.980098262096     0.890957435133    12.000000000000
         C           -1.701197068156     0.414802737904     1.063743435133    12.000000000000
         C            2.805482931844     1.566667737904    -0.255961564867    12.000000000000
         C            2.198848931844    -1.986516262096     0.061327435133    12.000000000000
         C           -3.192500068156     0.301093737904     0.776437435133    12.000000000000
         H            0.740576931844     2.136652737904    -0.302279564867     1.007825032230
         H            1.331618931844     1.728763737904     1.321933435133     1.007825032230
         H            2.060072931844    -0.506432262096     1.642827435133     1.007825032230
         H            0.620357931844    -1.497104262096     1.432561435133     1.007825032230
         H           -1.393758068156    -0.244429262096     1.879978435133     1.007825032230
         H           -1.412879068156     1.440568737904     1.310427435133     1.007825032230
         H            3.482526931844     0.897314737904     0.280355435133     1.007825032230
         H            2.836018931844     1.316958737904    -1.317762564867     1.007825032230
         H            3.169661931844     2.589572737904    -0.121906564867     1.007825032230
         H            1.528493931844    -2.453830262096    -0.661292564867     1.007825032230
         H            3.011472931844    -1.496796262096    -0.478956564867     1.007825032230
         H            2.623913931844    -2.763226262096     0.705039435133     1.007825032230
         H           -3.763707068156     0.594018737904     1.660737435133     1.007825032230
         H           -3.468056068156     0.954042737904    -0.052491564867     1.007825032230
         H           -3.451093068156    -0.726208262096     0.515442435133     1.007825032230

  Basis Set: AUG-CC-PVTZ
    Blend: AUG-CC-PVTZ
  Basis Set: (AUG-CC-PVTZ AUX)
    Blend: AUG-CC-PVTZ-JKFIT
	 Reference Energy          =    -837.7328706614221119 [Eh]
	 Singles Energy            =      -0.0000000000000000 [Eh]
	 Same-Spin Energy          =      -0.5120591576315437 [Eh]
	 Opposite-Spin Energy      =      -1.6588477264081019 [Eh]
	 Correlation Energy        =      -2.1709068840396455 [Eh]
	 Total Energy              =    -839.9037775454617076 [Eh]

	 ================> DF-SCS-MP2 Energies <==================
	-----------------------------------------------------------
	 SCS Same-Spin Scale       =       0.3333333333333333 [-]
	 SCS Opposite-Spin Scale   =       1.2000000000000000 [-]
	 SCS Same-Spin Energy      =      -0.1706863858771812 [Eh]
	 SCS Opposite-Spin Energy  =      -1.9906172716897221 [Eh]
	 SCS Correlation Energy    =      -2.1613036575669033 [Eh]
	 SCS Total Energy          =    -839.8941743189890303 [Eh]
	-----------------------------------------------------------

  Dipole Moment: [D]
     X:     1.3394      Y:     2.1071      Z:     3.4824     Total:     4.2849

*** Psi4 exiting successfully. Buy a developer a beer!
