                               Psi4 1.3.2 release

  ==> Input File <==

--------------------------------------------------------------------------
#psi4
#
memory 32 gb

molecule  {
0 1
  S       -0.7380000    -0.0680220    -0.3640970
  O       -1.0107130     0.9314480    -1.3993950
  O       -0.9666500    -1.4966470    -0.5970260
  N        0.8588360     0.0833010     0.0699440
  C        1.3822580     1.4387740     0.2709440
  C        1.4230980    -0.9933220     0.9046550
  C       -1.5906269     0.3492342     0.9167577
  C        2.8090910     1.5534440    -0.2422640
  C        2.2024570    -1.9997400     0.0750250
  C       -3.1888920     0.2878700     0.7901350
  H        0.7441850     2.1234290    -0.2885820
  H        1.3352270     1.7155400     1.3356310
  H        2.0636810    -0.5196560     1.6565250
  H        0.6239660    -1.5103280     1.4462590
  H       -1.3901500    -0.2576530     1.8936760
  H       -1.4092710     1.4273450     1.3241250
  H        3.4861350     0.8840910     0.2940530
  H        2.8396270     1.3037350    -1.3040650
  H        3.1732700     2.5763490    -0.1082090
  H        1.5321020    -2.4670540    -0.6475950
  H        3.0150810    -1.5100200    -0.4652590
  H        2.6275220    -2.7764500     0.7187370
  H       -3.7600990     0.5807950     1.6744350
  H       -3.4644480     0.9408190    -0.0387940
  H       -3.4474850    -0.7394320     0.5291400
units angstrom
no_reorient  #important for SAPT in psi4, default
symmetry c1  #important for SAPT in psi4, default
}

set PROPERTIES_ORIGIN ["COM"]
properties('MP2/aug-cc-pvtz', properties = ['dipole'])
--------------------------------------------------------------------------

    Molecular point group: c1
  Charge       = 0
  Multiplicity = 1
  Basis Set: AUG-CC-PVTZ
    Blend: AUG-CC-PVTZ
  Basis Set: (AUG-CC-PVTZ AUX)
    Blend: AUG-CC-PVTZ-JKFIT

    Orbital Energies [Eh]
    ---------------------

    Doubly Occupied:

       1A    -92.189509     2A    -20.536550     3A    -20.536466
       4A    -15.591376     5A    -11.278294     6A    -11.275180
       7A    -11.274666     8A    -11.247996     9A    -11.226956
      10A    -11.215252    11A     -9.157990    12A     -6.843192
      13A     -6.842740    14A     -6.842083    15A     -1.450973
      16A     -1.327538    17A     -1.248761    18A     -1.092076
      19A     -1.045266    20A     -1.007910    21A     -0.935724
      22A     -0.868934    23A     -0.855247    24A     -0.769203
      25A     -0.728884    26A     -0.674905    27A     -0.668299
      28A     -0.646628    29A     -0.639992    30A     -0.605700
      31A     -0.597916    32A     -0.579059    33A     -0.576492
      34A     -0.548305    35A     -0.542529    36A     -0.523779
      37A     -0.518523    38A     -0.515881    39A     -0.508340
      40A     -0.495036    41A     -0.492821    42A     -0.481610
      43A     -0.459365    44A     -0.455129    45A     -0.397746

  @DF-RHF Final Energy:  -837.73715775222024

   => Energetics <=

    Nuclear Repulsion Energy =            748.5906012715913675
    One-Electron Energy =               -2636.0218833629446635
    Two-Electron Energy =                1049.6941243391329408
    Total Energy =                       -837.7371577522203552
  Basis Set: (AUG-CC-PVTZ AUX)
    Blend: AUG-CC-PVTZ-RI
    Molecular point group: c1

    Geometry (in Angstrom), charge = 0, multiplicity = 1:

       Center              X                  Y                   Z               Mass
    ------------   -----------------  -----------------  -----------------  -----------------
         S           -0.745775075583    -0.064216933114    -0.352416642469    31.972071174400
         O           -1.018488075583     0.935253066886    -1.387714642469    15.994914619570
         O           -0.974425075583    -1.492841933114    -0.585345642469    15.994914619570
         N            0.851060924417     0.087106066886     0.081624357531    14.003074004430
         C            1.374482924417     1.442579066886     0.282624357531    12.000000000000
         C            1.415322924417    -0.989516933114     0.916335357531    12.000000000000
         C           -1.598401975583     0.353039266886     0.928438057531    12.000000000000
         C            2.801315924417     1.557249066886    -0.230583642469    12.000000000000
         C            2.194681924417    -1.995934933114     0.086705357531    12.000000000000
         C           -3.196667075583     0.291675066886     0.801815357531    12.000000000000
         H            0.736409924417     2.127234066886    -0.276901642469     1.007825032230
         H            1.327451924417     1.719345066886     1.347311357531     1.007825032230
         H            2.055905924417    -0.515850933114     1.668205357531     1.007825032230
         H            0.616190924417    -1.506522933114     1.457939357531     1.007825032230
         H           -1.397925075583    -0.253847933114     1.905356357531     1.007825032230
         H           -1.417046075583     1.431150066886     1.335805357531     1.007825032230
         H            3.478359924417     0.887896066886     0.305733357531     1.007825032230
         H            2.831851924417     1.307540066886    -1.292384642469     1.007825032230
         H            3.165494924417     2.580154066886    -0.096528642469     1.007825032230
         H            1.524326924417    -2.463248933114    -0.635914642469     1.007825032230
         H            3.007305924417    -1.506214933114    -0.453578642469     1.007825032230
         H            2.619746924417    -2.772644933114     0.730417357531     1.007825032230
         H           -3.767874075583     0.584600066886     1.686115357531     1.007825032230
         H           -3.472223075583     0.944624066886    -0.027113642469     1.007825032230
         H           -3.455260075583    -0.735626933114     0.540820357531     1.007825032230

  Basis Set: AUG-CC-PVTZ
    Blend: AUG-CC-PVTZ
  Basis Set: (AUG-CC-PVTZ AUX)
    Blend: AUG-CC-PVTZ-JKFIT
	 Reference Energy          =    -837.7371577522202415 [Eh]
	 Singles Energy            =      -0.0000000000000000 [Eh]
	 Same-Spin Energy          =      -0.5187804347188234 [Eh]
	 Opposite-Spin Energy      =      -1.6721730486050643 [Eh]
	 Correlation Energy        =      -2.1909534833238880 [Eh]
	 Total Energy              =    -839.9281112355441792 [Eh]

	 ================> DF-SCS-MP2 Energies <==================
	-----------------------------------------------------------
	 SCS Same-Spin Scale       =       0.3333333333333333 [-]
	 SCS Opposite-Spin Scale   =       1.2000000000000000 [-]
	 SCS Same-Spin Energy      =      -0.1729268115729411 [Eh]
	 SCS Opposite-Spin Energy  =      -2.0066076583260770 [Eh]
	 SCS Correlation Energy    =      -2.1795344698990182 [Eh]
	 SCS Total Energy          =    -839.9166922221193090 [Eh]
	-----------------------------------------------------------

  Dipole Moment: [D]
     X:     1.3486      Y:     1.5151      Z:     4.5251     Total:     4.9589

*** Psi4 exiting successfully. Buy a developer a beer!
