                               Psi4 1.3.2 release

  ==> Input File <==

--------------------------------------------------------------------------
#psi4
#
memory 32 gb

molecule  {
0 1
  S       -0.7380000    -0.0680220    -0.3640970
  O       -1.0107130     0.9314480    -1.3993950
  O       -0.9666500    -1.4966470    -0.5970260
  N        0.8588360     0.0833010     0.0699440
  C        1.3822580     1.4387740     0.2709440
  C        1.4230980    -0.9933220     0.9046550
  C       -1.6975890     0.4015790     1.0774410
  C        2.8090910     1.5534440    -0.2422640
  C        2.2024570    -1.9997400     0.0750250
  C       -3.2868123     0.2804038     0.7712702
  H        0.7441850     2.1234290    -0.2885820
  H        1.3352270     1.7155400     1.3356310
  H        2.0636810    -0.5196560     1.6565250
  H        0.6239660    -1.5103280     1.4462590
  H       -1.3901500    -0.2576530     1.8936760
  H       -1.4092710     1.4273450     1.3241250
  H        3.4861350     0.8840910     0.2940530
  H        2.8396270     1.3037350    -1.3040650
  H        3.1732700     2.5763490    -0.1082090
  H        1.5321020    -2.4670540    -0.6475950
  H        3.0150810    -1.5100200    -0.4652590
  H        2.6275220    -2.7764500     0.7187370
  H       -3.7600990     0.5807950     1.6744350
  H       -3.4644480     0.9408190    -0.0387940
  H       -3.4474850    -0.7394320     0.5291400
units angstrom
no_reorient  #important for SAPT in psi4, default
symmetry c1  #important for SAPT in psi4, default
}

set PROPERTIES_ORIGIN ["COM"]
properties('MP2/aug-cc-pvtz', properties = ['dipole'])
--------------------------------------------------------------------------

    Molecular point group: c1
  Charge       = 0
  Multiplicity = 1
  Basis Set: AUG-CC-PVTZ
    Blend: AUG-CC-PVTZ
  Basis Set: (AUG-CC-PVTZ AUX)
    Blend: AUG-CC-PVTZ-JKFIT

    Orbital Energies [Eh]
    ---------------------

    Doubly Occupied:

       1A    -92.190238     2A    -20.538130     3A    -20.537928
       4A    -15.592806     5A    -11.277148     6A    -11.275914
       7A    -11.275577     8A    -11.237364     9A    -11.227525
      10A    -11.215875    11A     -9.155777    12A     -6.840883
      13A     -6.840153    14A     -6.840040    15A     -1.443030
      16A     -1.326384    17A     -1.248370    18A     -1.064248
      19A     -1.045942    20A     -1.008566    21A     -0.921887
      22A     -0.869506    23A     -0.859113    24A     -0.772741
      25A     -0.718942    26A     -0.669086    27A     -0.665417
      28A     -0.650038    29A     -0.640102    30A     -0.612420
      31A     -0.599961    32A     -0.581847    33A     -0.575462
      34A     -0.550192    35A     -0.546944    36A     -0.540298
      37A     -0.519797    38A     -0.517655    39A     -0.511601
      40A     -0.497475    41A     -0.489219    42A     -0.485697
      43A     -0.459900    44A     -0.445944    45A     -0.394342

  @DF-RHF Final Energy:  -837.76990900582769

   => Energetics <=

    Nuclear Repulsion Energy =            741.6070312177423602
    One-Electron Energy =               -2622.1989111035936730
    Two-Electron Energy =                1042.8219708800236276
    Total Energy =                       -837.7699090058276852
  Basis Set: (AUG-CC-PVTZ AUX)
    Blend: AUG-CC-PVTZ-RI
    Molecular point group: c1

    Geometry (in Angstrom), charge = 0, multiplicity = 1:

       Center              X                  Y                   Z               Mass
    ------------   -----------------  -----------------  -----------------  -----------------
         S           -0.730881970406    -0.067479203129    -0.362725570110    31.972071174400
         O           -1.003594970406     0.931990796871    -1.398023570110    15.994914619570
         O           -0.959531970406    -1.496104203129    -0.595654570110    15.994914619570
         N            0.865954029594     0.083843796871     0.071315429890    14.003074004430
         C            1.389376029594     1.439316796871     0.272315429890    12.000000000000
         C            1.430216029594    -0.992779203129     0.906026429890    12.000000000000
         C           -1.690470970406     0.402121796871     1.078812429890    12.000000000000
         C            2.816209029594     1.553986796871    -0.240892570110    12.000000000000
         C            2.209575029594    -1.999197203129     0.076396429890    12.000000000000
         C           -3.279694270406     0.280946596871     0.772641629890    12.000000000000
         H            0.751303029594     2.123971796871    -0.287210570110     1.007825032230
         H            1.342345029594     1.716082796871     1.337002429890     1.007825032230
         H            2.070799029594    -0.519113203129     1.657896429890     1.007825032230
         H            0.631084029594    -1.509785203129     1.447630429890     1.007825032230
         H           -1.383031970406    -0.257110203129     1.895047429890     1.007825032230
         H           -1.402152970406     1.427887796871     1.325496429890     1.007825032230
         H            3.493253029594     0.884633796871     0.295424429890     1.007825032230
         H            2.846745029594     1.304277796871    -1.302693570110     1.007825032230
         H            3.180388029594     2.576891796871    -0.106837570110     1.007825032230
         H            1.539220029594    -2.466511203129    -0.646223570110     1.007825032230
         H            3.022199029594    -1.509477203129    -0.463887570110     1.007825032230
         H            2.634640029594    -2.775907203129     0.720108429890     1.007825032230
         H           -3.752980970406     0.581337796871     1.675806429890     1.007825032230
         H           -3.457329970406     0.941361796871    -0.037422570110     1.007825032230
         H           -3.440366970406    -0.738889203129     0.530511429890     1.007825032230

  Basis Set: AUG-CC-PVTZ
    Blend: AUG-CC-PVTZ
  Basis Set: (AUG-CC-PVTZ AUX)
    Blend: AUG-CC-PVTZ-JKFIT
	 Reference Energy          =    -837.7699090058276852 [Eh]
	 Singles Energy            =      -0.0000000000000000 [Eh]
	 Same-Spin Energy          =      -0.5163702778250728 [Eh]
	 Opposite-Spin Energy      =      -1.6696430754649545 [Eh]
	 Correlation Energy        =      -2.1860133532900274 [Eh]
	 Total Energy              =    -839.9559223591177215 [Eh]

	 ================> DF-SCS-MP2 Energies <==================
	-----------------------------------------------------------
	 SCS Same-Spin Scale       =       0.3333333333333333 [-]
	 SCS Opposite-Spin Scale   =       1.2000000000000000 [-]
	 SCS Same-Spin Energy      =      -0.1721234259416909 [Eh]
	 SCS Opposite-Spin Energy  =      -2.0035716905579455 [Eh]
	 SCS Correlation Energy    =      -2.1756951164996363 [Eh]
	 SCS Total Energy          =    -839.9456041223272678 [Eh]
	-----------------------------------------------------------

  Dipole Moment: [D]
     X:     1.5491      Y:     1.4472      Z:     4.3318     Total:     4.8227

*** Psi4 exiting successfully. Buy a developer a beer!
