                               Psi4 1.3.2 release

  ==> Input File <==

--------------------------------------------------------------------------
#psi4
#
memory 32 gb

molecule  {
0 1
  S       -0.7380000    -0.0680220    -0.3640970
  O       -1.0107130     0.9314480    -1.3993950
  O       -0.9666500    -1.4966470    -0.5970260
  N        0.6666405     0.0650877     0.0177027
  C        1.3822580     1.4387740     0.2709440
  C        1.4230980    -0.9933220     0.9046550
  C       -1.6975890     0.4015790     1.0774410
  C        2.8090910     1.5534440    -0.2422640
  C        2.2024570    -1.9997400     0.0750250
  C       -3.1888920     0.2878700     0.7901350
  H        0.7441850     2.1234290    -0.2885820
  H        1.3352270     1.7155400     1.3356310
  H        2.0636810    -0.5196560     1.6565250
  H        0.6239660    -1.5103280     1.4462590
  H       -1.3901500    -0.2576530     1.8936760
  H       -1.4092710     1.4273450     1.3241250
  H        3.4861350     0.8840910     0.2940530
  H        2.8396270     1.3037350    -1.3040650
  H        3.1732700     2.5763490    -0.1082090
  H        1.5321020    -2.4670540    -0.6475950
  H        3.0150810    -1.5100200    -0.4652590
  H        2.6275220    -2.7764500     0.7187370
  H       -3.7600990     0.5807950     1.6744350
  H       -3.4644480     0.9408190    -0.0387940
  H       -3.4474850    -0.7394320     0.5291400
units angstrom
no_reorient  #important for SAPT in psi4, default
symmetry c1  #important for SAPT in psi4, default
}

set PROPERTIES_ORIGIN ["COM"]
properties('MP2/aug-cc-pvtz', properties = ['dipole'])
--------------------------------------------------------------------------

    Molecular point group: c1
  Charge       = 0
  Multiplicity = 1
  Basis Set: AUG-CC-PVTZ
    Blend: AUG-CC-PVTZ
  Basis Set: (AUG-CC-PVTZ AUX)
    Blend: AUG-CC-PVTZ-JKFIT

    Orbital Energies [Eh]
    ---------------------

    Doubly Occupied:

       1A    -92.170312     2A    -20.520733     3A    -20.520714
       4A    -15.590736     5A    -11.295919     6A    -11.295239
       7A    -11.260160     8A    -11.240909     9A    -11.226029
      10A    -11.225825    11A     -9.139219    12A     -6.825526
      13A     -6.823422    14A     -6.823096    15A     -1.450152
      16A     -1.313863    17A     -1.253197    18A     -1.068537
      19A     -1.047977    20A     -1.038917    21A     -0.906970
      22A     -0.875374    23A     -0.868685    24A     -0.763551
      25A     -0.710561    26A     -0.675423    27A     -0.668297
      28A     -0.651028    29A     -0.640391    30A     -0.609311
      31A     -0.592199    32A     -0.581357    33A     -0.570725
      34A     -0.552183    35A     -0.546553    36A     -0.533908
      37A     -0.527450    38A     -0.520168    39A     -0.513908
      40A     -0.495669    41A     -0.488464    42A     -0.466552
      43A     -0.445293    44A     -0.443144    45A     -0.413227

  @DF-RHF Final Energy:  -837.73845394998932

   => Energetics <=

    Nuclear Repulsion Energy =            747.6088344509021226
    One-Electron Energy =               -2634.3128386825119378
    Two-Electron Energy =                1048.9655502816203807
    Total Energy =                       -837.7384539499894345
  Basis Set: (AUG-CC-PVTZ AUX)
    Blend: AUG-CC-PVTZ-RI
    Molecular point group: c1

    Geometry (in Angstrom), charge = 0, multiplicity = 1:

       Center              X                  Y                   Z               Mass
    ------------   -----------------  -----------------  -----------------  -----------------
         S           -0.721696953287    -0.066476989459    -0.359665514385    31.972071174400
         O           -0.994409953287     0.932993010541    -1.394963514385    15.994914619570
         O           -0.950346953287    -1.495101989459    -0.592594514385    15.994914619570
         N            0.682943546713     0.066632710541     0.022134185615    14.003074004430
         C            1.398561046713     1.440319010541     0.275375485615    12.000000000000
         C            1.439401046713    -0.991776989459     0.909086485615    12.000000000000
         C           -1.681285953287     0.403124010541     1.081872485615    12.000000000000
         C            2.825394046713     1.554989010541    -0.237832514385    12.000000000000
         C            2.218760046713    -1.998194989459     0.079456485615    12.000000000000
         C           -3.172588953287     0.289415010541     0.794566485615    12.000000000000
         H            0.760488046713     2.124974010541    -0.284150514385     1.007825032230
         H            1.351530046713     1.717085010541     1.340062485615     1.007825032230
         H            2.079984046713    -0.518110989459     1.660956485615     1.007825032230
         H            0.640269046713    -1.508782989459     1.450690485615     1.007825032230
         H           -1.373846953287    -0.256107989459     1.898107485615     1.007825032230
         H           -1.392967953287     1.428890010541     1.328556485615     1.007825032230
         H            3.502438046713     0.885636010541     0.298484485615     1.007825032230
         H            2.855930046713     1.305280010541    -1.299633514385     1.007825032230
         H            3.189573046713     2.577894010541    -0.103777514385     1.007825032230
         H            1.548405046713    -2.465508989459    -0.643163514385     1.007825032230
         H            3.031384046713    -1.508474989459    -0.460827514385     1.007825032230
         H            2.643825046713    -2.774904989459     0.723168485615     1.007825032230
         H           -3.743795953287     0.582340010541     1.678866485615     1.007825032230
         H           -3.448144953287     0.942364010541    -0.034362514385     1.007825032230
         H           -3.431181953287    -0.737886989459     0.533571485615     1.007825032230

  Basis Set: AUG-CC-PVTZ
    Blend: AUG-CC-PVTZ
  Basis Set: (AUG-CC-PVTZ AUX)
    Blend: AUG-CC-PVTZ-JKFIT
	 Reference Energy          =    -837.7384539499893208 [Eh]
	 Singles Energy            =      -0.0000000000000000 [Eh]
	 Same-Spin Energy          =      -0.5158049141288281 [Eh]
	 Opposite-Spin Energy      =      -1.6678963391597472 [Eh]
	 Correlation Energy        =      -2.1837012532885751 [Eh]
	 Total Energy              =    -839.9221552032779528 [Eh]

	 ================> DF-SCS-MP2 Energies <==================
	-----------------------------------------------------------
	 SCS Same-Spin Scale       =       0.3333333333333333 [-]
	 SCS Opposite-Spin Scale   =       1.2000000000000000 [-]
	 SCS Same-Spin Energy      =      -0.1719349713762760 [Eh]
	 SCS Opposite-Spin Energy  =      -2.0014756069916966 [Eh]
	 SCS Correlation Energy    =      -2.1734105783679727 [Eh]
	 SCS Total Energy          =    -839.9118645283573414 [Eh]
	-----------------------------------------------------------

  Dipole Moment: [D]
     X:     3.1262      Y:     1.5023      Z:     4.5781     Total:     5.7436

*** Psi4 exiting successfully. Buy a developer a beer!
