                               Psi4 1.3.2 release

  ==> Input File <==

--------------------------------------------------------------------------
#psi4
#
memory 32 gb

molecule  {
0 1
  S       -0.8186544    -0.0841309    -0.4094779
  O       -1.0107130     0.9314480    -1.3993950
  O       -0.9666500    -1.4966470    -0.5970260
  N        0.8588360     0.0833010     0.0699440
  C        1.3822580     1.4387740     0.2709440
  C        1.4230980    -0.9933220     0.9046550
  C       -1.6975890     0.4015790     1.0774410
  C        2.8090910     1.5534440    -0.2422640
  C        2.2024570    -1.9997400     0.0750250
  C       -3.1707022     0.2634908     0.7164311
  H        0.7441850     2.1234290    -0.2885820
  H        1.3352270     1.7155400     1.3356310
  H        2.0636810    -0.5196560     1.6565250
  H        0.6239660    -1.5103280     1.4462590
  H       -1.3901500    -0.2576530     1.8936760
  H       -1.4092710     1.4273450     1.3241250
  H        3.4861350     0.8840910     0.2940530
  H        2.8396270     1.3037350    -1.3040650
  H        3.1732700     2.5763490    -0.1082090
  H        1.5321020    -2.4670540    -0.6475950
  H        3.0150810    -1.5100200    -0.4652590
  H        2.6275220    -2.7764500     0.7187370
  H       -3.7600990     0.5807950     1.6744350
  H       -3.4644480     0.9408190    -0.0387940
  H       -3.4474850    -0.7394320     0.5291400
units angstrom
no_reorient  #important for SAPT in psi4, default
symmetry c1  #important for SAPT in psi4, default
}

set PROPERTIES_ORIGIN ["COM"]
properties('MP2/aug-cc-pvtz', properties = ['dipole'])
--------------------------------------------------------------------------

    Molecular point group: c1
  Charge       = 0
  Multiplicity = 1
  Basis Set: AUG-CC-PVTZ
    Blend: AUG-CC-PVTZ
  Basis Set: (AUG-CC-PVTZ AUX)
    Blend: AUG-CC-PVTZ-JKFIT

    Orbital Energies [Eh]
    ---------------------

    Doubly Occupied:

       1A    -92.191839     2A    -20.551364     3A    -20.550943
       4A    -15.575604     5A    -11.279847     6A    -11.265994
       7A    -11.265596     8A    -11.242228     9A    -11.220600
      10A    -11.210080    11A     -9.158174    12A     -6.843166
      13A     -6.842780    14A     -6.842255    15A     -1.467541
      16A     -1.357633    17A     -1.222617    18A     -1.084877
      19A     -1.036639    20A     -0.993201    21A     -0.914395
      22A     -0.859680    23A     -0.843498    24A     -0.776982
      25A     -0.716481    26A     -0.680470    27A     -0.674362
      28A     -0.648454    29A     -0.633533    30A     -0.625147
      31A     -0.595696    32A     -0.573525    33A     -0.563475
      34A     -0.550033    35A     -0.548569    36A     -0.537903
      37A     -0.534590    38A     -0.514713    39A     -0.508256
      40A     -0.504472    41A     -0.491992    42A     -0.486955
      43A     -0.476758    44A     -0.440622    45A     -0.375059

  @DF-RHF Final Energy:  -837.76170642664999

   => Energetics <=

    Nuclear Repulsion Energy =            742.8770386953962088
    One-Electron Energy =               -2624.7202891928959616
    Two-Electron Energy =                1044.0815440708497590
    Total Energy =                       -837.7617064266501075
  Basis Set: (AUG-CC-PVTZ AUX)
    Blend: AUG-CC-PVTZ-RI
    Molecular point group: c1

    Geometry (in Angstrom), charge = 0, multiplicity = 1:

       Center              X                  Y                   Z               Mass
    ------------   -----------------  -----------------  -----------------  -----------------
         S           -0.804355911574    -0.079238813833    -0.395331085183    31.972071174400
         O           -0.996414511574     0.936340086167    -1.385248185183    15.994914619570
         O           -0.952351511574    -1.491754913833    -0.582879185183    15.994914619570
         N            0.873134488426     0.088193086167     0.084090814817    14.003074004430
         C            1.396556488426     1.443666086167     0.285090814817    12.000000000000
         C            1.437396488426    -0.988429913833     0.918801814817    12.000000000000
         C           -1.683290511574     0.406471086167     1.091587814817    12.000000000000
         C            2.823389488426     1.558336086167    -0.228117185183    12.000000000000
         C            2.216755488426    -1.994847913833     0.089171814817    12.000000000000
         C           -3.156403711574     0.268382886167     0.730577914817    12.000000000000
         H            0.758483488426     2.128321086167    -0.274435185183     1.007825032230
         H            1.349525488426     1.720432086167     1.349777814817     1.007825032230
         H            2.077979488426    -0.514763913833     1.670671814817     1.007825032230
         H            0.638264488426    -1.505435913833     1.460405814817     1.007825032230
         H           -1.375851511574    -0.252760913833     1.907822814817     1.007825032230
         H           -1.394972511574     1.432237086167     1.338271814817     1.007825032230
         H            3.500433488426     0.888983086167     0.308199814817     1.007825032230
         H            2.853925488426     1.308627086167    -1.289918185183     1.007825032230
         H            3.187568488426     2.581241086167    -0.094062185183     1.007825032230
         H            1.546400488426    -2.462161913833    -0.633448185183     1.007825032230
         H            3.029379488426    -1.505127913833    -0.451112185183     1.007825032230
         H            2.641820488426    -2.771557913833     0.732883814817     1.007825032230
         H           -3.745800511574     0.585687086167     1.688581814817     1.007825032230
         H           -3.450149511574     0.945711086167    -0.024647185183     1.007825032230
         H           -3.433186511574    -0.734539913833     0.543286814817     1.007825032230

  Basis Set: AUG-CC-PVTZ
    Blend: AUG-CC-PVTZ
  Basis Set: (AUG-CC-PVTZ AUX)
    Blend: AUG-CC-PVTZ-JKFIT
	 Reference Energy          =    -837.7617064266499938 [Eh]
	 Singles Energy            =      -0.0000000000000000 [Eh]
	 Same-Spin Energy          =      -0.5167189318752098 [Eh]
	 Opposite-Spin Energy      =      -1.6702056938486478 [Eh]
	 Correlation Energy        =      -2.1869246257238575 [Eh]
	 Total Energy              =    -839.9486310523737984 [Eh]

	 ================> DF-SCS-MP2 Energies <==================
	-----------------------------------------------------------
	 SCS Same-Spin Scale       =       0.3333333333333333 [-]
	 SCS Opposite-Spin Scale   =       1.2000000000000000 [-]
	 SCS Same-Spin Energy      =      -0.1722396439584032 [Eh]
	 SCS Opposite-Spin Energy  =      -2.0042468326183771 [Eh]
	 SCS Correlation Energy    =      -2.1764864765767804 [Eh]
	 SCS Total Energy          =    -839.9381929032267635 [Eh]
	-----------------------------------------------------------

  Dipole Moment: [D]
     X:     0.5588      Y:     1.3168      Z:     3.8844     Total:     4.1394

*** Psi4 exiting successfully. Buy a developer a beer!
