                               Psi4 1.3.2 release

  ==> Input File <==

--------------------------------------------------------------------------
#psi4
#
memory 32 gb

molecule  {
0 1
  S       -0.7380000    -0.0680220    -0.3640970
  O       -1.0182807     0.9127686    -1.4151190
  O       -0.9746599    -1.4912739    -0.6207140
  N        0.8588360     0.0833010     0.0699440
  C        1.3822580     1.4387740     0.2709440
  C        1.4230980    -0.9933220     0.9046550
  C       -1.6975890     0.4015790     1.0774410
  C        2.8090910     1.5534440    -0.2422640
  C        2.2024570    -1.9997400     0.0750250
  C       -3.1888920     0.2878700     0.7901350
  H        0.7441850     2.1234290    -0.2885820
  H        1.3352270     1.7155400     1.3356310
  H        2.0636810    -0.5196560     1.6565250
  H        0.6239660    -1.5103280     1.4462590
  H       -1.3901500    -0.2576530     1.8936760
  H       -1.4092710     1.4273450     1.3241250
  H        3.4861350     0.8840910     0.2940530
  H        2.8396270     1.3037350    -1.3040650
  H        3.1732700     2.5763490    -0.1082090
  H        1.5321020    -2.4670540    -0.6475950
  H        3.0150810    -1.5100200    -0.4652590
  H        2.6275220    -2.7764500     0.7187370
  H       -3.7600990     0.5807950     1.6744350
  H       -3.4644480     0.9408190    -0.0387940
  H       -3.4474850    -0.7394320     0.5291400
units angstrom
no_reorient  #important for SAPT in psi4, default
symmetry c1  #important for SAPT in psi4, default
}

set PROPERTIES_ORIGIN ["COM"]
properties('MP2/aug-cc-pvtz', properties = ['dipole'])
--------------------------------------------------------------------------

    Molecular point group: c1
  Charge       = 0
  Multiplicity = 1
  Basis Set: AUG-CC-PVTZ
    Blend: AUG-CC-PVTZ
  Basis Set: (AUG-CC-PVTZ AUX)
    Blend: AUG-CC-PVTZ-JKFIT

    Orbital Energies [Eh]
    ---------------------

    Doubly Occupied:

       1A    -92.190191     2A    -20.537077     3A    -20.536886
       4A    -15.594316     5A    -11.277359     6A    -11.276921
       7A    -11.276658     8A    -11.237132     9A    -11.228432
      10A    -11.216636    11A     -9.155969    12A     -6.841039
      13A     -6.840340    14A     -6.840195    15A     -1.443084
      16A     -1.323950    17A     -1.250147    18A     -1.079221
      19A     -1.047093    20A     -1.010702    21A     -0.916680
      22A     -0.870580    23A     -0.857734    24A     -0.774555
      25A     -0.720235    26A     -0.670987    27A     -0.667281
      28A     -0.652198    29A     -0.641799    30A     -0.610589
      31A     -0.600479    32A     -0.578035    33A     -0.572389
      34A     -0.550264    35A     -0.544640    36A     -0.541113
      37A     -0.527196    38A     -0.519954    39A     -0.512723
      40A     -0.498205    41A     -0.488385    42A     -0.484345
      43A     -0.458142    44A     -0.446655    45A     -0.396416

  @DF-RHF Final Energy:  -837.77711714894031

   => Energetics <=

    Nuclear Repulsion Energy =            743.2067783382592552
    One-Electron Energy =               -2625.3579340349447193
    Two-Electron Energy =                1044.3740385477451582
    Total Energy =                       -837.7771171489403059
  Basis Set: (AUG-CC-PVTZ AUX)
    Blend: AUG-CC-PVTZ-RI
    Molecular point group: c1

    Geometry (in Angstrom), charge = 0, multiplicity = 1:

       Center              X                  Y                   Z               Mass
    ------------   -----------------  -----------------  -----------------  -----------------
         S           -0.736490572528    -0.066732674306    -0.360278222013    31.972071174400
         O           -1.016771272528     0.914057925694    -1.411300222013    15.994914619570
         O           -0.973150472528    -1.489984574306    -0.616895222013    15.994914619570
         N            0.860345427472     0.084590325694     0.073762777987    14.003074004430
         C            1.383767427472     1.440063325694     0.274762777987    12.000000000000
         C            1.424607427472    -0.992032674306     0.908473777987    12.000000000000
         C           -1.696079572528     0.402868325694     1.081259777987    12.000000000000
         C            2.810600427472     1.554733325694    -0.238445222013    12.000000000000
         C            2.203966427472    -1.998450674306     0.078843777987    12.000000000000
         C           -3.187382572528     0.289159325694     0.793953777987    12.000000000000
         H            0.745694427472     2.124718325694    -0.284763222013     1.007825032230
         H            1.336736427472     1.716829325694     1.339449777987     1.007825032230
         H            2.065190427472    -0.518366674306     1.660343777987     1.007825032230
         H            0.625475427472    -1.509038674306     1.450077777987     1.007825032230
         H           -1.388640572528    -0.256363674306     1.897494777987     1.007825032230
         H           -1.407761572528     1.428634325694     1.327943777987     1.007825032230
         H            3.487644427472     0.885380325694     0.297871777987     1.007825032230
         H            2.841136427472     1.305024325694    -1.300246222013     1.007825032230
         H            3.174779427472     2.577638325694    -0.104390222013     1.007825032230
         H            1.533611427472    -2.465764674306    -0.643776222013     1.007825032230
         H            3.016590427472    -1.508730674306    -0.461440222013     1.007825032230
         H            2.629031427472    -2.775160674306     0.722555777987     1.007825032230
         H           -3.758589572528     0.582084325694     1.678253777987     1.007825032230
         H           -3.462938572528     0.942108325694    -0.034975222013     1.007825032230
         H           -3.445975572528    -0.738142674306     0.532958777987     1.007825032230

  Basis Set: AUG-CC-PVTZ
    Blend: AUG-CC-PVTZ
  Basis Set: (AUG-CC-PVTZ AUX)
    Blend: AUG-CC-PVTZ-JKFIT
	 Reference Energy          =    -837.7771171489403059 [Eh]
	 Singles Energy            =      -0.0000000000000000 [Eh]
	 Same-Spin Energy          =      -0.5166080532559485 [Eh]
	 Opposite-Spin Energy      =      -1.6694195653261530 [Eh]
	 Correlation Energy        =      -2.1860276185821013 [Eh]
	 Total Energy              =    -839.9631447675224081 [Eh]

	 ================> DF-SCS-MP2 Energies <==================
	-----------------------------------------------------------
	 SCS Same-Spin Scale       =       0.3333333333333333 [-]
	 SCS Opposite-Spin Scale   =       1.2000000000000000 [-]
	 SCS Same-Spin Energy      =      -0.1722026844186495 [Eh]
	 SCS Opposite-Spin Energy  =      -2.0033034783913837 [Eh]
	 SCS Correlation Energy    =      -2.1755061628100334 [Eh]
	 SCS Total Energy          =    -839.9526233117503580 [Eh]
	-----------------------------------------------------------

  Dipole Moment: [D]
     X:     1.6337      Y:     1.4744      Z:     4.4123     Total:     4.9306

*** Psi4 exiting successfully. Buy a developer a beer!
