                               Psi4 1.3.2 release

  ==> Input File <==

--------------------------------------------------------------------------
#psi4
#
memory 32 gb

molecule  {
0 1
  S       -0.7116890    -0.0623641    -0.3480855
  O       -1.0107130     0.9314480    -1.3993950
  O       -0.9666500    -1.4966470    -0.5970260
  N        0.8588360     0.0833010     0.0699440
  C        1.3822580     1.4387740     0.2709440
  C        1.4230980    -0.9933220     0.9046550
  C       -1.6975890     0.4015790     1.0774410
  C        2.8090910     1.5534440    -0.2422640
  C        2.2024570    -1.9997400     0.0750250
  C       -3.1940490     0.2960690     0.8148880
  H        0.7441850     2.1234290    -0.2885820
  H        1.3352270     1.7155400     1.3356310
  H        2.0636810    -0.5196560     1.6565250
  H        0.6239660    -1.5103280     1.4462590
  H       -1.3901500    -0.2576530     1.8936760
  H       -1.4092710     1.4273450     1.3241250
  H        3.4861350     0.8840910     0.2940530
  H        2.8396270     1.3037350    -1.3040650
  H        3.1732700     2.5763490    -0.1082090
  H        1.5321020    -2.4670540    -0.6475950
  H        3.0150810    -1.5100200    -0.4652590
  H        2.6275220    -2.7764500     0.7187370
  H       -3.7600990     0.5807950     1.6744350
  H       -3.4644480     0.9408190    -0.0387940
  H       -3.4474850    -0.7394320     0.5291400
units angstrom
no_reorient  #important for SAPT in psi4, default
symmetry c1  #important for SAPT in psi4, default
}

set PROPERTIES_ORIGIN ["COM"]
properties('MP2/aug-cc-pvtz', properties = ['dipole'])
--------------------------------------------------------------------------

    Molecular point group: c1
  Charge       = 0
  Multiplicity = 1
  Basis Set: AUG-CC-PVTZ
    Blend: AUG-CC-PVTZ
  Basis Set: (AUG-CC-PVTZ AUX)
    Blend: AUG-CC-PVTZ-JKFIT

    Orbital Energies [Eh]
    ---------------------

    Doubly Occupied:

       1A    -92.190400     2A    -20.534896     3A    -20.534755
       4A    -15.599066     5A    -11.279971     6A    -11.279649
       7A    -11.274506     8A    -11.235615     9A    -11.230364
      10A    -11.218334    11A     -9.156115    12A     -6.841244
      13A     -6.840394    14A     -6.840343    15A     -1.436686
      16A     -1.316396    17A     -1.257854    18A     -1.076728
      19A     -1.049792    20A     -1.015942    21A     -0.917139
      22A     -0.873524    23A     -0.862299    24A     -0.774061
      25A     -0.721394    26A     -0.671441    27A     -0.665656
      28A     -0.651674    29A     -0.644125    30A     -0.607215
      31A     -0.600597    32A     -0.581474    33A     -0.576082
      34A     -0.550589    35A     -0.545431    36A     -0.539143
      37A     -0.524560    38A     -0.517972    39A     -0.512560
      40A     -0.499998    41A     -0.487243    42A     -0.480884
      43A     -0.453912    44A     -0.445511    45A     -0.402407

  @DF-RHF Final Energy:  -837.77414020812057

   => Energetics <=

    Nuclear Repulsion Energy =            743.7326742799205022
    One-Electron Energy =               -2626.3817454642526172
    Two-Electron Energy =                1044.8749309762115445
    Total Energy =                       -837.7741402081205706
  Basis Set: (AUG-CC-PVTZ AUX)
    Blend: AUG-CC-PVTZ-RI
    Molecular point group: c1

    Geometry (in Angstrom), charge = 0, multiplicity = 1:

       Center              X                  Y                   Z               Mass
    ------------   -----------------  -----------------  -----------------  -----------------
         S           -0.716409769440    -0.064055807191    -0.352985694050    31.972071174400
         O           -1.015433769440     0.929756292809    -1.404295194050    15.994914619570
         O           -0.971370769440    -1.498338707191    -0.601926194050    15.994914619570
         N            0.854115230560     0.081609292809     0.065043805950    14.003074004430
         C            1.377537230560     1.437082292809     0.266043805950    12.000000000000
         C            1.418377230560    -0.995013707191     0.899754805950    12.000000000000
         C           -1.702309769440     0.399887292809     1.072540805950    12.000000000000
         C            2.804370230560     1.551752292809    -0.247164194050    12.000000000000
         C            2.197736230560    -2.001431707191     0.070124805950    12.000000000000
         C           -3.198769769440     0.294377292809     0.809987805950    12.000000000000
         H            0.739464230560     2.121737292809    -0.293482194050     1.007825032230
         H            1.330506230560     1.713848292809     1.330730805950     1.007825032230
         H            2.058960230560    -0.521347707191     1.651624805950     1.007825032230
         H            0.619245230560    -1.512019707191     1.441358805950     1.007825032230
         H           -1.394870769440    -0.259344707191     1.888775805950     1.007825032230
         H           -1.413991769440     1.425653292809     1.319224805950     1.007825032230
         H            3.481414230560     0.882399292809     0.289152805950     1.007825032230
         H            2.834906230560     1.302043292809    -1.308965194050     1.007825032230
         H            3.168549230560     2.574657292809    -0.113109194050     1.007825032230
         H            1.527381230560    -2.468745707191    -0.652495194050     1.007825032230
         H            3.010360230560    -1.511711707191    -0.470159194050     1.007825032230
         H            2.622801230560    -2.778141707191     0.713836805950     1.007825032230
         H           -3.764819769440     0.579103292809     1.669534805950     1.007825032230
         H           -3.469168769440     0.939127292809    -0.043694194050     1.007825032230
         H           -3.452205769440    -0.741123707191     0.524239805950     1.007825032230

  Basis Set: AUG-CC-PVTZ
    Blend: AUG-CC-PVTZ
  Basis Set: (AUG-CC-PVTZ AUX)
    Blend: AUG-CC-PVTZ-JKFIT
	 Reference Energy          =    -837.7741402081205706 [Eh]
	 Singles Energy            =      -0.0000000000000000 [Eh]
	 Same-Spin Energy          =      -0.5170426214346324 [Eh]
	 Opposite-Spin Energy      =      -1.6701112284712556 [Eh]
	 Correlation Energy        =      -2.1871538499058882 [Eh]
	 Total Energy              =    -839.9612940580265104 [Eh]

	 ================> DF-SCS-MP2 Energies <==================
	-----------------------------------------------------------
	 SCS Same-Spin Scale       =       0.3333333333333333 [-]
	 SCS Opposite-Spin Scale   =       1.2000000000000000 [-]
	 SCS Same-Spin Energy      =      -0.1723475404782108 [Eh]
	 SCS Opposite-Spin Energy  =      -2.0041334741655068 [Eh]
	 SCS Correlation Energy    =      -2.1764810146437177 [Eh]
	 SCS Total Energy          =    -839.9506212227643118 [Eh]
	-----------------------------------------------------------

  Dipole Moment: [D]
     X:     1.9327      Y:     1.4832      Z:     4.4578     Total:     5.0801

*** Psi4 exiting successfully. Buy a developer a beer!
