                               Psi4 1.3.2 release

  ==> Input File <==

--------------------------------------------------------------------------
#psi4
#
memory 32 gb

molecule  {
0 1
  S       -0.7380000    -0.0680220    -0.3640970
  O       -1.0107130     0.9314480    -1.3993950
  O       -0.9666500    -1.4966470    -0.5970260
  N        0.8588360     0.0833010     0.0699440
  C        1.3822580     1.4387740     0.2709440
  C        1.4230980    -0.9933220     0.9046550
  C       -1.6975890     0.4015790     1.0774410
  C        2.8090910     1.5534440    -0.2422640
  C        2.2024570    -1.9997400     0.0750250
  C       -2.9930515     0.3028025     0.8278645
  H        0.7441850     2.1234290    -0.2885820
  H        1.3352270     1.7155400     1.3356310
  H        2.0636810    -0.5196560     1.6565250
  H        0.6239660    -1.5103280     1.4462590
  H       -1.3901500    -0.2576530     1.8936760
  H       -1.4092710     1.4273450     1.3241250
  H        3.4861350     0.8840910     0.2940530
  H        2.8396270     1.3037350    -1.3040650
  H        3.1732700     2.5763490    -0.1082090
  H        1.5321020    -2.4670540    -0.6475950
  H        3.0150810    -1.5100200    -0.4652590
  H        2.6275220    -2.7764500     0.7187370
  H       -3.7600990     0.5807950     1.6744350
  H       -3.4644480     0.9408190    -0.0387940
  H       -3.4474850    -0.7394320     0.5291400
units angstrom
no_reorient  #important for SAPT in psi4, default
symmetry c1  #important for SAPT in psi4, default
}

set PROPERTIES_ORIGIN ["COM"]
properties('MP2/aug-cc-pvtz', properties = ['dipole'])
--------------------------------------------------------------------------

    Molecular point group: c1
  Charge       = 0
  Multiplicity = 1
  Basis Set: AUG-CC-PVTZ
    Blend: AUG-CC-PVTZ
  Basis Set: (AUG-CC-PVTZ AUX)
    Blend: AUG-CC-PVTZ-JKFIT

    Orbital Energies [Eh]
    ---------------------

    Doubly Occupied:

       1A    -92.191599     2A    -20.540481     3A    -20.540274
       4A    -15.594538     5A    -11.277230     6A    -11.276880
       7A    -11.267825     8A    -11.244934     9A    -11.228508
      10A    -11.216849    11A     -9.157672    12A     -6.842719
      13A     -6.841938    14A     -6.841899    15A     -1.445814
      16A     -1.328420    17A     -1.250017    18A     -1.123549
      19A     -1.047163    20A     -1.012682    21A     -0.906487
      22A     -0.870676    23A     -0.849221    24A     -0.777428
      25A     -0.724309    26A     -0.678038    27A     -0.675357
      28A     -0.657332    29A     -0.647296    30A     -0.617242
      31A     -0.611418    32A     -0.600633    33A     -0.577585
      34A     -0.549419    35A     -0.543958    36A     -0.527904
      37A     -0.521198    38A     -0.514086    39A     -0.499711
      40A     -0.489524    41A     -0.482511    42A     -0.476942
      43A     -0.458869    44A     -0.442219    45A     -0.394808

  @DF-RHF Final Energy:  -837.72666795169471

   => Energetics <=

    Nuclear Repulsion Energy =            747.6717714081389659
    One-Electron Energy =               -2634.0665600486081530
    Two-Electron Energy =                1048.6681206887744793
    Total Energy =                       -837.7266679516947079
  Basis Set: (AUG-CC-PVTZ AUX)
    Blend: AUG-CC-PVTZ-RI
    Molecular point group: c1

    Geometry (in Angstrom), charge = 0, multiplicity = 1:

       Center              X                  Y                   Z               Mass
    ------------   -----------------  -----------------  -----------------  -----------------
         S           -0.752235734767    -0.069107386882    -0.366839465996    31.972071174400
         O           -1.024948734767     0.930362613118    -1.402137465996    15.994914619570
         O           -0.980885734767    -1.497732386882    -0.599768465996    15.994914619570
         N            0.844600265233     0.082215613118     0.067201534004    14.003074004430
         C            1.368022265233     1.437688613118     0.268201534004    12.000000000000
         C            1.408862265233    -0.994407386882     0.901912534004    12.000000000000
         C           -1.711824734767     0.400493613118     1.074698534004    12.000000000000
         C            2.794855265233     1.552358613118    -0.245006465996    12.000000000000
         C            2.188221265233    -2.000825386882     0.072282534004    12.000000000000
         C           -3.007287234767     0.301717113118     0.825122034004    12.000000000000
         H            0.729949265233     2.122343613118    -0.291324465996     1.007825032230
         H            1.320991265233     1.714454613118     1.332888534004     1.007825032230
         H            2.049445265233    -0.520741386882     1.653782534004     1.007825032230
         H            0.609730265233    -1.511413386882     1.443516534004     1.007825032230
         H           -1.404385734767    -0.258738386882     1.890933534004     1.007825032230
         H           -1.423506734767     1.426259613118     1.321382534004     1.007825032230
         H            3.471899265233     0.883005613118     0.291310534004     1.007825032230
         H            2.825391265233     1.302649613118    -1.306807465996     1.007825032230
         H            3.159034265233     2.575263613118    -0.110951465996     1.007825032230
         H            1.517866265233    -2.468139386882    -0.650337465996     1.007825032230
         H            3.000845265233    -1.511105386882    -0.468001465996     1.007825032230
         H            2.613286265233    -2.777535386882     0.715994534004     1.007825032230
         H           -3.774334734767     0.579709613118     1.671692534004     1.007825032230
         H           -3.478683734767     0.939733613118    -0.041536465996     1.007825032230
         H           -3.461720734767    -0.740517386882     0.526397534004     1.007825032230

  Basis Set: AUG-CC-PVTZ
    Blend: AUG-CC-PVTZ
  Basis Set: (AUG-CC-PVTZ AUX)
    Blend: AUG-CC-PVTZ-JKFIT
	 Reference Energy          =    -837.7266679516947079 [Eh]
	 Singles Energy            =      -0.0000000000000000 [Eh]
	 Same-Spin Energy          =      -0.5198982724072323 [Eh]
	 Opposite-Spin Energy      =      -1.6738743609687838 [Eh]
	 Correlation Energy        =      -2.1937726333760161 [Eh]
	 Total Energy              =    -839.9204405850707644 [Eh]

	 ================> DF-SCS-MP2 Energies <==================
	-----------------------------------------------------------
	 SCS Same-Spin Scale       =       0.3333333333333333 [-]
	 SCS Opposite-Spin Scale   =       1.2000000000000000 [-]
	 SCS Same-Spin Energy      =      -0.1732994241357441 [Eh]
	 SCS Opposite-Spin Energy  =      -2.0086492331625405 [Eh]
	 SCS Correlation Energy    =      -2.1819486572982845 [Eh]
	 SCS Total Energy          =    -839.9086166089930430 [Eh]
	-----------------------------------------------------------

  Dipole Moment: [D]
     X:     1.6719      Y:     1.4263      Z:     4.2638     Total:     4.7969

*** Psi4 exiting successfully. Buy a developer a beer!
