                               Psi4 1.3.2 release

  ==> Input File <==

--------------------------------------------------------------------------
#psi4
#
memory 32 gb

molecule  {
0 1
  S       -0.7380000    -0.0680220    -0.3640970
  O       -1.0263953     0.9435658    -1.3832500
  O       -0.9666500    -1.4966470    -0.5970260
  N        0.8588360     0.0833010     0.0699440
  C        1.3822580     1.4387740     0.2709440
  C        1.4230980    -0.9933220     0.9046550
  C       -1.7086043     0.4263148     1.0617103
  C        2.8090910     1.5534440    -0.2422640
  C        2.2024570    -1.9997400     0.0750250
  C       -3.1888920     0.2878700     0.7901350
  H        0.7441850     2.1234290    -0.2885820
  H        1.3352270     1.7155400     1.3356310
  H        2.0636810    -0.5196560     1.6565250
  H        0.6239660    -1.5103280     1.4462590
  H       -1.3901500    -0.2576530     1.8936760
  H       -1.4092710     1.4273450     1.3241250
  H        3.4861350     0.8840910     0.2940530
  H        2.8396270     1.3037350    -1.3040650
  H        3.1732700     2.5763490    -0.1082090
  H        1.5321020    -2.4670540    -0.6475950
  H        3.0150810    -1.5100200    -0.4652590
  H        2.6275220    -2.7764500     0.7187370
  H       -3.7600990     0.5807950     1.6744350
  H       -3.4644480     0.9408190    -0.0387940
  H       -3.4474850    -0.7394320     0.5291400
units angstrom
no_reorient  #important for SAPT in psi4, default
symmetry c1  #important for SAPT in psi4, default
}

set PROPERTIES_ORIGIN ["COM"]
properties('MP2/aug-cc-pvtz', properties = ['dipole'])
--------------------------------------------------------------------------

    Molecular point group: c1
  Charge       = 0
  Multiplicity = 1
  Basis Set: AUG-CC-PVTZ
    Blend: AUG-CC-PVTZ
  Basis Set: (AUG-CC-PVTZ AUX)
    Blend: AUG-CC-PVTZ-JKFIT

    Orbital Energies [Eh]
    ---------------------

    Doubly Occupied:

       1A    -92.190938     2A    -20.540362     3A    -20.537805
       4A    -15.594767     5A    -11.276850     6A    -11.276487
       7A    -11.274768     8A    -11.235407     9A    -11.228300
      10A    -11.216630    11A     -9.156605    12A     -6.841691
      13A     -6.840957    14A     -6.840866    15A     -1.444117
      16A     -1.327827    17A     -1.249727    18A     -1.078574
      19A     -1.046865    20A     -1.010705    21A     -0.915618
      22A     -0.870375    23A     -0.857270    24A     -0.773883
      25A     -0.720773    26A     -0.671922    27A     -0.665972
      28A     -0.651164    29A     -0.641245    30A     -0.612091
      31A     -0.600410    32A     -0.577907    33A     -0.573671
      34A     -0.550005    35A     -0.544317    36A     -0.542988
      37A     -0.524278    38A     -0.519046    39A     -0.512295
      40A     -0.497435    41A     -0.489559    42A     -0.485943
      43A     -0.460835    44A     -0.445041    45A     -0.396469

  @DF-RHF Final Energy:  -837.77529750514043

   => Energetics <=

    Nuclear Repulsion Energy =            743.5600737459348011
    One-Electron Energy =               -2626.0492171611281265
    Two-Electron Energy =                1044.7138459100528962
    Total Energy =                       -837.7752975051403155
  Basis Set: (AUG-CC-PVTZ AUX)
    Blend: AUG-CC-PVTZ-RI
    Molecular point group: c1

    Geometry (in Angstrom), charge = 0, multiplicity = 1:

       Center              X                  Y                   Z               Mass
    ------------   -----------------  -----------------  -----------------  -----------------
         S           -0.735679714991    -0.070994098432    -0.364517688388    31.972071174400
         O           -1.024075014991     0.940593701568    -1.383670688388    15.994914619570
         O           -0.964329714991    -1.499619098432    -0.597446688388    15.994914619570
         N            0.861156285009     0.080328901568     0.069523311612    14.003074004430
         C            1.384578285009     1.435801901568     0.270523311612    12.000000000000
         C            1.425418285009    -0.996294098432     0.904234311612    12.000000000000
         C           -1.706284014991     0.423342701568     1.061289611612    12.000000000000
         C            2.811411285009     1.550471901568    -0.242684688388    12.000000000000
         C            2.204777285009    -2.002712098432     0.074604311612    12.000000000000
         C           -3.186571714991     0.284897901568     0.789714311612    12.000000000000
         H            0.746505285009     2.120456901568    -0.289002688388     1.007825032230
         H            1.337547285009     1.712567901568     1.335210311612     1.007825032230
         H            2.066001285009    -0.522628098432     1.656104311612     1.007825032230
         H            0.626286285009    -1.513300098432     1.445838311612     1.007825032230
         H           -1.387829714991    -0.260625098432     1.893255311612     1.007825032230
         H           -1.406950714991     1.424372901568     1.323704311612     1.007825032230
         H            3.488455285009     0.881118901568     0.293632311612     1.007825032230
         H            2.841947285009     1.300762901568    -1.304485688388     1.007825032230
         H            3.175590285009     2.573376901568    -0.108629688388     1.007825032230
         H            1.534422285009    -2.470026098432    -0.648015688388     1.007825032230
         H            3.017401285009    -1.512992098432    -0.465679688388     1.007825032230
         H            2.629842285009    -2.779422098432     0.718316311612     1.007825032230
         H           -3.757778714991     0.577822901568     1.674014311612     1.007825032230
         H           -3.462127714991     0.937846901568    -0.039214688388     1.007825032230
         H           -3.445164714991    -0.742404098432     0.528719311612     1.007825032230

  Basis Set: AUG-CC-PVTZ
    Blend: AUG-CC-PVTZ
  Basis Set: (AUG-CC-PVTZ AUX)
    Blend: AUG-CC-PVTZ-JKFIT
	 Reference Energy          =    -837.7752975051404292 [Eh]
	 Singles Energy            =      -0.0000000000000000 [Eh]
	 Same-Spin Energy          =      -0.5169251531528455 [Eh]
	 Opposite-Spin Energy      =      -1.6699531971171122 [Eh]
	 Correlation Energy        =      -2.1868783502699576 [Eh]
	 Total Energy              =    -839.9621758554103508 [Eh]

	 ================> DF-SCS-MP2 Energies <==================
	-----------------------------------------------------------
	 SCS Same-Spin Scale       =       0.3333333333333333 [-]
	 SCS Opposite-Spin Scale   =       1.2000000000000000 [-]
	 SCS Same-Spin Energy      =      -0.1723083843842818 [Eh]
	 SCS Opposite-Spin Energy  =      -2.0039438365405347 [Eh]
	 SCS Correlation Energy    =      -2.1762522209248165 [Eh]
	 SCS Total Energy          =    -839.9515497260651955 [Eh]
	-----------------------------------------------------------

  Dipole Moment: [D]
     X:     1.6568      Y:     1.4096      Z:     4.2722     Total:     4.7941

*** Psi4 exiting successfully. Buy a developer a beer!
