                               Psi4 1.3.2 release

  ==> Input File <==

--------------------------------------------------------------------------
#psi4
#
memory 32 gb

molecule  {
0 1
  S       -0.7380000    -0.0680220    -0.3640970
  O       -1.0145074     0.9221460    -1.4072967
  O       -0.9706638    -1.4940147    -0.6088793
  N        0.8588360     0.0833010     0.0699440
  C        1.3822580     1.4387740     0.2709440
  C        1.4230980    -0.9933220     0.9046550
  C       -1.6975890     0.4015790     1.0774410
  C        2.8090910     1.5534440    -0.2422640
  C        2.2024570    -1.9997400     0.0750250
  C       -3.1888920     0.2878700     0.7901350
  H        0.7441850     2.1234290    -0.2885820
  H        1.3352270     1.7155400     1.3356310
  H        2.0636810    -0.5196560     1.6565250
  H        0.6239660    -1.5103280     1.4462590
  H       -1.3901500    -0.2576530     1.8936760
  H       -1.4092710     1.4273450     1.3241250
  H        3.4861350     0.8840910     0.2940530
  H        2.8396270     1.3037350    -1.3040650
  H        3.1732700     2.5763490    -0.1082090
  H        1.5321020    -2.4670540    -0.6475950
  H        3.0150810    -1.5100200    -0.4652590
  H        2.6275220    -2.7764500     0.7187370
  H       -3.7600990     0.5807950     1.6744350
  H       -3.4644480     0.9408190    -0.0387940
  H       -3.4474850    -0.7394320     0.5291400
units angstrom
no_reorient  #important for SAPT in psi4, default
symmetry c1  #important for SAPT in psi4, default
}

set PROPERTIES_ORIGIN ["COM"]
properties('MP2/aug-cc-pvtz', properties = ['dipole'])
--------------------------------------------------------------------------

    Molecular point group: c1
  Charge       = 0
  Multiplicity = 1
  Basis Set: AUG-CC-PVTZ
    Blend: AUG-CC-PVTZ
  Basis Set: (AUG-CC-PVTZ AUX)
    Blend: AUG-CC-PVTZ-JKFIT

    Orbital Energies [Eh]
    ---------------------

    Doubly Occupied:

       1A    -92.190504     2A    -20.538009     3A    -20.537810
       4A    -15.593910     5A    -11.276903     6A    -11.276512
       7A    -11.276065     8A    -11.236984     9A    -11.228176
      10A    -11.216449    11A     -9.156238    12A     -6.841320
      13A     -6.840597    14A     -6.840481    15A     -1.443518
      16A     -1.325545    17A     -1.249591    18A     -1.078762
      19A     -1.046766    20A     -1.010399    21A     -0.916354
      22A     -0.870279    23A     -0.857548    24A     -0.774432
      25A     -0.720347    26A     -0.671013    27A     -0.667351
      28A     -0.651987    29A     -0.641499    30A     -0.611274
      31A     -0.600230    32A     -0.577734    33A     -0.572329
      34A     -0.550080    35A     -0.544434    36A     -0.540892
      37A     -0.527056    38A     -0.519750    39A     -0.512394
      40A     -0.498012    41A     -0.488732    42A     -0.485208
      43A     -0.459309    44A     -0.446368    45A     -0.396088

  @DF-RHF Final Energy:  -837.77704665545207

   => Energetics <=

    Nuclear Repulsion Energy =            743.3561305310918215
    One-Electron Energy =               -2625.6558850491219346
    Two-Electron Energy =                1044.5227078625780450
    Total Energy =                       -837.7770466554520681
  Basis Set: (AUG-CC-PVTZ AUX)
    Blend: AUG-CC-PVTZ-RI
    Molecular point group: c1

    Geometry (in Angstrom), charge = 0, multiplicity = 1:

       Center              X                  Y                   Z               Mass
    ------------   -----------------  -----------------  -----------------  -----------------
         S           -0.737243353729    -0.067375697926    -0.362182798952    31.972071174400
         O           -1.013750753729     0.922792302074    -1.405382498952    15.994914619570
         O           -0.969907153729    -1.493368397926    -0.606965098952    15.994914619570
         N            0.859592646271     0.083947302074     0.071858201048    14.003074004430
         C            1.383014646271     1.439420302074     0.272858201048    12.000000000000
         C            1.423854646271    -0.992675697926     0.906569201048    12.000000000000
         C           -1.696832353729     0.402225302074     1.079355201048    12.000000000000
         C            2.809847646271     1.554090302074    -0.240349798952    12.000000000000
         C            2.203213646271    -1.999093697926     0.076939201048    12.000000000000
         C           -3.188135353729     0.288516302074     0.792049201048    12.000000000000
         H            0.744941646271     2.124075302074    -0.286667798952     1.007825032230
         H            1.335983646271     1.716186302074     1.337545201048     1.007825032230
         H            2.064437646271    -0.519009697926     1.658439201048     1.007825032230
         H            0.624722646271    -1.509681697926     1.448173201048     1.007825032230
         H           -1.389393353729    -0.257006697926     1.895590201048     1.007825032230
         H           -1.408514353729     1.427991302074     1.326039201048     1.007825032230
         H            3.486891646271     0.884737302074     0.295967201048     1.007825032230
         H            2.840383646271     1.304381302074    -1.302150798952     1.007825032230
         H            3.174026646271     2.576995302074    -0.106294798952     1.007825032230
         H            1.532858646271    -2.466407697926    -0.645680798952     1.007825032230
         H            3.015837646271    -1.509373697926    -0.463344798952     1.007825032230
         H            2.628278646271    -2.775803697926     0.720651201048     1.007825032230
         H           -3.759342353729     0.581441302074     1.676349201048     1.007825032230
         H           -3.463691353729     0.941465302074    -0.036879798952     1.007825032230
         H           -3.446728353729    -0.738785697926     0.531054201048     1.007825032230

  Basis Set: AUG-CC-PVTZ
    Blend: AUG-CC-PVTZ
  Basis Set: (AUG-CC-PVTZ AUX)
    Blend: AUG-CC-PVTZ-JKFIT
	 Reference Energy          =    -837.7770466554520681 [Eh]
	 Singles Energy            =      -0.0000000000000000 [Eh]
	 Same-Spin Energy          =      -0.5166870843339344 [Eh]
	 Opposite-Spin Energy      =      -1.6695660769121028 [Eh]
	 Correlation Energy        =      -2.1862531612460372 [Eh]
	 Total Energy              =    -839.9632998166980542 [Eh]

	 ================> DF-SCS-MP2 Energies <==================
	-----------------------------------------------------------
	 SCS Same-Spin Scale       =       0.3333333333333333 [-]
	 SCS Opposite-Spin Scale   =       1.2000000000000000 [-]
	 SCS Same-Spin Energy      =      -0.1722290281113115 [Eh]
	 SCS Opposite-Spin Energy  =      -2.0034792922945233 [Eh]
	 SCS Correlation Energy    =      -2.1757083204058345 [Eh]
	 SCS Total Energy          =    -839.9527549758579426 [Eh]
	-----------------------------------------------------------

  Dipole Moment: [D]
     X:     1.6123      Y:     1.4580      Z:     4.3627     Total:     4.8742

*** Psi4 exiting successfully. Buy a developer a beer!
