                               Psi4 1.4a3.dev225

  ==> Input File <==

--------------------------------------------------------------------------
#psi4
#
memory 32 gb

molecule  {
0 1
  S        0.7616280     0.0424770    -0.4366460
  O        1.0106390    -1.0967940    -1.4046716
  O        0.9495440     1.4436620    -0.8249950
  N       -0.8076120    -0.0882160     0.0931460
  C       -1.3185710    -1.4233650     0.4283730
  C       -1.3686840     1.0652840     0.8208400
  C        1.8058710    -0.2545270     0.9952940
  C       -2.7505920    -1.6006810    -0.0558370
  C       -2.1814690     1.9714470    -0.0911900
  C        3.2787560    -0.1326200     0.6229570
  H       -0.6761480    -2.1530350    -0.0688350
  H       -1.2569730    -1.5943860     1.5141500
  H       -1.9866060     0.6632120     1.6319710
  H       -0.5646970     1.6429440     1.2905320
  H        1.5186250     0.4781900     1.7554980
  H        1.5601880    -1.2573080     1.3582850
  H       -3.4295210    -0.8918450     0.4253230
  H       -2.7963610    -1.4499180    -1.1363750
  H       -3.1014500    -2.6111540     0.1760480
  H       -1.5338360     2.3728670    -0.8718090
  H       -2.9953600     1.4152720    -0.5615490
  H       -2.6084920     2.8033720     0.4789350
  H        3.8991710    -0.3169240     1.5035790
  H        3.5375790    -0.8611900    -0.1476860
  H        3.4935140     0.8689240     0.2454810
units angstrom
no_reorient  #important for SAPT in psi4, default
symmetry c1  #important for SAPT in psi4, default
}

set PROPERTIES_ORIGIN ["COM"]
properties('MP2/aug-cc-pvtz', properties = ['dipole'])
--------------------------------------------------------------------------

    Molecular point group: c1
  Charge       = 0
  Multiplicity = 1
  Basis Set: AUG-CC-PVTZ
    Blend: AUG-CC-PVTZ
  Basis Set: (AUG-CC-PVTZ AUX)
    Blend: AUG-CC-PVTZ-JKFIT

    Orbital Energies [Eh]
    ---------------------

    Doubly Occupied:

       1A    -92.194893     2A    -20.542606     3A    -20.538169
       4A    -15.595796     5A    -11.278474     6A    -11.278159
       7A    -11.277202     8A    -11.237702     9A    -11.228137
      10A    -11.217255    11A     -9.159958    12A     -6.845029
      13A     -6.844268    14A     -6.843920    15A     -1.431644
      16A     -1.312890    17A     -1.248126    18A     -1.079044
      19A     -1.046467    20A     -1.010721    21A     -0.917734
      22A     -0.870542    23A     -0.858518    24A     -0.775631
      25A     -0.718514    26A     -0.669947    27A     -0.664450
      28A     -0.651700    29A     -0.639858    30A     -0.607379
      31A     -0.599489    32A     -0.577439    33A     -0.571389
      34A     -0.549448    35A     -0.544579    36A     -0.540938
      37A     -0.526988    38A     -0.519667    39A     -0.512917
      40A     -0.497661    41A     -0.484787    42A     -0.482454
      43A     -0.455938    44A     -0.444879    45A     -0.395914

  @DF-RHF Final Energy:  -837.76899125215084

   => Energetics <=

    Nuclear Repulsion Energy =            740.3792101287599507
    One-Electron Energy =               -2619.7179639045170916
    Two-Electron Energy =                1041.5697625236061867
    Total Energy =                       -837.7689912521509541
  Basis Set: (AUG-CC-PVTZ AUX)
    Blend: AUG-CC-PVTZ-RI
    Molecular point group: c1

    Geometry (in Angstrom), charge = 0, multiplicity = 1:

       Center              X                  Y                   Z               Mass
    ------------   -----------------  -----------------  -----------------  -----------------
         S            0.719323113051     0.040784441129    -0.388056542660    31.972071174400
         O            0.968334113051    -1.098486558871    -1.356082142660    15.994914619570
         O            0.907239113051     1.441969441129    -0.776405542660    15.994914619570
         N           -0.849916886949    -0.089908558871     0.141735457340    14.003074004430
         C           -1.360875886949    -1.425057558871     0.476962457340    12.000000000000
         C           -1.410988886949     1.063591441129     0.869429457340    12.000000000000
         C            1.763566113051    -0.256219558871     1.043883457340    12.000000000000
         C           -2.792896886949    -1.602373558871    -0.007247542660    12.000000000000
         C           -2.223773886949     1.969754441129    -0.042600542660    12.000000000000
         C            3.236451113051    -0.134312558871     0.671546457340    12.000000000000
         H           -0.718452886949    -2.154727558871    -0.020245542660     1.007825032230
         H           -1.299277886949    -1.596078558871     1.562739457340     1.007825032230
         H           -2.028910886949     0.661519441129     1.680560457340     1.007825032230
         H           -0.607001886949     1.641251441129     1.339121457340     1.007825032230
         H            1.476320113051     0.476497441129     1.804087457340     1.007825032230
         H            1.517883113051    -1.259000558871     1.406874457340     1.007825032230
         H           -3.471825886949    -0.893537558871     0.473912457340     1.007825032230
         H           -2.838665886949    -1.451610558871    -1.087785542660     1.007825032230
         H           -3.143754886949    -2.612846558871     0.224637457340     1.007825032230
         H           -1.576140886949     2.371174441129    -0.823219542660     1.007825032230
         H           -3.037664886949     1.413579441129    -0.512959542660     1.007825032230
         H           -2.650796886949     2.801679441129     0.527524457340     1.007825032230
         H            3.856866113051    -0.318616558871     1.552168457340     1.007825032230
         H            3.495274113051    -0.862882558871    -0.099096542660     1.007825032230
         H            3.451209113051     0.867231441129     0.294070457340     1.007825032230

  Basis Set: AUG-CC-PVTZ
    Blend: AUG-CC-PVTZ
  Basis Set: (AUG-CC-PVTZ AUX)
    Blend: AUG-CC-PVTZ-JKFIT
	 Reference Energy          =    -837.7689912521508404 [Eh]
	 Singles Energy            =      -0.0000000000000000 [Eh]
	 Same-Spin Energy          =      -0.5176158624797254 [Eh]
	 Opposite-Spin Energy      =      -1.6722237371371169 [Eh]
	 Correlation Energy        =      -2.1898395996168425 [Eh]
	 Total Energy              =    -839.9588308517676296 [Eh]

	 ================> DF-SCS-MP2 Energies <==================
	-----------------------------------------------------------
	 SCS Same-Spin Scale       =       0.3333333333333333 [-]
	 SCS Opposite-Spin Scale   =       1.2000000000000000 [-]
	 SCS Same-Spin Energy      =      -0.1725386208265751 [Eh]
	 SCS Opposite-Spin Energy  =      -2.0066684845645404 [Eh]
	 SCS Correlation Energy    =      -2.1792071053911153 [Eh]
	 SCS Total Energy          =    -839.9481983575419690 [Eh]
	-----------------------------------------------------------

  Dipole Moment: [D]
     X:    -1.4362      Y:    -0.8052      Z:     4.6414     Total:     4.9248

*** Psi4 exiting successfully. Buy a developer a beer!
