                               Psi4 1.3.2 release

  ==> Input File <==

--------------------------------------------------------------------------
#psi4
#
memory 32 gb

molecule  {
0 1
  S       -0.7380000    -0.0680220    -0.3640970
  O       -1.0107130     0.9314480    -1.3993950
  O       -0.9666500    -1.4966470    -0.5970260
  N        0.8418239     0.1005621     0.1226385
  C        1.3822580     1.4387740     0.2709440
  C        1.4230980    -0.9933220     0.9046550
  C       -1.6440943     0.4120181     1.1082897
  C        2.8090910     1.5534440    -0.2422640
  C        2.2024570    -1.9997400     0.0750250
  C       -3.1888920     0.2878700     0.7901350
  H        0.7441850     2.1234290    -0.2885820
  H        1.3352270     1.7155400     1.3356310
  H        2.0636810    -0.5196560     1.6565250
  H        0.6239660    -1.5103280     1.4462590
  H       -1.3901500    -0.2576530     1.8936760
  H       -1.4092710     1.4273450     1.3241250
  H        3.4861350     0.8840910     0.2940530
  H        2.8396270     1.3037350    -1.3040650
  H        3.1732700     2.5763490    -0.1082090
  H        1.5321020    -2.4670540    -0.6475950
  H        3.0150810    -1.5100200    -0.4652590
  H        2.6275220    -2.7764500     0.7187370
  H       -3.7600990     0.5807950     1.6744350
  H       -3.4644480     0.9408190    -0.0387940
  H       -3.4474850    -0.7394320     0.5291400
units angstrom
no_reorient  #important for SAPT in psi4, default
symmetry c1  #important for SAPT in psi4, default
}

set PROPERTIES_ORIGIN ["COM"]
properties('MP2/aug-cc-pvtz', properties = ['dipole'])
--------------------------------------------------------------------------

    Molecular point group: c1
  Charge       = 0
  Multiplicity = 1
  Basis Set: AUG-CC-PVTZ
    Blend: AUG-CC-PVTZ
  Basis Set: (AUG-CC-PVTZ AUX)
    Blend: AUG-CC-PVTZ-JKFIT

    Orbital Energies [Eh]
    ---------------------

    Doubly Occupied:

       1A    -92.192900     2A    -20.542165     3A    -20.542127
       4A    -15.588132     5A    -11.275181     6A    -11.274692
       7A    -11.271536     8A    -11.238906     9A    -11.227495
      10A    -11.216569    11A     -9.158253    12A     -6.843426
      13A     -6.842686    14A     -6.842461    15A     -1.445552
      16A     -1.329424    17A     -1.251936    18A     -1.071844
      19A     -1.046691    20A     -1.008457    21A     -0.916082
      22A     -0.872875    23A     -0.859008    24A     -0.774589
      25A     -0.720290    26A     -0.673821    27A     -0.670976
      28A     -0.652893    29A     -0.640728    30A     -0.613376
      31A     -0.600591    32A     -0.579115    33A     -0.565197
      34A     -0.549415    35A     -0.546497    36A     -0.533852
      37A     -0.529460    38A     -0.519542    39A     -0.513058
      40A     -0.499769    41A     -0.492129    42A     -0.488780
      43A     -0.463429    44A     -0.447447    45A     -0.388024

  @DF-RHF Final Energy:  -837.77304770439173

   => Energetics <=

    Nuclear Repulsion Energy =            743.6390633945147783
    One-Electron Energy =               -2626.1814734060822047
    Two-Electron Energy =                1044.7693623071756974
    Total Energy =                       -837.7730477043917290
  Basis Set: (AUG-CC-PVTZ AUX)
    Blend: AUG-CC-PVTZ-RI
    Molecular point group: c1

    Geometry (in Angstrom), charge = 0, multiplicity = 1:

       Center              X                  Y                   Z               Mass
    ------------   -----------------  -----------------  -----------------  -----------------
         S           -0.740445429526    -0.070244926181    -0.370809093176    31.972071174400
         O           -1.013158429526     0.929225073819    -1.406107093176    15.994914619570
         O           -0.969095429526    -1.498869926181    -0.603738093176    15.994914619570
         N            0.839378470474     0.098339173819     0.115926406824    14.003074004430
         C            1.379812570474     1.436551073819     0.264231906824    12.000000000000
         C            1.420652570474    -0.995544926181     0.897942906824    12.000000000000
         C           -1.646539729526     0.409795173819     1.101577606824    12.000000000000
         C            2.806645570474     1.551221073819    -0.248976093176    12.000000000000
         C            2.200011570474    -2.001962926181     0.068312906824    12.000000000000
         C           -3.191337429526     0.285647073819     0.783422906824    12.000000000000
         H            0.741739570474     2.121206073819    -0.295294093176     1.007825032230
         H            1.332781570474     1.713317073819     1.328918906824     1.007825032230
         H            2.061235570474    -0.521878926181     1.649812906824     1.007825032230
         H            0.621520570474    -1.512550926181     1.439546906824     1.007825032230
         H           -1.392595429526    -0.259875926181     1.886963906824     1.007825032230
         H           -1.411716429526     1.425122073819     1.317412906824     1.007825032230
         H            3.483689570474     0.881868073819     0.287340906824     1.007825032230
         H            2.837181570474     1.301512073819    -1.310777093176     1.007825032230
         H            3.170824570474     2.574126073819    -0.114921093176     1.007825032230
         H            1.529656570474    -2.469276926181    -0.654307093176     1.007825032230
         H            3.012635570474    -1.512242926181    -0.471971093176     1.007825032230
         H            2.625076570474    -2.778672926181     0.712024906824     1.007825032230
         H           -3.762544429526     0.578572073819     1.667722906824     1.007825032230
         H           -3.466893429526     0.938596073819    -0.045506093176     1.007825032230
         H           -3.449930429526    -0.741654926181     0.522427906824     1.007825032230

  Basis Set: AUG-CC-PVTZ
    Blend: AUG-CC-PVTZ
  Basis Set: (AUG-CC-PVTZ AUX)
    Blend: AUG-CC-PVTZ-JKFIT
	 Reference Energy          =    -837.7730477043917290 [Eh]
	 Singles Energy            =      -0.0000000000000000 [Eh]
	 Same-Spin Energy          =      -0.5166398081941082 [Eh]
	 Opposite-Spin Energy      =      -1.6696164705594922 [Eh]
	 Correlation Energy        =      -2.1862562787536004 [Eh]
	 Total Energy              =    -839.9593039831453325 [Eh]

	 ================> DF-SCS-MP2 Energies <==================
	-----------------------------------------------------------
	 SCS Same-Spin Scale       =       0.3333333333333333 [-]
	 SCS Opposite-Spin Scale   =       1.2000000000000000 [-]
	 SCS Same-Spin Energy      =      -0.1722132693980361 [Eh]
	 SCS Opposite-Spin Energy  =      -2.0035397646713906 [Eh]
	 SCS Correlation Energy    =      -2.1757530340694267 [Eh]
	 SCS Total Energy          =    -839.9488007384611592 [Eh]
	-----------------------------------------------------------

  Dipole Moment: [D]
     X:     1.5840      Y:     1.3867      Z:     4.1631     Total:     4.6651

*** Psi4 exiting successfully. Buy a developer a beer!
