                               Psi4 1.3.2 release

  ==> Input File <==

--------------------------------------------------------------------------
#psi4
#
memory 32 gb

molecule  {
0 1
  S       -0.7380000    -0.0680220    -0.3640970
  O       -1.0107130     0.9314480    -1.3993950
  O       -0.9666500    -1.4966470    -0.5970260
  N        0.8588360     0.0833010     0.0699440
  C        1.3901268     1.4343306     0.2800102
  C        1.4308045    -0.9847602     0.9103894
  C       -1.6975890     0.4015790     1.0774410
  C        2.8090910     1.5534440    -0.2422640
  C        2.2024570    -1.9997400     0.0750250
  C       -3.1888920     0.2878700     0.7901350
  H        0.7441850     2.1234290    -0.2885820
  H        1.3352270     1.7155400     1.3356310
  H        2.0636810    -0.5196560     1.6565250
  H        0.6239660    -1.5103280     1.4462590
  H       -1.3901500    -0.2576530     1.8936760
  H       -1.4092710     1.4273450     1.3241250
  H        3.4861350     0.8840910     0.2940530
  H        2.8396270     1.3037350    -1.3040650
  H        3.1732700     2.5763490    -0.1082090
  H        1.5321020    -2.4670540    -0.6475950
  H        3.0150810    -1.5100200    -0.4652590
  H        2.6275220    -2.7764500     0.7187370
  H       -3.7600990     0.5807950     1.6744350
  H       -3.4644480     0.9408190    -0.0387940
  H       -3.4474850    -0.7394320     0.5291400
units angstrom
no_reorient  #important for SAPT in psi4, default
symmetry c1  #important for SAPT in psi4, default
}

set PROPERTIES_ORIGIN ["COM"]
properties('MP2/aug-cc-pvtz', properties = ['dipole'])
--------------------------------------------------------------------------

    Molecular point group: c1
  Charge       = 0
  Multiplicity = 1
  Basis Set: AUG-CC-PVTZ
    Blend: AUG-CC-PVTZ
  Basis Set: (AUG-CC-PVTZ AUX)
    Blend: AUG-CC-PVTZ-JKFIT

    Orbital Energies [Eh]
    ---------------------

    Doubly Occupied:

       1A    -92.191167     2A    -20.539108     3A    -20.538895
       4A    -15.593337     5A    -11.276308     6A    -11.275561
       7A    -11.275481     8A    -11.236843     9A    -11.227830
      10A    -11.216319    11A     -9.156807    12A     -6.841912
      13A     -6.841151    14A     -6.841068    15A     -1.443999
      16A     -1.327182    17A     -1.249116    18A     -1.078349
      19A     -1.045900    20A     -1.010129    21A     -0.916199
      22A     -0.869204    23A     -0.858194    24A     -0.774458
      25A     -0.719600    26A     -0.671704    27A     -0.667619
      28A     -0.652301    29A     -0.641078    30A     -0.612281
      31A     -0.598864    32A     -0.577793    33A     -0.572402
      34A     -0.549932    35A     -0.543909    36A     -0.539986
      37A     -0.526892    38A     -0.521033    39A     -0.511383
      40A     -0.495530    41A     -0.489627    42A     -0.485997
      43A     -0.460395    44A     -0.446792    45A     -0.395822

  @DF-RHF Final Energy:  -837.77634886692067

   => Energetics <=

    Nuclear Repulsion Energy =            743.3999157898429075
    One-Electron Energy =               -2625.7416061527437705
    Two-Electron Energy =                1044.5653414959801921
    Total Energy =                       -837.7763488669206708
  Basis Set: (AUG-CC-PVTZ AUX)
    Blend: AUG-CC-PVTZ-RI
    Molecular point group: c1

    Geometry (in Angstrom), charge = 0, multiplicity = 1:

       Center              X                  Y                   Z               Mass
    ------------   -----------------  -----------------  -----------------  -----------------
         S           -0.739132078311    -0.068321299211    -0.365172741478    31.972071174400
         O           -1.011845078311     0.931148700789    -1.400470741478    15.994914619570
         O           -0.967782078311    -1.496946299211    -0.598101741478    15.994914619570
         N            0.857703921689     0.083001700789     0.068868258522    14.003074004430
         C            1.388994721689     1.434031300789     0.278934458522    12.000000000000
         C            1.429672421689    -0.985059499211     0.909313658522    12.000000000000
         C           -1.698721078311     0.401279700789     1.076365258522    12.000000000000
         C            2.807958921689     1.553144700789    -0.243339741478    12.000000000000
         C            2.201324921689    -2.000039299211     0.073949258522    12.000000000000
         C           -3.190024078311     0.287570700789     0.789059258522    12.000000000000
         H            0.743052921689     2.123129700789    -0.289657741478     1.007825032230
         H            1.334094921689     1.715240700789     1.334555258522     1.007825032230
         H            2.062548921689    -0.519955299211     1.655449258522     1.007825032230
         H            0.622833921689    -1.510627299211     1.445183258522     1.007825032230
         H           -1.391282078311    -0.257952299211     1.892600258522     1.007825032230
         H           -1.410403078311     1.427045700789     1.323049258522     1.007825032230
         H            3.485002921689     0.883791700789     0.292977258522     1.007825032230
         H            2.838494921689     1.303435700789    -1.305140741478     1.007825032230
         H            3.172137921689     2.576049700789    -0.109284741478     1.007825032230
         H            1.530969921689    -2.467353299211    -0.648670741478     1.007825032230
         H            3.013948921689    -1.510319299211    -0.466334741478     1.007825032230
         H            2.626389921689    -2.776749299211     0.717661258522     1.007825032230
         H           -3.761231078311     0.580495700789     1.673359258522     1.007825032230
         H           -3.465580078311     0.940519700789    -0.039869741478     1.007825032230
         H           -3.448617078311    -0.739731299211     0.528064258522     1.007825032230

  Basis Set: AUG-CC-PVTZ
    Blend: AUG-CC-PVTZ
  Basis Set: (AUG-CC-PVTZ AUX)
    Blend: AUG-CC-PVTZ-JKFIT
	 Reference Energy          =    -837.7763488669206708 [Eh]
	 Singles Energy            =      -0.0000000000000000 [Eh]
	 Same-Spin Energy          =      -0.5168048377502570 [Eh]
	 Opposite-Spin Energy      =      -1.6698105045577067 [Eh]
	 Correlation Energy        =      -2.1866153423079639 [Eh]
	 Total Energy              =    -839.9629642092286304 [Eh]

	 ================> DF-SCS-MP2 Energies <==================
	-----------------------------------------------------------
	 SCS Same-Spin Scale       =       0.3333333333333333 [-]
	 SCS Opposite-Spin Scale   =       1.2000000000000000 [-]
	 SCS Same-Spin Energy      =      -0.1722682792500856 [Eh]
	 SCS Opposite-Spin Energy  =      -2.0037726054692482 [Eh]
	 SCS Correlation Energy    =      -2.1760408847193338 [Eh]
	 SCS Total Energy          =    -839.9523897516399984 [Eh]
	-----------------------------------------------------------

  Dipole Moment: [D]
     X:     1.5883      Y:     1.4518      Z:     4.3220     Total:     4.8281

*** Psi4 exiting successfully. Buy a developer a beer!
