                               Psi4 1.3.2 release

  ==> Input File <==

--------------------------------------------------------------------------
#psi4
#
memory 32 gb

molecule  {
0 1
  S       -0.7914909    -0.0789070    -0.3947979
  O       -1.0107130     0.9314480    -1.3993950
  O       -0.9666500    -1.4966470    -0.5970260
  N        0.8588360     0.0833010     0.0699440
  C        1.3822580     1.4387740     0.2709440
  C        1.4230980    -0.9933220     0.9046550
  C       -1.6975890     0.4015790     1.0774410
  C        2.8090910     1.5534440    -0.2422640
  C        2.2024570    -1.9997400     0.0750250
  C       -3.1772168     0.2715785     0.7408990
  H        0.7441850     2.1234290    -0.2885820
  H        1.3352270     1.7155400     1.3356310
  H        2.0636810    -0.5196560     1.6565250
  H        0.6239660    -1.5103280     1.4462590
  H       -1.3901500    -0.2576530     1.8936760
  H       -1.4092710     1.4273450     1.3241250
  H        3.4861350     0.8840910     0.2940530
  H        2.8396270     1.3037350    -1.3040650
  H        3.1732700     2.5763490    -0.1082090
  H        1.5321020    -2.4670540    -0.6475950
  H        3.0150810    -1.5100200    -0.4652590
  H        2.6275220    -2.7764500     0.7187370
  H       -3.7600990     0.5807950     1.6744350
  H       -3.4644480     0.9408190    -0.0387940
  H       -3.4474850    -0.7394320     0.5291400
units angstrom
no_reorient  #important for SAPT in psi4, default
symmetry c1  #important for SAPT in psi4, default
}

set PROPERTIES_ORIGIN ["COM"]
properties('MP2/aug-cc-pvtz', properties = ['dipole'])
--------------------------------------------------------------------------

    Molecular point group: c1
  Charge       = 0
  Multiplicity = 1
  Basis Set: AUG-CC-PVTZ
    Blend: AUG-CC-PVTZ
  Basis Set: (AUG-CC-PVTZ AUX)
    Blend: AUG-CC-PVTZ-JKFIT

    Orbital Energies [Eh]
    ---------------------

    Doubly Occupied:

       1A    -92.191448     2A    -20.547146     3A    -20.546798
       4A    -15.581781     5A    -11.278125     6A    -11.269465
       7A    -11.269083     8A    -11.240123     9A    -11.223043
      10A    -11.212139    11A     -9.157471    12A     -6.842495
      13A     -6.841998    14A     -6.841637    15A     -1.459571
      16A     -1.347762    17A     -1.231280    18A     -1.082365
      19A     -1.039870    20A     -0.998691    21A     -0.914653
      22A     -0.863065    23A     -0.847894    24A     -0.775882
      25A     -0.717907    26A     -0.676682    27A     -0.671185
      28A     -0.649499    29A     -0.635474    30A     -0.621961
      31A     -0.597140    32A     -0.574572    33A     -0.563672
      34A     -0.551323    35A     -0.544110    36A     -0.539770
      37A     -0.534798    38A     -0.516485    39A     -0.509516
      40A     -0.499707    41A     -0.493454    42A     -0.487346
      43A     -0.472292    44A     -0.443673    45A     -0.382039

  @DF-RHF Final Energy:  -837.77037899232209

   => Energetics <=

    Nuclear Repulsion Energy =            743.0846090212828585
    One-Electron Energy =               -2625.1371881823670265
    Two-Electron Energy =                1044.2822001687620741
    Total Energy =                       -837.7703789923220938
  Basis Set: (AUG-CC-PVTZ AUX)
    Blend: AUG-CC-PVTZ-RI
    Molecular point group: c1

    Geometry (in Angstrom), charge = 0, multiplicity = 1:

       Center              X                  Y                   Z               Mass
    ------------   -----------------  -----------------  -----------------  -----------------
         S           -0.781979708070    -0.075614547608    -0.385272807646    31.972071174400
         O           -1.001201808070     0.934740452392    -1.389869907646    15.994914619570
         O           -0.957138808070    -1.493354547608    -0.587500907646    15.994914619570
         N            0.868347191930     0.086593452392     0.079469092354    14.003074004430
         C            1.391769191930     1.442066452392     0.280469092354    12.000000000000
         C            1.432609191930    -0.990029547608     0.914180092354    12.000000000000
         C           -1.688077808070     0.404871452392     1.086966092354    12.000000000000
         C            2.818602191930     1.556736452392    -0.232738907646    12.000000000000
         C            2.211968191930    -1.996447547608     0.084550092354    12.000000000000
         C           -3.167705608070     0.274870952392     0.750424092354    12.000000000000
         H            0.753696191930     2.126721452392    -0.279056907646     1.007825032230
         H            1.344738191930     1.718832452392     1.345156092354     1.007825032230
         H            2.073192191930    -0.516363547608     1.666050092354     1.007825032230
         H            0.633477191930    -1.507035547608     1.455784092354     1.007825032230
         H           -1.380638808070    -0.254360547608     1.903201092354     1.007825032230
         H           -1.399759808070     1.430637452392     1.333650092354     1.007825032230
         H            3.495646191930     0.887383452392     0.303578092354     1.007825032230
         H            2.849138191930     1.307027452392    -1.294539907646     1.007825032230
         H            3.182781191930     2.579641452392    -0.098683907646     1.007825032230
         H            1.541613191930    -2.463761547608    -0.638069907646     1.007825032230
         H            3.024592191930    -1.506727547608    -0.455733907646     1.007825032230
         H            2.637033191930    -2.773157547608     0.728262092354     1.007825032230
         H           -3.750587808070     0.584087452392     1.683960092354     1.007825032230
         H           -3.454936808070     0.944111452392    -0.029268907646     1.007825032230
         H           -3.437973808070    -0.736139547608     0.538665092354     1.007825032230

  Basis Set: AUG-CC-PVTZ
    Blend: AUG-CC-PVTZ
  Basis Set: (AUG-CC-PVTZ AUX)
    Blend: AUG-CC-PVTZ-JKFIT
	 Reference Energy          =    -837.7703789923220938 [Eh]
	 Singles Energy            =      -0.0000000000000000 [Eh]
	 Same-Spin Energy          =      -0.5166025053616798 [Eh]
	 Opposite-Spin Energy      =      -1.6697637297688410 [Eh]
	 Correlation Energy        =      -2.1863662351305209 [Eh]
	 Total Energy              =    -839.9567452274526431 [Eh]

	 ================> DF-SCS-MP2 Energies <==================
	-----------------------------------------------------------
	 SCS Same-Spin Scale       =       0.3333333333333333 [-]
	 SCS Opposite-Spin Scale   =       1.2000000000000000 [-]
	 SCS Same-Spin Energy      =      -0.1722008351205599 [Eh]
	 SCS Opposite-Spin Energy  =      -2.0037164757226091 [Eh]
	 SCS Correlation Energy    =      -2.1759173108431691 [Eh]
	 SCS Total Energy          =    -839.9462963031652407 [Eh]
	-----------------------------------------------------------

  Dipole Moment: [D]
     X:     0.9042      Y:     1.3581      Z:     4.0258     Total:     4.3439

*** Psi4 exiting successfully. Buy a developer a beer!
