                               Psi4 1.3.2 release

  ==> Input File <==

--------------------------------------------------------------------------
#psi4
#
memory 32 gb

molecule  {
0 1
  S       -0.7380000    -0.0680220    -0.3640970
  O       -1.0030623     0.9498230    -1.3833556
  O       -0.9585705    -1.5015849    -0.5732670
  N        0.8588360     0.0833010     0.0699440
  C        1.3822580     1.4387740     0.2709440
  C        1.4230980    -0.9933220     0.9046550
  C       -1.6975890     0.4015790     1.0774410
  C        2.8090910     1.5534440    -0.2422640
  C        2.2024570    -1.9997400     0.0750250
  C       -3.1888920     0.2878700     0.7901350
  H        0.7441850     2.1234290    -0.2885820
  H        1.3352270     1.7155400     1.3356310
  H        2.0636810    -0.5196560     1.6565250
  H        0.6239660    -1.5103280     1.4462590
  H       -1.3901500    -0.2576530     1.8936760
  H       -1.4092710     1.4273450     1.3241250
  H        3.4861350     0.8840910     0.2940530
  H        2.8396270     1.3037350    -1.3040650
  H        3.1732700     2.5763490    -0.1082090
  H        1.5321020    -2.4670540    -0.6475950
  H        3.0150810    -1.5100200    -0.4652590
  H        2.6275220    -2.7764500     0.7187370
  H       -3.7600990     0.5807950     1.6744350
  H       -3.4644480     0.9408190    -0.0387940
  H       -3.4474850    -0.7394320     0.5291400
units angstrom
no_reorient  #important for SAPT in psi4, default
symmetry c1  #important for SAPT in psi4, default
}

set PROPERTIES_ORIGIN ["COM"]
properties('MP2/aug-cc-pvtz', properties = ['dipole'])
--------------------------------------------------------------------------

    Molecular point group: c1
  Charge       = 0
  Multiplicity = 1
  Basis Set: AUG-CC-PVTZ
    Blend: AUG-CC-PVTZ
  Basis Set: (AUG-CC-PVTZ AUX)
    Blend: AUG-CC-PVTZ-JKFIT

    Orbital Energies [Eh]
    ---------------------

    Doubly Occupied:

       1A    -92.191397     2A    -20.540700     3A    -20.540478
       4A    -15.592680     5A    -11.275516     6A    -11.275266
       7A    -11.274266     8A    -11.236532     9A    -11.227399
      10A    -11.215884    11A     -9.157015    12A     -6.842130
      13A     -6.841339    14A     -6.841298    15A     -1.444848
      16A     -1.330126    17A     -1.247901    18A     -1.077374
      19A     -1.045775    20A     -1.009482    21A     -0.915369
      22A     -0.869367    23A     -0.857000    24A     -0.774076
      25A     -0.720687    26A     -0.671103    27A     -0.667520
      28A     -0.651373    29A     -0.640590    30A     -0.613234
      31A     -0.599437    32A     -0.576817    33A     -0.572161
      34A     -0.549508    35A     -0.543824    36A     -0.540211
      37A     -0.526680    38A     -0.519123    39A     -0.511381
      40A     -0.497452    41A     -0.490531    42A     -0.486772
      43A     -0.462390    44A     -0.445484    45A     -0.395084

  @DF-RHF Final Energy:  -837.77606185228785

   => Energetics <=

    Nuclear Repulsion Energy =            743.8261604412288079
    One-Electron Energy =               -2626.5952838166635956
    Two-Electron Energy =                1044.9930615231471620
    Total Energy =                       -837.7760618522877394
  Basis Set: (AUG-CC-PVTZ AUX)
    Blend: AUG-CC-PVTZ-RI
    Molecular point group: c1

    Geometry (in Angstrom), charge = 0, multiplicity = 1:

       Center              X                  Y                   Z               Mass
    ------------   -----------------  -----------------  -----------------  -----------------
         S           -0.739524001530    -0.069323856221    -0.367952958808    31.972071174400
         O           -1.004586301530     0.948521143779    -1.387211558808    15.994914619570
         O           -0.960094501530    -1.502886756221    -0.577122958808    15.994914619570
         N            0.857311998470     0.081999143779     0.066088041192    14.003074004430
         C            1.380733998470     1.437472143779     0.267088041192    12.000000000000
         C            1.421573998470    -0.994623856221     0.900799041192    12.000000000000
         C           -1.699113001530     0.400277143779     1.073585041192    12.000000000000
         C            2.807566998470     1.552142143779    -0.246119958808    12.000000000000
         C            2.200932998470    -2.001041856221     0.071169041192    12.000000000000
         C           -3.190416001530     0.286568143779     0.786279041192    12.000000000000
         H            0.742660998470     2.122127143779    -0.292437958808     1.007825032230
         H            1.333702998470     1.714238143779     1.331775041192     1.007825032230
         H            2.062156998470    -0.520957856221     1.652669041192     1.007825032230
         H            0.622441998470    -1.511629856221     1.442403041192     1.007825032230
         H           -1.391674001530    -0.258954856221     1.889820041192     1.007825032230
         H           -1.410795001530     1.426043143779     1.320269041192     1.007825032230
         H            3.484610998470     0.882789143779     0.290197041192     1.007825032230
         H            2.838102998470     1.302433143779    -1.307920958808     1.007825032230
         H            3.171745998470     2.575047143779    -0.112064958808     1.007825032230
         H            1.530577998470    -2.468355856221    -0.651450958808     1.007825032230
         H            3.013556998470    -1.511321856221    -0.469114958808     1.007825032230
         H            2.625997998470    -2.777751856221     0.714881041192     1.007825032230
         H           -3.761623001530     0.579493143779     1.670579041192     1.007825032230
         H           -3.465972001530     0.939517143779    -0.042649958808     1.007825032230
         H           -3.449009001530    -0.740733856221     0.525284041192     1.007825032230

  Basis Set: AUG-CC-PVTZ
    Blend: AUG-CC-PVTZ
  Basis Set: (AUG-CC-PVTZ AUX)
    Blend: AUG-CC-PVTZ-JKFIT
	 Reference Energy          =    -837.7760618522878531 [Eh]
	 Singles Energy            =      -0.0000000000000000 [Eh]
	 Same-Spin Energy          =      -0.5169649262473093 [Eh]
	 Opposite-Spin Energy      =      -1.6700853261329311 [Eh]
	 Correlation Energy        =      -2.1870502523802404 [Eh]
	 Total Energy              =    -839.9631121046680846 [Eh]

	 ================> DF-SCS-MP2 Energies <==================
	-----------------------------------------------------------
	 SCS Same-Spin Scale       =       0.3333333333333333 [-]
	 SCS Opposite-Spin Scale   =       1.2000000000000000 [-]
	 SCS Same-Spin Energy      =      -0.1723216420824364 [Eh]
	 SCS Opposite-Spin Energy  =      -2.0041023913595173 [Eh]
	 SCS Correlation Energy    =      -2.1764240334419536 [Eh]
	 SCS Total Energy          =    -839.9524858857298568 [Eh]
	-----------------------------------------------------------

  Dipole Moment: [D]
     X:     1.5479      Y:     1.4083      Z:     4.2129     Total:     4.7040

*** Psi4 exiting successfully. Buy a developer a beer!
