                               Psi4 1.3.2 release

  ==> Input File <==

--------------------------------------------------------------------------
#psi4
#
memory 32 gb

molecule  {
0 1
  S       -0.7238351    -0.0901882    -0.3471068
  O       -1.0107130     0.9314480    -1.3993950
  O       -0.9666500    -1.4966470    -0.5970260
  N        0.8588360     0.0833010     0.0699440
  C        1.3822580     1.4387740     0.2709440
  C        1.4230980    -0.9933220     0.9046550
  C       -1.6975890     0.4015790     1.0774410
  C        2.8090910     1.5534440    -0.2422640
  C        2.2024570    -1.9997400     0.0750250
  C       -3.1888920     0.2878700     0.7901350
  H        0.7441850     2.1234290    -0.2885820
  H        1.3352270     1.7155400     1.3356310
  H        2.0636810    -0.5196560     1.6565250
  H        0.6239660    -1.5103280     1.4462590
  H       -1.3778927    -0.2662809     1.8818679
  H       -1.4092710     1.4273450     1.3241250
  H        3.4861350     0.8840910     0.2940530
  H        2.8396270     1.3037350    -1.3040650
  H        3.1732700     2.5763490    -0.1082090
  H        1.5321020    -2.4670540    -0.6475950
  H        3.0150810    -1.5100200    -0.4652590
  H        2.6275220    -2.7764500     0.7187370
  H       -3.7600990     0.5807950     1.6744350
  H       -3.4644480     0.9408190    -0.0387940
  H       -3.4474850    -0.7394320     0.5291400
units angstrom
no_reorient  #important for SAPT in psi4, default
symmetry c1  #important for SAPT in psi4, default
}

set PROPERTIES_ORIGIN ["COM"]
properties('MP2/aug-cc-pvtz', properties = ['dipole'])
--------------------------------------------------------------------------

    Molecular point group: c1
  Charge       = 0
  Multiplicity = 1
  Basis Set: AUG-CC-PVTZ
    Blend: AUG-CC-PVTZ
  Basis Set: (AUG-CC-PVTZ AUX)
    Blend: AUG-CC-PVTZ-JKFIT

    Orbital Energies [Eh]
    ---------------------

    Doubly Occupied:

       1A    -92.189806     2A    -20.542240     3A    -20.530610
       4A    -15.596175     5A    -11.278298     6A    -11.277897
       7A    -11.275295     8A    -11.236431     9A    -11.228920
      10A    -11.218132    11A     -9.155693    12A     -6.840796
      13A     -6.840061    14A     -6.839838    15A     -1.442536
      16A     -1.319224    17A     -1.253299    18A     -1.077716
      19A     -1.048375    20A     -1.013116    21A     -0.916725
      22A     -0.871860    23A     -0.860142    24A     -0.774024
      25A     -0.721157    26A     -0.671255    27A     -0.666820
      28A     -0.652927    29A     -0.642049    30A     -0.609062
      31A     -0.601344    32A     -0.578262    33A     -0.572072
      34A     -0.550114    35A     -0.545738    36A     -0.541592
      37A     -0.527214    38A     -0.520699    39A     -0.513684
      40A     -0.498386    41A     -0.487785    42A     -0.483752
      43A     -0.455502    44A     -0.444104    45A     -0.398750

  @DF-RHF Final Energy:  -837.77490304608671

   => Energetics <=

    Nuclear Repulsion Energy =            743.8601214354287094
    One-Electron Energy =               -2626.6511005554561962
    Two-Electron Energy =                1045.0160760739408943
    Total Energy =                       -837.7749030460865924
  Basis Set: (AUG-CC-PVTZ AUX)
    Blend: AUG-CC-PVTZ-RI
    Molecular point group: c1

    Geometry (in Angstrom), charge = 0, multiplicity = 1:

       Center              X                  Y                   Z               Mass
    ------------   -----------------  -----------------  -----------------  -----------------
         S           -0.726653190201    -0.085842450614    -0.350325133858    31.972071174400
         O           -1.013531090201     0.935793749386    -1.402613333858    15.994914619570
         O           -0.969468090201    -1.492301250614    -0.600244333858    15.994914619570
         N            0.856017909799     0.087646749386     0.066725666142    14.003074004430
         C            1.379439909799     1.443119749386     0.267725666142    12.000000000000
         C            1.420279909799    -0.988976250614     0.901436666142    12.000000000000
         C           -1.700407090201     0.405924749386     1.074222666142    12.000000000000
         C            2.806272909799     1.557789749386    -0.245482333858    12.000000000000
         C            2.199638909799    -1.995394250614     0.071806666142    12.000000000000
         C           -3.191710090201     0.292215749386     0.786916666142    12.000000000000
         H            0.741366909799     2.127774749386    -0.291800333858     1.007825032230
         H            1.332408909799     1.719885749386     1.332412666142     1.007825032230
         H            2.060862909799    -0.515310250614     1.653306666142     1.007825032230
         H            0.621147909799    -1.505982250614     1.443040666142     1.007825032230
         H           -1.380710790201    -0.261935150614     1.878649566142     1.007825032230
         H           -1.412089090201     1.431690749386     1.320906666142     1.007825032230
         H            3.483316909799     0.888436749386     0.290834666142     1.007825032230
         H            2.836808909799     1.308080749386    -1.307283333858     1.007825032230
         H            3.170451909799     2.580694749386    -0.111427333858     1.007825032230
         H            1.529283909799    -2.462708250614    -0.650813333858     1.007825032230
         H            3.012262909799    -1.505674250614    -0.468477333858     1.007825032230
         H            2.624703909799    -2.772104250614     0.715518666142     1.007825032230
         H           -3.762917090201     0.585140749386     1.671216666142     1.007825032230
         H           -3.467266090201     0.945164749386    -0.042012333858     1.007825032230
         H           -3.450303090201    -0.735086250614     0.525921666142     1.007825032230

  Basis Set: AUG-CC-PVTZ
    Blend: AUG-CC-PVTZ
  Basis Set: (AUG-CC-PVTZ AUX)
    Blend: AUG-CC-PVTZ-JKFIT
	 Reference Energy          =    -837.7749030460867061 [Eh]
	 Singles Energy            =      -0.0000000000000000 [Eh]
	 Same-Spin Energy          =      -0.5169148999236854 [Eh]
	 Opposite-Spin Energy      =      -1.6698893337665228 [Eh]
	 Correlation Energy        =      -2.1868042336902080 [Eh]
	 Total Energy              =    -839.9617072797768742 [Eh]

	 ================> DF-SCS-MP2 Energies <==================
	-----------------------------------------------------------
	 SCS Same-Spin Scale       =       0.3333333333333333 [-]
	 SCS Opposite-Spin Scale   =       1.2000000000000000 [-]
	 SCS Same-Spin Energy      =      -0.1723049666412285 [Eh]
	 SCS Opposite-Spin Energy  =      -2.0038672005198275 [Eh]
	 SCS Correlation Energy    =      -2.1761721671610559 [Eh]
	 SCS Total Energy          =    -839.9510752132478046 [Eh]
	-----------------------------------------------------------

  Dipole Moment: [D]
     X:     1.7720      Y:     1.2520      Z:     4.4618     Total:     4.9613

*** Psi4 exiting successfully. Buy a developer a beer!
