                               Psi4 1.4a3.dev225

  ==> Input File <==

--------------------------------------------------------------------------
#psi4
#
memory 32 gb

molecule  {
0 1
  S        0.7616280     0.0424770    -0.4366460
  O        1.0024240    -1.0592090    -1.3727360
  O        0.9495440     1.4436620    -0.8249950
  N       -0.8548382    -0.0921492     0.1090901
  C       -1.3185710    -1.4233650     0.4283730
  C       -1.3686840     1.0652840     0.8208400
  C        1.8058710    -0.2545270     0.9952940
  C       -2.7505920    -1.6006810    -0.0558370
  C       -2.1814690     1.9714470    -0.0911900
  C        3.2787560    -0.1326200     0.6229570
  H       -0.6761480    -2.1530350    -0.0688350
  H       -1.2569730    -1.5943860     1.5141500
  H       -1.9866060     0.6632120     1.6319710
  H       -0.5646970     1.6429440     1.2905320
  H        1.5186250     0.4781900     1.7554980
  H        1.5601880    -1.2573080     1.3582850
  H       -3.4295210    -0.8918450     0.4253230
  H       -2.7963610    -1.4499180    -1.1363750
  H       -3.1014500    -2.6111540     0.1760480
  H       -1.5338360     2.3728670    -0.8718090
  H       -2.9953600     1.4152720    -0.5615490
  H       -2.6084920     2.8033720     0.4789350
  H        3.8991710    -0.3169240     1.5035790
  H        3.5375790    -0.8611900    -0.1476860
  H        3.4935140     0.8689240     0.2454810
units angstrom
no_reorient  #important for SAPT in psi4, default
symmetry c1  #important for SAPT in psi4, default
}

set PROPERTIES_ORIGIN ["COM"]
properties('MP2/aug-cc-pvtz', properties = ['dipole'])
--------------------------------------------------------------------------

    Molecular point group: c1
  Charge       = 0
  Multiplicity = 1
  Basis Set: AUG-CC-PVTZ
    Blend: AUG-CC-PVTZ
  Basis Set: (AUG-CC-PVTZ AUX)
    Blend: AUG-CC-PVTZ-JKFIT

    Orbital Energies [Eh]
    ---------------------

    Doubly Occupied:

       1A    -92.193250     2A    -20.542346     3A    -20.542067
       4A    -15.592447     5A    -11.278334     6A    -11.273334
       7A    -11.273266     8A    -11.238908     9A    -11.225375
      10A    -11.214355    11A     -9.158702    12A     -6.843618
      13A     -6.842976    14A     -6.842927    15A     -1.442964
      16A     -1.329246    17A     -1.249577    18A     -1.079152
      19A     -1.046924    20A     -1.002125    21A     -0.917587
      22A     -0.870768    23A     -0.851775    24A     -0.775675
      25A     -0.721330    26A     -0.670495    27A     -0.667197
      28A     -0.652664    29A     -0.639291    30A     -0.613334
      31A     -0.601599    32A     -0.577423    33A     -0.572167
      34A     -0.550182    35A     -0.543359    36A     -0.539979
      37A     -0.527614    38A     -0.519217    39A     -0.511786
      40A     -0.499271    41A     -0.490444    42A     -0.485108
      43A     -0.462733    44A     -0.443222    45A     -0.389037

  @DF-RHF Final Energy:  -837.77224633424714

   => Energetics <=

    Nuclear Repulsion Energy =            741.9900282945422987
    One-Electron Energy =               -2622.9142514039858725
    Two-Electron Energy =                1043.1519767751965446
    Total Energy =                       -837.7722463342470292
  Basis Set: (AUG-CC-PVTZ AUX)
    Blend: AUG-CC-PVTZ-RI
    Molecular point group: c1

    Geometry (in Angstrom), charge = 0, multiplicity = 1:

       Center              X                  Y                   Z               Mass
    ------------   -----------------  -----------------  -----------------  -----------------
         S            0.724125020691     0.037476443783    -0.392503254305    31.972071174400
         O            0.964921020691    -1.064209556217    -1.328593254305    15.994914619570
         O            0.912041020691     1.438661443783    -0.780852254305    15.994914619570
         N           -0.892341179309    -0.097149756217     0.153232845695    14.003074004430
         C           -1.356073979309    -1.428365556217     0.472515745695    12.000000000000
         C           -1.406186979309     1.060283443783     0.864982745695    12.000000000000
         C            1.768368020691    -0.259527556217     1.039436745695    12.000000000000
         C           -2.788094979309    -1.605681556217    -0.011694254305    12.000000000000
         C           -2.218971979309     1.966446443783    -0.047047254305    12.000000000000
         C            3.241253020691    -0.137620556217     0.667099745695    12.000000000000
         H           -0.713650979309    -2.158035556217    -0.024692254305     1.007825032230
         H           -1.294475979309    -1.599386556217     1.558292745695     1.007825032230
         H           -2.024108979309     0.658211443783     1.676113745695     1.007825032230
         H           -0.602199979309     1.637943443783     1.334674745695     1.007825032230
         H            1.481122020691     0.473189443783     1.799640745695     1.007825032230
         H            1.522685020691    -1.262308556217     1.402427745695     1.007825032230
         H           -3.467023979309    -0.896845556217     0.469465745695     1.007825032230
         H           -2.833863979309    -1.454918556217    -1.092232254305     1.007825032230
         H           -3.138952979309    -2.616154556217     0.220190745695     1.007825032230
         H           -1.571338979309     2.367866443783    -0.827666254305     1.007825032230
         H           -3.032862979309     1.410271443783    -0.517406254305     1.007825032230
         H           -2.645994979309     2.798371443783     0.523077745695     1.007825032230
         H            3.861668020691    -0.321924556217     1.547721745695     1.007825032230
         H            3.500076020691    -0.866190556217    -0.103543254305     1.007825032230
         H            3.456011020691     0.863923443783     0.289623745695     1.007825032230

  Basis Set: AUG-CC-PVTZ
    Blend: AUG-CC-PVTZ
  Basis Set: (AUG-CC-PVTZ AUX)
    Blend: AUG-CC-PVTZ-JKFIT
	 Reference Energy          =    -837.7722463342471428 [Eh]
	 Singles Energy            =      -0.0000000000000000 [Eh]
	 Same-Spin Energy          =      -0.5173221203226100 [Eh]
	 Opposite-Spin Energy      =      -1.6709257981008641 [Eh]
	 Correlation Energy        =      -2.1882479184234742 [Eh]
	 Total Energy              =    -839.9604942526706282 [Eh]

	 ================> DF-SCS-MP2 Energies <==================
	-----------------------------------------------------------
	 SCS Same-Spin Scale       =       0.3333333333333333 [-]
	 SCS Opposite-Spin Scale   =       1.2000000000000000 [-]
	 SCS Same-Spin Energy      =      -0.1724407067742033 [Eh]
	 SCS Opposite-Spin Energy  =      -2.0051109577210369 [Eh]
	 SCS Correlation Energy    =      -2.1775516644952404 [Eh]
	 SCS Total Energy          =    -839.9497979987423832 [Eh]
	-----------------------------------------------------------

  Dipole Moment: [D]
     X:    -1.0633      Y:    -0.9785      Z:     4.3781     Total:     4.6104

*** Psi4 exiting successfully. Buy a developer a beer!
