                               Psi4 1.3.2 release

  ==> Input File <==

--------------------------------------------------------------------------
#psi4
#
memory 32 gb

molecule  {
0 1
  S       -0.7380000    -0.0680220    -0.3640970
  O       -1.0107130     0.9314480    -1.3993950
  O       -0.9666500    -1.4966470    -0.5970260
  N        0.8588360     0.0833010     0.0699440
  C        1.4536243     1.6235868     0.2983495
  C        1.4230980    -0.9933220     0.9046550
  C       -1.6975890     0.4015790     1.0774410
  C        2.8090910     1.5534440    -0.2422640
  C        2.2024570    -1.9997400     0.0750250
  C       -3.1888920     0.2878700     0.7901350
  H        0.7441850     2.1234290    -0.2885820
  H        1.3352270     1.7155400     1.3356310
  H        2.0636810    -0.5196560     1.6565250
  H        0.6239660    -1.5103280     1.4462590
  H       -1.3901500    -0.2576530     1.8936760
  H       -1.4092710     1.4273450     1.3241250
  H        3.4861350     0.8840910     0.2940530
  H        2.8396270     1.3037350    -1.3040650
  H        3.1732700     2.5763490    -0.1082090
  H        1.5321020    -2.4670540    -0.6475950
  H        3.0150810    -1.5100200    -0.4652590
  H        2.6275220    -2.7764500     0.7187370
  H       -3.7600990     0.5807950     1.6744350
  H       -3.4644480     0.9408190    -0.0387940
  H       -3.4474850    -0.7394320     0.5291400
units angstrom
no_reorient  #important for SAPT in psi4, default
symmetry c1  #important for SAPT in psi4, default
}

set PROPERTIES_ORIGIN ["COM"]
properties('MP2/aug-cc-pvtz', properties = ['dipole'])
--------------------------------------------------------------------------

    Molecular point group: c1
  Charge       = 0
  Multiplicity = 1
  Basis Set: AUG-CC-PVTZ
    Blend: AUG-CC-PVTZ
  Basis Set: (AUG-CC-PVTZ AUX)
    Blend: AUG-CC-PVTZ-JKFIT

    Orbital Energies [Eh]
    ---------------------

    Doubly Occupied:

       1A    -92.183004     2A    -20.533847     3A    -20.531716
       4A    -15.581082     5A    -11.288749     6A    -11.271128
       7A    -11.269875     8A    -11.234631     9A    -11.233384
      10A    -11.212093    11A     -9.148557    12A     -6.833549
      13A     -6.832985    14A     -6.832894    15A     -1.436260
      16A     -1.321182    17A     -1.214614    18A     -1.074548
      19A     -1.060908    20A     -1.007857    21A     -0.908690
      22A     -0.870990    23A     -0.852765    24A     -0.769521
      25A     -0.705759    26A     -0.669307    27A     -0.664015
      28A     -0.657706    29A     -0.638231    30A     -0.608566
      31A     -0.590673    32A     -0.581049    33A     -0.571446
      34A     -0.568353    35A     -0.544522    36A     -0.534141
      37A     -0.528829    38A     -0.520991    39A     -0.510043
      40A     -0.497584    41A     -0.483529    42A     -0.468365
      43A     -0.455264    44A     -0.434236    45A     -0.390946

  @DF-RHF Final Energy:  -837.74937427336897

   => Energetics <=

    Nuclear Repulsion Energy =            739.5370713440861437
    One-Electron Energy =               -2618.3161235209727238
    Two-Electron Energy =                1041.0296779035177224
    Total Energy =                       -837.7493742733688578
  Basis Set: (AUG-CC-PVTZ AUX)
    Blend: AUG-CC-PVTZ-RI
    Molecular point group: c1

    Geometry (in Angstrom), charge = 0, multiplicity = 1:

       Center              X                  Y                   Z               Mass
    ------------   -----------------  -----------------  -----------------  -----------------
         S           -0.743187581522    -0.081456154641    -0.366089004180    31.972071174400
         O           -1.015900581522     0.918013845359    -1.401387004180    15.994914619570
         O           -0.971837581522    -1.510081154641    -0.599018004180    15.994914619570
         N            0.853648418478     0.069866845359     0.067951995820    14.003074004430
         C            1.448436718478     1.610152645359     0.296357495820    12.000000000000
         C            1.417910418478    -1.006756154641     0.902662995820    12.000000000000
         C           -1.702776581522     0.388144845359     1.075448995820    12.000000000000
         C            2.803903418478     1.540009845359    -0.244256004180    12.000000000000
         C            2.197269418478    -2.013174154641     0.073032995820    12.000000000000
         C           -3.194079581522     0.274435845359     0.788142995820    12.000000000000
         H            0.738997418478     2.109994845359    -0.290574004180     1.007825032230
         H            1.330039418478     1.702105845359     1.333638995820     1.007825032230
         H            2.058493418478    -0.533090154641     1.654532995820     1.007825032230
         H            0.618778418478    -1.523762154641     1.444266995820     1.007825032230
         H           -1.395337581522    -0.271087154641     1.891683995820     1.007825032230
         H           -1.414458581522     1.413910845359     1.322132995820     1.007825032230
         H            3.480947418478     0.870656845359     0.292060995820     1.007825032230
         H            2.834439418478     1.290300845359    -1.306057004180     1.007825032230
         H            3.168082418478     2.562914845359    -0.110201004180     1.007825032230
         H            1.526914418478    -2.480488154641    -0.649587004180     1.007825032230
         H            3.009893418478    -1.523454154641    -0.467251004180     1.007825032230
         H            2.622334418478    -2.789884154641     0.716744995820     1.007825032230
         H           -3.765286581522     0.567360845359     1.672442995820     1.007825032230
         H           -3.469635581522     0.927384845359    -0.040786004180     1.007825032230
         H           -3.452672581522    -0.752866154641     0.527147995820     1.007825032230

  Basis Set: AUG-CC-PVTZ
    Blend: AUG-CC-PVTZ
  Basis Set: (AUG-CC-PVTZ AUX)
    Blend: AUG-CC-PVTZ-JKFIT
	 Reference Energy          =    -837.7493742733689714 [Eh]
	 Singles Energy            =      -0.0000000000000000 [Eh]
	 Same-Spin Energy          =      -0.5173214867752458 [Eh]
	 Opposite-Spin Energy      =      -1.6717502751930895 [Eh]
	 Correlation Energy        =      -2.1890717619683353 [Eh]
	 Total Energy              =    -839.9384460353372788 [Eh]

	 ================> DF-SCS-MP2 Energies <==================
	-----------------------------------------------------------
	 SCS Same-Spin Scale       =       0.3333333333333333 [-]
	 SCS Opposite-Spin Scale   =       1.2000000000000000 [-]
	 SCS Same-Spin Energy      =      -0.1724404955917486 [Eh]
	 SCS Opposite-Spin Energy  =      -2.0061003302317073 [Eh]
	 SCS Correlation Energy    =      -2.1785408258234558 [Eh]
	 SCS Total Energy          =    -839.9279150991924325 [Eh]
	-----------------------------------------------------------

  Dipole Moment: [D]
     X:     2.0437      Y:     1.9277      Z:     4.3892     Total:     5.2113

*** Psi4 exiting successfully. Buy a developer a beer!
