                               Psi4 1.3.2 release

  ==> Input File <==

--------------------------------------------------------------------------
#psi4
#
memory 32 gb

molecule  {
0 1
  S       -0.7380000    -0.0680220    -0.3640970
  O       -1.0068979     0.9406739    -1.3914144
  O       -0.9626188    -1.4991705    -0.5851549
  N        0.8588360     0.0833010     0.0699440
  C        1.3822580     1.4387740     0.2709440
  C        1.4230980    -0.9933220     0.9046550
  C       -1.6975890     0.4015790     1.0774410
  C        2.8090910     1.5534440    -0.2422640
  C        2.2024570    -1.9997400     0.0750250
  C       -3.1888920     0.2878700     0.7901350
  H        0.7441850     2.1234290    -0.2885820
  H        1.3352270     1.7155400     1.3356310
  H        2.0636810    -0.5196560     1.6565250
  H        0.6239660    -1.5103280     1.4462590
  H       -1.3901500    -0.2576530     1.8936760
  H       -1.4092710     1.4273450     1.3241250
  H        3.4861350     0.8840910     0.2940530
  H        2.8396270     1.3037350    -1.3040650
  H        3.1732700     2.5763490    -0.1082090
  H        1.5321020    -2.4670540    -0.6475950
  H        3.0150810    -1.5100200    -0.4652590
  H        2.6275220    -2.7764500     0.7187370
  H       -3.7600990     0.5807950     1.6744350
  H       -3.4644480     0.9408190    -0.0387940
  H       -3.4474850    -0.7394320     0.5291400
units angstrom
no_reorient  #important for SAPT in psi4, default
symmetry c1  #important for SAPT in psi4, default
}

set PROPERTIES_ORIGIN ["COM"]
properties('MP2/aug-cc-pvtz', properties = ['dipole'])
--------------------------------------------------------------------------

    Molecular point group: c1
  Charge       = 0
  Multiplicity = 1
  Basis Set: AUG-CC-PVTZ
    Blend: AUG-CC-PVTZ
  Basis Set: (AUG-CC-PVTZ AUX)
    Blend: AUG-CC-PVTZ-JKFIT

    Orbital Energies [Eh]
    ---------------------

    Doubly Occupied:

       1A    -92.191107     2A    -20.539820     3A    -20.539606
       4A    -15.593092     5A    -11.275982     6A    -11.275684
       7A    -11.274869     8A    -11.236683     9A    -11.227660
      10A    -11.216073    11A     -9.156762    12A     -6.841865
      13A     -6.841096    14A     -6.841034    15A     -1.444400
      16A     -1.328633    17A     -1.248468    18A     -1.077838
      19A     -1.046107    20A     -1.009789    21A     -0.915698
      22A     -0.869672    23A     -0.857181    24A     -0.774192
      25A     -0.720573    26A     -0.671072    27A     -0.667469
      28A     -0.651574    29A     -0.640894    30A     -0.612598
      31A     -0.599707    32A     -0.577125    33A     -0.572215
      34A     -0.549702    35A     -0.544026    36A     -0.540441
      37A     -0.526797    38A     -0.519334    39A     -0.511723
      40A     -0.497635    41A     -0.489808    42A     -0.486419
      43A     -0.461433    44A     -0.445782    45A     -0.395421

  @DF-RHF Final Energy:  -837.77651732153981

   => Energetics <=

    Nuclear Repulsion Energy =            743.6658467147306055
    One-Electron Energy =               -2626.2746123451702260
    Two-Electron Energy =                1044.8322483088998069
    Total Energy =                       -837.7765173215398136
  Basis Set: (AUG-CC-PVTZ AUX)
    Blend: AUG-CC-PVTZ-RI
    Molecular point group: c1

    Geometry (in Angstrom), charge = 0, multiplicity = 1:

       Center              X                  Y                   Z               Mass
    ------------   -----------------  -----------------  -----------------  -----------------
         S           -0.738760126364    -0.068671327640    -0.366020312685    31.972071174400
         O           -1.007658026364     0.940024572360    -1.393337712685    15.994914619570
         O           -0.963378926364    -1.499819827640    -0.587078212685    15.994914619570
         N            0.858075873636     0.082651672360     0.068020687315    14.003074004430
         C            1.381497873636     1.438124672360     0.269020687315    12.000000000000
         C            1.422337873636    -0.993971327640     0.902731687315    12.000000000000
         C           -1.698349126364     0.400929672360     1.075517687315    12.000000000000
         C            2.808330873636     1.552794672360    -0.244187312685    12.000000000000
         C            2.201696873636    -2.000389327640     0.073101687315    12.000000000000
         C           -3.189652126364     0.287220672360     0.788211687315    12.000000000000
         H            0.743424873636     2.122779672360    -0.290505312685     1.007825032230
         H            1.334466873636     1.714890672360     1.333707687315     1.007825032230
         H            2.062920873636    -0.520305327640     1.654601687315     1.007825032230
         H            0.623205873636    -1.510977327640     1.444335687315     1.007825032230
         H           -1.390910126364    -0.258302327640     1.891752687315     1.007825032230
         H           -1.410031126364     1.426695672360     1.322201687315     1.007825032230
         H            3.485374873636     0.883441672360     0.292129687315     1.007825032230
         H            2.838866873636     1.303085672360    -1.305988312685     1.007825032230
         H            3.172509873636     2.575699672360    -0.110132312685     1.007825032230
         H            1.531341873636    -2.467703327640    -0.649518312685     1.007825032230
         H            3.014320873636    -1.510669327640    -0.467182312685     1.007825032230
         H            2.626761873636    -2.777099327640     0.716813687315     1.007825032230
         H           -3.760859126364     0.580145672360     1.672511687315     1.007825032230
         H           -3.465208126364     0.940169672360    -0.040717312685     1.007825032230
         H           -3.448245126364    -0.740081327640     0.527216687315     1.007825032230

  Basis Set: AUG-CC-PVTZ
    Blend: AUG-CC-PVTZ
  Basis Set: (AUG-CC-PVTZ AUX)
    Blend: AUG-CC-PVTZ-JKFIT
	 Reference Energy          =    -837.7765173215398136 [Eh]
	 Singles Energy            =      -0.0000000000000000 [Eh]
	 Same-Spin Energy          =      -0.5168655962040093 [Eh]
	 Opposite-Spin Energy      =      -1.6698990050250044 [Eh]
	 Correlation Energy        =      -2.1867646012290138 [Eh]
	 Total Energy              =    -839.9632819227688287 [Eh]

	 ================> DF-SCS-MP2 Energies <==================
	-----------------------------------------------------------
	 SCS Same-Spin Scale       =       0.3333333333333333 [-]
	 SCS Opposite-Spin Scale   =       1.2000000000000000 [-]
	 SCS Same-Spin Energy      =      -0.1722885320680031 [Eh]
	 SCS Opposite-Spin Energy  =      -2.0038788060300052 [Eh]
	 SCS Correlation Energy    =      -2.1761673380980082 [Eh]
	 SCS Total Energy          =    -839.9526846596378391 [Eh]
	-----------------------------------------------------------

  Dipole Moment: [D]
     X:     1.5694      Y:     1.4249      Z:     4.2630     Total:     4.7609

*** Psi4 exiting successfully. Buy a developer a beer!
