                               Psi4 1.3.2 release

  ==> Input File <==

--------------------------------------------------------------------------
#psi4
#
memory 32 gb

molecule  {
0 1
  S       -0.7380000    -0.0680220    -0.3640970
  O       -1.0107130     0.9314480    -1.3993950
  O       -0.9666500    -1.4966470    -0.5970260
  N        0.7929107     0.1061793     0.1020071
  C        1.3822580     1.4387740     0.2709440
  C        1.4230980    -0.9933220     0.9046550
  C       -1.6975890     0.4015790     1.0774410
  C        2.8088986     1.6297538    -0.2195736
  C        2.2024570    -1.9997400     0.0750250
  C       -3.1888920     0.2878700     0.7901350
  H        0.7441850     2.1234290    -0.2885820
  H        1.3352270     1.7155400     1.3356310
  H        2.0636810    -0.5196560     1.6565250
  H        0.6239660    -1.5103280     1.4462590
  H       -1.3901500    -0.2576530     1.8936760
  H       -1.4092710     1.4273450     1.3241250
  H        3.4861350     0.8840910     0.2940530
  H        2.8396270     1.3037350    -1.3040650
  H        3.1732700     2.5763490    -0.1082090
  H        1.5321020    -2.4670540    -0.6475950
  H        3.0150810    -1.5100200    -0.4652590
  H        2.6275220    -2.7764500     0.7187370
  H       -3.7600990     0.5807950     1.6744350
  H       -3.4644480     0.9408190    -0.0387940
  H       -3.4474850    -0.7394320     0.5291400
units angstrom
no_reorient  #important for SAPT in psi4, default
symmetry c1  #important for SAPT in psi4, default
}

set PROPERTIES_ORIGIN ["COM"]
properties('MP2/aug-cc-pvtz', properties = ['dipole'])
--------------------------------------------------------------------------

    Molecular point group: c1
  Charge       = 0
  Multiplicity = 1
  Basis Set: AUG-CC-PVTZ
    Blend: AUG-CC-PVTZ
  Basis Set: (AUG-CC-PVTZ AUX)
    Blend: AUG-CC-PVTZ-JKFIT

    Orbital Energies [Eh]
    ---------------------

    Doubly Occupied:

       1A    -92.189574     2A    -20.537932     3A    -20.536050
       4A    -15.593670     5A    -11.280975     6A    -11.278707
       7A    -11.270680     8A    -11.233392     9A    -11.231787
      10A    -11.219844    11A     -9.155285    12A     -6.840655
      13A     -6.839733    14A     -6.839521    15A     -1.445822
      16A     -1.325874    17A     -1.252180    18A     -1.075427
      19A     -1.047097    20A     -1.018779    21A     -0.915834
      22A     -0.872685    23A     -0.863185    24A     -0.770002
      25A     -0.719249    26A     -0.672933    27A     -0.668040
      28A     -0.648625    29A     -0.639308    30A     -0.611785
      31A     -0.601035    32A     -0.593906    33A     -0.571327
      34A     -0.550024    35A     -0.546652    36A     -0.538840
      37A     -0.524798    38A     -0.518743    39A     -0.505628
      40A     -0.494595    41A     -0.490546    42A     -0.485602
      43A     -0.458818    44A     -0.446232    45A     -0.397610

  @DF-RHF Final Energy:  -837.76822490744871

   => Energetics <=

    Nuclear Repulsion Energy =            744.0425882883924942
    One-Electron Energy =               -2626.9836495612867111
    Two-Electron Energy =                1045.1728363654456189
    Total Energy =                       -837.7682249074487117
  Basis Set: (AUG-CC-PVTZ AUX)
    Blend: AUG-CC-PVTZ-RI
    Molecular point group: c1

    Geometry (in Angstrom), charge = 0, multiplicity = 1:

       Center              X                  Y                   Z               Mass
    ------------   -----------------  -----------------  -----------------  -----------------
         S           -0.732393809469    -0.075509610552    -0.368466004279    31.972071174400
         O           -1.005106809469     0.923960389448    -1.403764004279    15.994914619570
         O           -0.961043809469    -1.504134610552    -0.601395004279    15.994914619570
         N            0.798516890531     0.098691689448     0.097638095721    14.003074004430
         C            1.387864190531     1.431286389448     0.266574995721    12.000000000000
         C            1.428704190531    -1.000809610552     0.900285995721    12.000000000000
         C           -1.691982809469     0.394091389448     1.073071995721    12.000000000000
         C            2.814504790531     1.622266189448    -0.223942604279    12.000000000000
         C            2.208063190531    -2.007227610552     0.070655995721    12.000000000000
         C           -3.183285809469     0.280382389448     0.785765995721    12.000000000000
         H            0.749791190531     2.115941389448    -0.292951004279     1.007825032230
         H            1.340833190531     1.708052389448     1.331261995721     1.007825032230
         H            2.069287190531    -0.527143610552     1.652155995721     1.007825032230
         H            0.629572190531    -1.517815610552     1.441889995721     1.007825032230
         H           -1.384543809469    -0.265140610552     1.889306995721     1.007825032230
         H           -1.403664809469     1.419857389448     1.319755995721     1.007825032230
         H            3.491741190531     0.876603389448     0.289683995721     1.007825032230
         H            2.845233190531     1.296247389448    -1.308434004279     1.007825032230
         H            3.178876190531     2.568861389448    -0.112578004279     1.007825032230
         H            1.537708190531    -2.474541610552    -0.651964004279     1.007825032230
         H            3.020687190531    -1.517507610552    -0.469628004279     1.007825032230
         H            2.633128190531    -2.783937610552     0.714367995721     1.007825032230
         H           -3.754492809469     0.573307389448     1.670065995721     1.007825032230
         H           -3.458841809469     0.933331389448    -0.043163004279     1.007825032230
         H           -3.441878809469    -0.746919610552     0.524770995721     1.007825032230

  Basis Set: AUG-CC-PVTZ
    Blend: AUG-CC-PVTZ
  Basis Set: (AUG-CC-PVTZ AUX)
    Blend: AUG-CC-PVTZ-JKFIT
	 Reference Energy          =    -837.7682249074487117 [Eh]
	 Singles Energy            =      -0.0000000000000000 [Eh]
	 Same-Spin Energy          =      -0.5163621980322287 [Eh]
	 Opposite-Spin Energy      =      -1.6688740843681940 [Eh]
	 Correlation Energy        =      -2.1852362824004228 [Eh]
	 Total Energy              =    -839.9534611898491221 [Eh]

	 ================> DF-SCS-MP2 Energies <==================
	-----------------------------------------------------------
	 SCS Same-Spin Scale       =       0.3333333333333333 [-]
	 SCS Opposite-Spin Scale   =       1.2000000000000000 [-]
	 SCS Same-Spin Energy      =      -0.1721207326774096 [Eh]
	 SCS Opposite-Spin Energy  =      -2.0026489012418325 [Eh]
	 SCS Correlation Energy    =      -2.1747696339192419 [Eh]
	 SCS Total Energy          =    -839.9429945413679661 [Eh]
	-----------------------------------------------------------

  Dipole Moment: [D]
     X:     1.9578      Y:     1.3684      Z:     4.2755     Total:     4.8975

*** Psi4 exiting successfully. Buy a developer a beer!
