                               Psi4 1.3.2 release

  ==> Input File <==

--------------------------------------------------------------------------
#psi4
#
memory 32 gb

molecule  {
0 1
  S       -0.7271823    -0.1543365    -0.3650844
  O       -1.0107130     0.9314480    -1.3993950
  O       -0.9666500    -1.4966470    -0.5970260
  N        0.8588360     0.0833010     0.0699440
  C        1.4504622     1.4077620     0.2877975
  C        1.4230980    -0.9933220     0.9046550
  C       -1.6975890     0.4015790     1.0774410
  C        2.8090910     1.5534440    -0.2422640
  C        2.2024570    -1.9997400     0.0750250
  C       -3.1888920     0.2878700     0.7901350
  H        0.7441850     2.1234290    -0.2885820
  H        1.3352270     1.7155400     1.3356310
  H        2.0636810    -0.5196560     1.6565250
  H        0.6239660    -1.5103280     1.4462590
  H       -1.3901500    -0.2576530     1.8936760
  H       -1.4092710     1.4273450     1.3241250
  H        3.4861350     0.8840910     0.2940530
  H        2.8396270     1.3037350    -1.3040650
  H        3.1732700     2.5763490    -0.1082090
  H        1.5321020    -2.4670540    -0.6475950
  H        3.0150810    -1.5100200    -0.4652590
  H        2.6275220    -2.7764500     0.7187370
  H       -3.7600990     0.5807950     1.6744350
  H       -3.4644480     0.9408190    -0.0387940
  H       -3.4474850    -0.7394320     0.5291400
units angstrom
no_reorient  #important for SAPT in psi4, default
symmetry c1  #important for SAPT in psi4, default
}

set PROPERTIES_ORIGIN ["COM"]
properties('MP2/aug-cc-pvtz', properties = ['dipole'])
--------------------------------------------------------------------------

    Molecular point group: c1
  Charge       = 0
  Multiplicity = 1
  Basis Set: AUG-CC-PVTZ
    Blend: AUG-CC-PVTZ
  Basis Set: (AUG-CC-PVTZ AUX)
    Blend: AUG-CC-PVTZ-JKFIT

    Orbital Energies [Eh]
    ---------------------

    Doubly Occupied:

       1A    -92.189870     2A    -20.559635     3A    -20.523704
       4A    -15.591770     5A    -11.277879     6A    -11.275483
       7A    -11.272537     8A    -11.234083     9A    -11.225636
      10A    -11.218626    11A     -9.156423    12A     -6.841659
      13A     -6.841018    14A     -6.840274    15A     -1.475953
      16A     -1.317954    17A     -1.247031    18A     -1.071157
      19A     -1.052424    20A     -1.013741    21A     -0.912079
      22A     -0.866022    23A     -0.857675    24A     -0.773442
      25A     -0.722058    26A     -0.679557    27A     -0.669100
      28A     -0.650376    29A     -0.637067    30A     -0.617638
      31A     -0.600497    32A     -0.589171    33A     -0.570404
      34A     -0.553190    35A     -0.551171    36A     -0.540405
      37A     -0.524523    38A     -0.523489    39A     -0.516816
      40A     -0.495225    41A     -0.489770    42A     -0.477885
      43A     -0.451999    44A     -0.436207    45A     -0.394875

  @DF-RHF Final Energy:  -837.75639532278956

   => Energetics <=

    Nuclear Repulsion Energy =            743.7658461601233739
    One-Electron Energy =               -2626.3894938317989727
    Two-Electron Energy =                1044.8672523488860406
    Total Energy =                       -837.7563953227895581
  Basis Set: (AUG-CC-PVTZ AUX)
    Blend: AUG-CC-PVTZ-RI
    Molecular point group: c1

    Geometry (in Angstrom), charge = 0, multiplicity = 1:

       Center              X                  Y                   Z               Mass
    ------------   -----------------  -----------------  -----------------  -----------------
         S           -0.734235126804    -0.135365307003    -0.366118135636    31.972071174400
         O           -1.017765826804     0.950419192997    -1.400428735636    15.994914619570
         O           -0.973702826804    -1.477675807003    -0.598059735636    15.994914619570
         N            0.851783173196     0.102272192997     0.068910264364    14.003074004430
         C            1.443409373196     1.426733192997     0.286763764364    12.000000000000
         C            1.416045173196    -0.974350807003     0.903621264364    12.000000000000
         C           -1.704641826804     0.420550192997     1.076407264364    12.000000000000
         C            2.802038173196     1.572415192997    -0.243297735636    12.000000000000
         C            2.195404173196    -1.980768807003     0.073991264364    12.000000000000
         C           -3.195944826804     0.306841192997     0.789101264364    12.000000000000
         H            0.737132173196     2.142400192997    -0.289615735636     1.007825032230
         H            1.328174173196     1.734511192997     1.334597264364     1.007825032230
         H            2.056628173196    -0.500684807003     1.655491264364     1.007825032230
         H            0.616913173196    -1.491356807003     1.445225264364     1.007825032230
         H           -1.397202826804    -0.238681807003     1.892642264364     1.007825032230
         H           -1.416323826804     1.446316192997     1.323091264364     1.007825032230
         H            3.479082173196     0.903062192997     0.293019264364     1.007825032230
         H            2.832574173196     1.322706192997    -1.305098735636     1.007825032230
         H            3.166217173196     2.595320192997    -0.109242735636     1.007825032230
         H            1.525049173196    -2.448082807003    -0.648628735636     1.007825032230
         H            3.008028173196    -1.491048807003    -0.466292735636     1.007825032230
         H            2.620469173196    -2.757478807003     0.717703264364     1.007825032230
         H           -3.767151826804     0.599766192997     1.673401264364     1.007825032230
         H           -3.471500826804     0.959790192997    -0.039827735636     1.007825032230
         H           -3.454537826804    -0.720460807003     0.528106264364     1.007825032230

  Basis Set: AUG-CC-PVTZ
    Blend: AUG-CC-PVTZ
  Basis Set: (AUG-CC-PVTZ AUX)
    Blend: AUG-CC-PVTZ-JKFIT
	 Reference Energy          =    -837.7563953227895581 [Eh]
	 Singles Energy            =      -0.0000000000000000 [Eh]
	 Same-Spin Energy          =      -0.5168540035961311 [Eh]
	 Opposite-Spin Energy      =      -1.6699744691913430 [Eh]
	 Correlation Energy        =      -2.1868284727874743 [Eh]
	 Total Energy              =    -839.9432237955770688 [Eh]

	 ================> DF-SCS-MP2 Energies <==================
	-----------------------------------------------------------
	 SCS Same-Spin Scale       =       0.3333333333333333 [-]
	 SCS Opposite-Spin Scale   =       1.2000000000000000 [-]
	 SCS Same-Spin Energy      =      -0.1722846678653770 [Eh]
	 SCS Opposite-Spin Energy  =      -2.0039693630296114 [Eh]
	 SCS Correlation Energy    =      -2.1762540308949885 [Eh]
	 SCS Total Energy          =    -839.9326493536844964 [Eh]
	-----------------------------------------------------------

  Dipole Moment: [D]
     X:     1.7381      Y:     0.7448      Z:     4.3276     Total:     4.7226

*** Psi4 exiting successfully. Buy a developer a beer!
