                               Psi4 1.3.2 release

  ==> Input File <==

--------------------------------------------------------------------------
#psi4
#
memory 32 gb

molecule  {
0 1
  S       -0.7380000    -0.0680220    -0.3640970
  O       -1.0479527     1.0679285    -1.5407679
  O       -0.9666500    -1.4966470    -0.5970260
  N        0.8588360     0.0833010     0.0699440
  C        1.3822580     1.4387740     0.2709440
  C        1.4230980    -0.9933220     0.9046550
  C       -1.6975890     0.4015790     1.0774410
  C        2.8090910     1.5534440    -0.2422640
  C        2.2024570    -1.9997400     0.0750250
  C       -3.1888920     0.2878700     0.7901350
  H        0.7441850     2.1234290    -0.2885820
  H        1.3352270     1.7155400     1.3356310
  H        2.0636810    -0.5196560     1.6565250
  H        0.6239660    -1.5103280     1.4462590
  H       -1.3901500    -0.2576530     1.8936760
  H       -1.4092710     1.4273450     1.3241250
  H        3.4861350     0.8840910     0.2940530
  H        2.8396270     1.3037350    -1.3040650
  H        3.1732700     2.5763490    -0.1082090
  H        1.5321020    -2.4670540    -0.6475950
  H        3.0150810    -1.5100200    -0.4652590
  H        2.6275220    -2.7764500     0.7187370
  H       -3.7600990     0.5807950     1.6744350
  H       -3.4644480     0.9408190    -0.0387940
  H       -3.4474850    -0.7394320     0.5291400
units angstrom
no_reorient  #important for SAPT in psi4, default
symmetry c1  #important for SAPT in psi4, default
}

set PROPERTIES_ORIGIN ["COM"]
properties('MP2/aug-cc-pvtz', properties = ['dipole'])
--------------------------------------------------------------------------

    Molecular point group: c1
  Charge       = 0
  Multiplicity = 1
  Basis Set: AUG-CC-PVTZ
    Blend: AUG-CC-PVTZ
  Basis Set: (AUG-CC-PVTZ AUX)
    Blend: AUG-CC-PVTZ-JKFIT

    Orbital Energies [Eh]
    ---------------------

    Doubly Occupied:

       1A    -92.197125     2A    -20.550856     3A    -20.538001
       4A    -15.602776     5A    -11.285124     6A    -11.281851
       7A    -11.278280     8A    -11.239865     9A    -11.229131
      10A    -11.220029    11A     -9.163479    12A     -6.848133
      13A     -6.847436    14A     -6.846649    15A     -1.419053
      16A     -1.274070    17A     -1.239318    18A     -1.085152
      19A     -1.049703    20A     -1.015070    21A     -0.923645
      22A     -0.873472    23A     -0.862121    24A     -0.781535
      25A     -0.718771    26A     -0.672556    27A     -0.660146
      28A     -0.655272    29A     -0.642810    30A     -0.600990
      31A     -0.597787    32A     -0.576438    33A     -0.571172
      34A     -0.550893    35A     -0.546353    36A     -0.542744
      37A     -0.529406    38A     -0.521127    39A     -0.514790
      40A     -0.499559    41A     -0.478056    42A     -0.468927
      43A     -0.442329    44A     -0.440154    45A     -0.399643

  @DF-RHF Final Energy:  -837.73173960417091

   => Energetics <=

    Nuclear Repulsion Energy =            734.3401072954718529
    One-Electron Energy =               -2607.5800935575362018
    Two-Electron Energy =                1035.5082466578935509
    Total Energy =                       -837.7317396041707980
  Basis Set: (AUG-CC-PVTZ AUX)
    Blend: AUG-CC-PVTZ-RI
    Molecular point group: c1

    Geometry (in Angstrom), charge = 0, multiplicity = 1:

       Center              X                  Y                   Z               Mass
    ------------   -----------------  -----------------  -----------------  -----------------
         S           -0.734391720408    -0.081245595151    -0.350399177457    31.972071174400
         O           -1.044344420408     1.054704904849    -1.527070077457    15.994914619570
         O           -0.963041720408    -1.509870595151    -0.583328177457    15.994914619570
         N            0.862444279592     0.070077404849     0.083641822543    14.003074004430
         C            1.385866279592     1.425550404849     0.284641822543    12.000000000000
         C            1.426706279592    -1.006545595151     0.918352822543    12.000000000000
         C           -1.693980720408     0.388355404849     1.091138822543    12.000000000000
         C            2.812699279592     1.540220404849    -0.228566177457    12.000000000000
         C            2.206065279592    -2.012963595151     0.088722822543    12.000000000000
         C           -3.185283720408     0.274646404849     0.803832822543    12.000000000000
         H            0.747793279592     2.110205404849    -0.274884177457     1.007825032230
         H            1.338835279592     1.702316404849     1.349328822543     1.007825032230
         H            2.067289279592    -0.532879595151     1.670222822543     1.007825032230
         H            0.627574279592    -1.523551595151     1.459956822543     1.007825032230
         H           -1.386541720408    -0.270876595151     1.907373822543     1.007825032230
         H           -1.405662720408     1.414121404849     1.337822822543     1.007825032230
         H            3.489743279592     0.870867404849     0.307750822543     1.007825032230
         H            2.843235279592     1.290511404849    -1.290367177457     1.007825032230
         H            3.176878279592     2.563125404849    -0.094511177457     1.007825032230
         H            1.535710279592    -2.480277595151    -0.633897177457     1.007825032230
         H            3.018689279592    -1.523243595151    -0.451561177457     1.007825032230
         H            2.631130279592    -2.789673595151     0.732434822543     1.007825032230
         H           -3.756490720408     0.567571404849     1.688132822543     1.007825032230
         H           -3.460839720408     0.927595404849    -0.025096177457     1.007825032230
         H           -3.443876720408    -0.752655595151     0.542837822543     1.007825032230

  Basis Set: AUG-CC-PVTZ
    Blend: AUG-CC-PVTZ
  Basis Set: (AUG-CC-PVTZ AUX)
    Blend: AUG-CC-PVTZ-JKFIT
	 Reference Energy          =    -837.7317396041709117 [Eh]
	 Singles Energy            =      -0.0000000000000000 [Eh]
	 Same-Spin Energy          =      -0.5190603529780216 [Eh]
	 Opposite-Spin Energy      =      -1.6775219138385962 [Eh]
	 Correlation Energy        =      -2.1965822668166179 [Eh]
	 Total Energy              =    -839.9283218709874745 [Eh]

	 ================> DF-SCS-MP2 Energies <==================
	-----------------------------------------------------------
	 SCS Same-Spin Scale       =       0.3333333333333333 [-]
	 SCS Opposite-Spin Scale   =       1.2000000000000000 [-]
	 SCS Same-Spin Energy      =      -0.1730201176593405 [Eh]
	 SCS Opposite-Spin Energy  =      -2.0130262966063155 [Eh]
	 SCS Correlation Energy    =      -2.1860464142656562 [Eh]
	 SCS Total Energy          =    -839.9177860184365727 [Eh]
	-----------------------------------------------------------

  Dipole Moment: [D]
     X:     1.8456      Y:     0.7505      Z:     5.1557     Total:     5.5273

*** Psi4 exiting successfully. Buy a developer a beer!
