                               Psi4 1.3.2 release

  ==> Input File <==

--------------------------------------------------------------------------
#psi4
#
memory 32 gb

molecule  {
0 1
  S       -0.7380000    -0.0680220    -0.3640970
  O       -0.9864139     0.9392514    -1.3979468
  O       -0.9666500    -1.4966470    -0.5970260
  N        0.8617397     0.1048680     0.0507734
  C        1.3822580     1.4387740     0.2709440
  C        1.4230980    -0.9933220     0.9046550
  C       -1.6975890     0.4015790     1.0774410
  C        2.8090910     1.5534440    -0.2422640
  C        2.2024570    -1.9997400     0.0750250
  C       -3.1888920     0.2878700     0.7901350
  H        0.7441850     2.1234290    -0.2885820
  H        1.3352270     1.7155400     1.3356310
  H        2.0636810    -0.5196560     1.6565250
  H        0.6239660    -1.5103280     1.4462590
  H       -1.3901500    -0.2576530     1.8936760
  H       -1.4092710     1.4273450     1.3241250
  H        3.4861350     0.8840910     0.2940530
  H        2.8396270     1.3037350    -1.3040650
  H        3.1732700     2.5763490    -0.1082090
  H        1.5321020    -2.4670540    -0.6475950
  H        3.0150810    -1.5100200    -0.4652590
  H        2.6275220    -2.7764500     0.7187370
  H       -3.7600990     0.5807950     1.6744350
  H       -3.4644480     0.9408190    -0.0387940
  H       -3.4474850    -0.7394320     0.5291400
units angstrom
no_reorient  #important for SAPT in psi4, default
symmetry c1  #important for SAPT in psi4, default
}

set PROPERTIES_ORIGIN ["COM"]
properties('MP2/aug-cc-pvtz', properties = ['dipole'])
--------------------------------------------------------------------------

    Molecular point group: c1
  Charge       = 0
  Multiplicity = 1
  Basis Set: AUG-CC-PVTZ
    Blend: AUG-CC-PVTZ
  Basis Set: (AUG-CC-PVTZ AUX)
    Blend: AUG-CC-PVTZ-JKFIT

    Orbital Energies [Eh]
    ---------------------

    Doubly Occupied:

       1A    -92.190663     2A    -20.540882     3A    -20.537011
       4A    -15.593071     5A    -11.277715     6A    -11.276494
       7A    -11.273504     8A    -11.237698     9A    -11.226484
      10A    -11.217011    11A     -9.156417    12A     -6.841517
      13A     -6.840746    14A     -6.840668    15A     -1.444072
      16A     -1.327676    17A     -1.247318    18A     -1.079094
      19A     -1.045369    20A     -1.009722    21A     -0.916249
      22A     -0.868617    23A     -0.857059    24A     -0.774692
      25A     -0.720567    26A     -0.670414    27A     -0.667792
      28A     -0.652743    29A     -0.639144    30A     -0.611777
      31A     -0.601118    32A     -0.575281    33A     -0.572692
      34A     -0.550083    35A     -0.544493    36A     -0.540521
      37A     -0.527615    38A     -0.519274    39A     -0.511371
      40A     -0.495317    41A     -0.488454    42A     -0.487039
      43A     -0.460484    44A     -0.446088    45A     -0.396516

  @DF-RHF Final Energy:  -837.77563551627691

   => Energetics <=

    Nuclear Repulsion Energy =            743.5617097729225407
    One-Electron Energy =               -2626.0776231595013996
    Two-Electron Energy =                1044.7402778703019521
    Total Energy =                       -837.7756355162769069
  Basis Set: (AUG-CC-PVTZ AUX)
    Blend: AUG-CC-PVTZ-RI
    Molecular point group: c1

    Geometry (in Angstrom), charge = 0, multiplicity = 1:

       Center              X                  Y                   Z               Mass
    ------------   -----------------  -----------------  -----------------  -----------------
         S           -0.740600552415    -0.070607420132    -0.362611046085    31.972071174400
         O           -0.989014452415     0.936665979868    -1.396460846085    15.994914619570
         O           -0.969250552415    -1.499232420132    -0.595540046085    15.994914619570
         N            0.859139147585     0.102282579868     0.052259353915    14.003074004430
         C            1.379657447585     1.436188579868     0.272429953915    12.000000000000
         C            1.420497447585    -0.995907420132     0.906140953915    12.000000000000
         C           -1.700189552415     0.398993579868     1.078926953915    12.000000000000
         C            2.806490447585     1.550858579868    -0.240778046085    12.000000000000
         C            2.199856447585    -2.002325420132     0.076510953915    12.000000000000
         C           -3.191492552415     0.285284579868     0.791620953915    12.000000000000
         H            0.741584447585     2.120843579868    -0.287096046085     1.007825032230
         H            1.332626447585     1.712954579868     1.337116953915     1.007825032230
         H            2.061080447585    -0.522241420132     1.658010953915     1.007825032230
         H            0.621365447585    -1.512913420132     1.447744953915     1.007825032230
         H           -1.392750552415    -0.260238420132     1.895161953915     1.007825032230
         H           -1.411871552415     1.424759579868     1.325610953915     1.007825032230
         H            3.483534447585     0.881505579868     0.295538953915     1.007825032230
         H            2.837026447585     1.301149579868    -1.302579046085     1.007825032230
         H            3.170669447585     2.573763579868    -0.106723046085     1.007825032230
         H            1.529501447585    -2.469639420132    -0.646109046085     1.007825032230
         H            3.012480447585    -1.512605420132    -0.463773046085     1.007825032230
         H            2.624921447585    -2.779035420132     0.720222953915     1.007825032230
         H           -3.762699552415     0.578209579868     1.675920953915     1.007825032230
         H           -3.467048552415     0.938233579868    -0.037308046085     1.007825032230
         H           -3.450085552415    -0.742017420132     0.530625953915     1.007825032230

  Basis Set: AUG-CC-PVTZ
    Blend: AUG-CC-PVTZ
  Basis Set: (AUG-CC-PVTZ AUX)
    Blend: AUG-CC-PVTZ-JKFIT
	 Reference Energy          =    -837.7756355162769069 [Eh]
	 Singles Energy            =      -0.0000000000000000 [Eh]
	 Same-Spin Energy          =      -0.5168662609543710 [Eh]
	 Opposite-Spin Energy      =      -1.6699551183386498 [Eh]
	 Correlation Energy        =      -2.1868213792930211 [Eh]
	 Total Energy              =    -839.9624568955699715 [Eh]

	 ================> DF-SCS-MP2 Energies <==================
	-----------------------------------------------------------
	 SCS Same-Spin Scale       =       0.3333333333333333 [-]
	 SCS Opposite-Spin Scale   =       1.2000000000000000 [-]
	 SCS Same-Spin Energy      =      -0.1722887536514570 [Eh]
	 SCS Opposite-Spin Energy  =      -2.0039461420063795 [Eh]
	 SCS Correlation Energy    =      -2.1762348956578368 [Eh]
	 SCS Total Energy          =    -839.9518704119346921 [Eh]
	-----------------------------------------------------------

  Dipole Moment: [D]
     X:     1.5020      Y:     1.3323      Z:     4.3551     Total:     4.7957

*** Psi4 exiting successfully. Buy a developer a beer!
