                               Psi4 1.4a3.dev225

  ==> Input File <==

--------------------------------------------------------------------------
#psi4
#
memory 32 gb

molecule  {
0 1
  S        0.7616280     0.0424770    -0.4366460
  O        1.0024240    -1.0592090    -1.3727360
  O        0.9495440     1.4436620    -0.8249950
  N       -0.8076120    -0.0882160     0.0931460
  C       -1.3185710    -1.4233650     0.4283730
  C       -1.3686840     1.0652840     0.8208400
  C        1.7768154    -0.2462630     0.9554509
  C       -2.7505920    -1.6006810    -0.0558370
  C       -2.1814690     1.9714470    -0.0911900
  C        3.2787560    -0.1326200     0.6229570
  H       -0.6761480    -2.1530350    -0.0688350
  H       -1.2569730    -1.5943860     1.5141500
  H       -1.9866060     0.6632120     1.6319710
  H       -0.5646970     1.6429440     1.2905320
  H        1.5186250     0.4781900     1.7554980
  H        1.5601880    -1.2573080     1.3582850
  H       -3.4295210    -0.8918450     0.4253230
  H       -2.7963610    -1.4499180    -1.1363750
  H       -3.1014500    -2.6111540     0.1760480
  H       -1.5338360     2.3728670    -0.8718090
  H       -2.9953600     1.4152720    -0.5615490
  H       -2.6084920     2.8033720     0.4789350
  H        3.8991710    -0.3169240     1.5035790
  H        3.5375790    -0.8611900    -0.1476860
  H        3.4935140     0.8689240     0.2454810
units angstrom
no_reorient  #important for SAPT in psi4, default
symmetry c1  #important for SAPT in psi4, default
}

set PROPERTIES_ORIGIN ["COM"]
properties('MP2/aug-cc-pvtz', properties = ['dipole'])
--------------------------------------------------------------------------

    Molecular point group: c1
  Charge       = 0
  Multiplicity = 1
  Basis Set: AUG-CC-PVTZ
    Blend: AUG-CC-PVTZ
  Basis Set: (AUG-CC-PVTZ AUX)
    Blend: AUG-CC-PVTZ-JKFIT

    Orbital Energies [Eh]
    ---------------------

    Doubly Occupied:

       1A    -92.192337     2A    -20.539026     3A    -20.538836
       4A    -15.592961     5A    -11.276682     6A    -11.276305
       7A    -11.275529     8A    -11.238653     9A    -11.227782
      10A    -11.216077    11A     -9.158150    12A     -6.843275
      13A     -6.842580    14A     -6.842491    15A     -1.445057
      16A     -1.327539    17A     -1.247786    18A     -1.078522
      19A     -1.045483    20A     -1.009105    21A     -0.919994
      22A     -0.869545    23A     -0.856769    24A     -0.773030
      25A     -0.721610    26A     -0.671864    27A     -0.667141
      28A     -0.648569    29A     -0.639646    30A     -0.610575
      31A     -0.599363    32A     -0.577752    33A     -0.572899
      34A     -0.548192    35A     -0.543158    36A     -0.534386
      37A     -0.525039    38A     -0.518956    39A     -0.511916
      40A     -0.497134    41A     -0.489888    42A     -0.486211
      43A     -0.460035    44A     -0.450169    45A     -0.396243

  @DF-RHF Final Energy:  -837.77445935708283

   => Energetics <=

    Nuclear Repulsion Energy =            744.0171639971464401
    One-Electron Energy =               -2626.9747213054060921
    Two-Electron Energy =                1045.1830979511769328
    Total Energy =                       -837.7744593570828329
  Basis Set: (AUG-CC-PVTZ AUX)
    Blend: AUG-CC-PVTZ-RI
    Molecular point group: c1

    Geometry (in Angstrom), charge = 0, multiplicity = 1:

       Center              X                  Y                   Z               Mass
    ------------   -----------------  -----------------  -----------------  -----------------
         S            0.722231149094     0.036542092590    -0.388254565013    31.972071174400
         O            0.963027149094    -1.065143907410    -1.324344565013    15.994914619570
         O            0.910147149094     1.437727092590    -0.776603565013    15.994914619570
         N           -0.847008850906    -0.094150907410     0.141537434987    14.003074004430
         C           -1.357967850906    -1.429299907410     0.476764434987    12.000000000000
         C           -1.408080850906     1.059349092590     0.869231434987    12.000000000000
         C            1.737418549094    -0.252197907410     1.003842334987    12.000000000000
         C           -2.789988850906    -1.606615907410    -0.007445565013    12.000000000000
         C           -2.220865850906     1.965512092590    -0.042798565013    12.000000000000
         C            3.239359149094    -0.138554907410     0.671348434987    12.000000000000
         H           -0.715544850906    -2.158969907410    -0.020443565013     1.007825032230
         H           -1.296369850906    -1.600320907410     1.562541434987     1.007825032230
         H           -2.026002850906     0.657277092590     1.680362434987     1.007825032230
         H           -0.604093850906     1.637009092590     1.338923434987     1.007825032230
         H            1.479228149094     0.472255092590     1.803889434987     1.007825032230
         H            1.520791149094    -1.263242907410     1.406676434987     1.007825032230
         H           -3.468917850906    -0.897779907410     0.473714434987     1.007825032230
         H           -2.835757850906    -1.455852907410    -1.087983565013     1.007825032230
         H           -3.140846850906    -2.617088907410     0.224439434987     1.007825032230
         H           -1.573232850906     2.366932092590    -0.823417565013     1.007825032230
         H           -3.034756850906     1.409337092590    -0.513157565013     1.007825032230
         H           -2.647888850906     2.797437092590     0.527326434987     1.007825032230
         H            3.859774149094    -0.322858907410     1.551970434987     1.007825032230
         H            3.498182149094    -0.867124907410    -0.099294565013     1.007825032230
         H            3.454117149094     0.862989092590     0.293872434987     1.007825032230

  Basis Set: AUG-CC-PVTZ
    Blend: AUG-CC-PVTZ
  Basis Set: (AUG-CC-PVTZ AUX)
    Blend: AUG-CC-PVTZ-JKFIT
	 Reference Energy          =    -837.7744593570828329 [Eh]
	 Singles Energy            =      -0.0000000000000000 [Eh]
	 Same-Spin Energy          =      -0.5168047263963591 [Eh]
	 Opposite-Spin Energy      =      -1.6697796116589652 [Eh]
	 Correlation Energy        =      -2.1865843380553240 [Eh]
	 Total Energy              =    -839.9610436951381871 [Eh]

	 ================> DF-SCS-MP2 Energies <==================
	-----------------------------------------------------------
	 SCS Same-Spin Scale       =       0.3333333333333333 [-]
	 SCS Opposite-Spin Scale   =       1.2000000000000000 [-]
	 SCS Same-Spin Energy      =      -0.1722682421321197 [Eh]
	 SCS Opposite-Spin Energy  =      -2.0037355339907581 [Eh]
	 SCS Correlation Energy    =      -2.1760037761228777 [Eh]
	 SCS Total Energy          =    -839.9504631332057443 [Eh]
	-----------------------------------------------------------

  Dipole Moment: [D]
     X:    -1.3438      Y:    -1.0008      Z:     4.4899     Total:     4.7924

*** Psi4 exiting successfully. Buy a developer a beer!
