                               Psi4 1.3.2 release

  ==> Input File <==

--------------------------------------------------------------------------
#psi4
#
memory 32 gb

molecule  {
0 1
  S       -0.7427816    -0.0102339    -0.3627775
  O       -1.0107130     0.9314480    -1.3993950
  O       -0.9666500    -1.4966470    -0.5970260
  N        0.8588360     0.0833010     0.0699440
  C        1.3359798     1.4573895     0.2593994
  C        1.4230980    -0.9933220     0.9046550
  C       -1.6975890     0.4015790     1.0774410
  C        2.8090910     1.5534440    -0.2422640
  C        2.2024570    -1.9997400     0.0750250
  C       -3.1888920     0.2878700     0.7901350
  H        0.7441850     2.1234290    -0.2885820
  H        1.3352270     1.7155400     1.3356310
  H        2.0636810    -0.5196560     1.6565250
  H        0.6239660    -1.5103280     1.4462590
  H       -1.3901500    -0.2576530     1.8936760
  H       -1.4092710     1.4273450     1.3241250
  H        3.4861350     0.8840910     0.2940530
  H        2.8396270     1.3037350    -1.3040650
  H        3.1732700     2.5763490    -0.1082090
  H        1.5321020    -2.4670540    -0.6475950
  H        3.0150810    -1.5100200    -0.4652590
  H        2.6275220    -2.7764500     0.7187370
  H       -3.7600990     0.5807950     1.6744350
  H       -3.4644480     0.9408190    -0.0387940
  H       -3.4474850    -0.7394320     0.5291400
units angstrom
no_reorient  #important for SAPT in psi4, default
symmetry c1  #important for SAPT in psi4, default
}

set PROPERTIES_ORIGIN ["COM"]
properties('MP2/aug-cc-pvtz', properties = ['dipole'])
--------------------------------------------------------------------------

    Molecular point group: c1
  Charge       = 0
  Multiplicity = 1
  Basis Set: AUG-CC-PVTZ
    Blend: AUG-CC-PVTZ
  Basis Set: (AUG-CC-PVTZ AUX)
    Blend: AUG-CC-PVTZ-JKFIT

    Orbital Energies [Eh]
    ---------------------

    Doubly Occupied:

       1A    -92.189109     2A    -20.548806     3A    -20.524401
       4A    -15.595121     5A    -11.277353     6A    -11.276827
       7A    -11.276488     8A    -11.238496     9A    -11.229648
      10A    -11.214993    11A     -9.155620    12A     -6.840616
      13A     -6.840039    14A     -6.839645    15A     -1.449465
      16A     -1.313657    17A     -1.247338    18A     -1.082826
      19A     -1.044262    20A     -1.007041    21A     -0.918790
      22A     -0.873503    23A     -0.857335    24A     -0.776033
      25A     -0.722727    26A     -0.672164    27A     -0.668746
      28A     -0.651542    29A     -0.645199    30A     -0.611720
      31A     -0.600806    32A     -0.576231    33A     -0.570310
      34A     -0.550702    35A     -0.542494    36A     -0.537273
      37A     -0.528184    38A     -0.519988    39A     -0.514067
      40A     -0.503941    41A     -0.490416    42A     -0.481851
      43A     -0.452036    44A     -0.441123    45A     -0.395142

  @DF-RHF Final Energy:  -837.76739219521244

   => Energetics <=

    Nuclear Repulsion Energy =            743.5359907478526793
    One-Electron Energy =               -2626.0186134755108469
    Two-Electron Energy =                1044.7152305324457302
    Total Energy =                       -837.7673921952123237
  Basis Set: (AUG-CC-PVTZ AUX)
    Blend: AUG-CC-PVTZ-RI
    Molecular point group: c1

    Geometry (in Angstrom), charge = 0, multiplicity = 1:

       Center              X                  Y                   Z               Mass
    ------------   -----------------  -----------------  -----------------  -----------------
         S           -0.738491416900    -0.022779029534    -0.362193734861    31.972071174400
         O           -1.006422816900     0.918902870466    -1.398811234861    15.994914619570
         O           -0.962359816900    -1.509192129534    -0.596442234861    15.994914619570
         N            0.863126183100     0.070755870466     0.070527765139    14.003074004430
         C            1.340269983100     1.444844370466     0.259983165139    12.000000000000
         C            1.427388183100    -1.005867129534     0.905238765139    12.000000000000
         C           -1.693298816900     0.389033870466     1.078024765139    12.000000000000
         C            2.813381183100     1.540898870466    -0.241680234861    12.000000000000
         C            2.206747183100    -2.012285129534     0.075608765139    12.000000000000
         C           -3.184601816900     0.275324870466     0.790718765139    12.000000000000
         H            0.748475183100     2.110883870466    -0.287998234861     1.007825032230
         H            1.339517183100     1.702994870466     1.336214765139     1.007825032230
         H            2.067971183100    -0.532201129534     1.657108765139     1.007825032230
         H            0.628256183100    -1.522873129534     1.446842765139     1.007825032230
         H           -1.385859816900    -0.270198129534     1.894259765139     1.007825032230
         H           -1.404980816900     1.414799870466     1.324708765139     1.007825032230
         H            3.490425183100     0.871545870466     0.294636765139     1.007825032230
         H            2.843917183100     1.291189870466    -1.303481234861     1.007825032230
         H            3.177560183100     2.563803870466    -0.107625234861     1.007825032230
         H            1.536392183100    -2.479599129534    -0.647011234861     1.007825032230
         H            3.019371183100    -1.522565129534    -0.464675234861     1.007825032230
         H            2.631812183100    -2.788995129534     0.719320765139     1.007825032230
         H           -3.755808816900     0.568249870466     1.675018765139     1.007825032230
         H           -3.460157816900     0.928273870466    -0.038210234861     1.007825032230
         H           -3.443194816900    -0.751977129534     0.529723765139     1.007825032230

  Basis Set: AUG-CC-PVTZ
    Blend: AUG-CC-PVTZ
  Basis Set: (AUG-CC-PVTZ AUX)
    Blend: AUG-CC-PVTZ-JKFIT
	 Reference Energy          =    -837.7673921952124374 [Eh]
	 Singles Energy            =      -0.0000000000000000 [Eh]
	 Same-Spin Energy          =      -0.5168265355820095 [Eh]
	 Opposite-Spin Energy      =      -1.6700733764680213 [Eh]
	 Correlation Energy        =      -2.1868999120500310 [Eh]
	 Total Energy              =    -839.9542921072625177 [Eh]

	 ================> DF-SCS-MP2 Energies <==================
	-----------------------------------------------------------
	 SCS Same-Spin Scale       =       0.3333333333333333 [-]
	 SCS Opposite-Spin Scale   =       1.2000000000000000 [-]
	 SCS Same-Spin Energy      =      -0.1722755118606698 [Eh]
	 SCS Opposite-Spin Energy  =      -2.0040880517616255 [Eh]
	 SCS Correlation Energy    =      -2.1763635636222953 [Eh]
	 SCS Total Energy          =    -839.9437557588347545 [Eh]
	-----------------------------------------------------------

  Dipole Moment: [D]
     X:     1.5262      Y:     1.9053      Z:     4.3188     Total:     4.9610

*** Psi4 exiting successfully. Buy a developer a beer!
