                               Psi4 1.3.2 release

  ==> Input File <==

--------------------------------------------------------------------------
#psi4
#
memory 32 gb

molecule  {
0 1
  S       -0.7380000    -0.0680220    -0.3640970
  O       -1.0107130     0.9314480    -1.3993950
  O       -0.9666500    -1.4966470    -0.5970260
  N        0.8588360     0.0833010     0.0699440
  C        1.3822580     1.4387740     0.2709440
  C        1.4230980    -0.9933220     0.9046550
  C       -1.6441079     0.3754066     0.9970993
  C        2.8090910     1.5534440    -0.2422640
  C        2.2024570    -1.9997400     0.0750250
  C       -3.1888920     0.2878700     0.7901350
  H        0.7441850     2.1234290    -0.2885820
  H        1.3352270     1.7155400     1.3356310
  H        2.0636810    -0.5196560     1.6565250
  H        0.6239660    -1.5103280     1.4462590
  H       -1.3901500    -0.2576530     1.8936760
  H       -1.4092710     1.4273450     1.3241250
  H        3.4861350     0.8840910     0.2940530
  H        2.8396270     1.3037350    -1.3040650
  H        3.1732700     2.5763490    -0.1082090
  H        1.5321020    -2.4670540    -0.6475950
  H        3.0150810    -1.5100200    -0.4652590
  H        2.6275220    -2.7764500     0.7187370
  H       -3.7600990     0.5807950     1.6744350
  H       -3.4644480     0.9408190    -0.0387940
  H       -3.4474850    -0.7394320     0.5291400
units angstrom
no_reorient  #important for SAPT in psi4, default
symmetry c1  #important for SAPT in psi4, default
}

set PROPERTIES_ORIGIN ["COM"]
properties('MP2/aug-cc-pvtz', properties = ['dipole'])
--------------------------------------------------------------------------

    Molecular point group: c1
  Charge       = 0
  Multiplicity = 1
  Basis Set: AUG-CC-PVTZ
    Blend: AUG-CC-PVTZ
  Basis Set: (AUG-CC-PVTZ AUX)
    Blend: AUG-CC-PVTZ-JKFIT

    Orbital Energies [Eh]
    ---------------------

    Doubly Occupied:

       1A    -92.192021     2A    -20.538405     3A    -20.538261
       4A    -15.593093     5A    -11.276110     6A    -11.276066
       7A    -11.275693     8A    -11.241128     9A    -11.227671
      10A    -11.216009    11A     -9.158583    12A     -6.843693
      13A     -6.843164    14A     -6.842884    15A     -1.447447
      16A     -1.327869    17A     -1.249344    18A     -1.082440
      19A     -1.046150    20A     -1.009414    21A     -0.925270
      22A     -0.869753    23A     -0.856374    24A     -0.772518
      25A     -0.724918    26A     -0.673344    27A     -0.667861
      28A     -0.648191    29A     -0.641054    30A     -0.609195
      31A     -0.599476    32A     -0.577245    33A     -0.575007
      34A     -0.548459    35A     -0.543333    36A     -0.528056
      37A     -0.524757    38A     -0.518526    39A     -0.511001
      40A     -0.496873    41A     -0.491192    42A     -0.485676
      43A     -0.458901    44A     -0.454837    45A     -0.398417

  @DF-RHF Final Energy:  -837.76785573678160

   => Energetics <=

    Nuclear Repulsion Energy =            745.9493830299743422
    One-Electron Energy =               -2630.7831249699138425
    Two-Electron Energy =                1047.0658862031577883
    Total Energy =                       -837.7678557367817120
  Basis Set: (AUG-CC-PVTZ AUX)
    Blend: AUG-CC-PVTZ-RI
    Molecular point group: c1

    Geometry (in Angstrom), charge = 0, multiplicity = 1:

       Center              X                  Y                   Z               Mass
    ------------   -----------------  -----------------  -----------------  -----------------
         S           -0.741887488567    -0.066119430869    -0.358256753181    31.972071174400
         O           -1.014600488567     0.933350569131    -1.393554753181    15.994914619570
         O           -0.970537488567    -1.494744430869    -0.591185753181    15.994914619570
         N            0.854948511433     0.085203569131     0.075784246819    14.003074004430
         C            1.378370511433     1.440676569131     0.276784246819    12.000000000000
         C            1.419210511433    -0.991419430869     0.910495246819    12.000000000000
         C           -1.647995388567     0.377309169131     1.002939546819    12.000000000000
         C            2.805203511433     1.555346569131    -0.236423753181    12.000000000000
         C            2.198569511433    -1.997837430869     0.080865246819    12.000000000000
         C           -3.192779488567     0.289772569131     0.795975246819    12.000000000000
         H            0.740297511433     2.125331569131    -0.282741753181     1.007825032230
         H            1.331339511433     1.717442569131     1.341471246819     1.007825032230
         H            2.059793511433    -0.517753430869     1.662365246819     1.007825032230
         H            0.620078511433    -1.508425430869     1.452099246819     1.007825032230
         H           -1.394037488567    -0.255750430869     1.899516246819     1.007825032230
         H           -1.413158488567     1.429247569131     1.329965246819     1.007825032230
         H            3.482247511433     0.885993569131     0.299893246819     1.007825032230
         H            2.835739511433     1.305637569131    -1.298224753181     1.007825032230
         H            3.169382511433     2.578251569131    -0.102368753181     1.007825032230
         H            1.528214511433    -2.465151430869    -0.641754753181     1.007825032230
         H            3.011193511433    -1.508117430869    -0.459418753181     1.007825032230
         H            2.623634511433    -2.774547430869     0.724577246819     1.007825032230
         H           -3.763986488567     0.582697569131     1.680275246819     1.007825032230
         H           -3.468335488567     0.942721569131    -0.032953753181     1.007825032230
         H           -3.451372488567    -0.737529430869     0.534980246819     1.007825032230

  Basis Set: AUG-CC-PVTZ
    Blend: AUG-CC-PVTZ
  Basis Set: (AUG-CC-PVTZ AUX)
    Blend: AUG-CC-PVTZ-JKFIT
	 Reference Energy          =    -837.7678557367815984 [Eh]
	 Singles Energy            =      -0.0000000000000000 [Eh]
	 Same-Spin Energy          =      -0.5172803248430231 [Eh]
	 Opposite-Spin Energy      =      -1.6701375922017661 [Eh]
	 Correlation Energy        =      -2.1874179170447894 [Eh]
	 Total Energy              =    -839.9552736538263389 [Eh]

	 ================> DF-SCS-MP2 Energies <==================
	-----------------------------------------------------------
	 SCS Same-Spin Scale       =       0.3333333333333333 [-]
	 SCS Opposite-Spin Scale   =       1.2000000000000000 [-]
	 SCS Same-Spin Energy      =      -0.1724267749476744 [Eh]
	 SCS Opposite-Spin Energy  =      -2.0041651106421190 [Eh]
	 SCS Correlation Energy    =      -2.1765918855897932 [Eh]
	 SCS Total Energy          =    -839.9444476223713991 [Eh]
	-----------------------------------------------------------

  Dipole Moment: [D]
     X:     1.5028      Y:     1.4716      Z:     4.4000     Total:     4.8769

*** Psi4 exiting successfully. Buy a developer a beer!
