                               Psi4 1.3.2 release

  ==> Input File <==

--------------------------------------------------------------------------
#psi4
#
memory 32 gb

molecule  {
0 1
  S       -0.7451923    -0.0568848    -0.3724278
  O       -1.0107130     0.9314480    -1.3993950
  O       -0.9666500    -1.4966470    -0.5970260
  N        0.8588360     0.0833010     0.0699440
  C        1.3822580     1.4387740     0.2709440
  C        1.4230980    -0.9933220     0.9046550
  C       -1.6975890     0.4015790     1.0774410
  C        2.8090910     1.5534440    -0.2422640
  C        2.2024570    -1.9997400     0.0750250
  C       -3.1888920     0.2878700     0.7901350
  H        0.7441850     2.1234290    -0.2885820
  H        1.3352270     1.7155400     1.3356310
  H        2.0636810    -0.5196560     1.6565250
  H        0.6239660    -1.5103280     1.4462590
  H       -1.3963140    -0.2532636     1.8994870
  H       -1.4092710     1.4273450     1.3241250
  H        3.4861350     0.8840910     0.2940530
  H        2.8396270     1.3037350    -1.3040650
  H        3.1732700     2.5763490    -0.1082090
  H        1.5321020    -2.4670540    -0.6475950
  H        3.0150810    -1.5100200    -0.4652590
  H        2.6275220    -2.7764500     0.7187370
  H       -3.7600990     0.5807950     1.6744350
  H       -3.4644480     0.9408190    -0.0387940
  H       -3.4474850    -0.7394320     0.5291400
units angstrom
no_reorient  #important for SAPT in psi4, default
symmetry c1  #important for SAPT in psi4, default
}

set PROPERTIES_ORIGIN ["COM"]
properties('MP2/aug-cc-pvtz', properties = ['dipole'])
--------------------------------------------------------------------------

    Molecular point group: c1
  Charge       = 0
  Multiplicity = 1
  Basis Set: AUG-CC-PVTZ
    Blend: AUG-CC-PVTZ
  Basis Set: (AUG-CC-PVTZ AUX)
    Blend: AUG-CC-PVTZ-JKFIT

    Orbital Energies [Eh]
    ---------------------

    Doubly Occupied:

       1A    -92.191135     2A    -20.543065     3A    -20.536943
       4A    -15.592123     5A    -11.275710     6A    -11.275598
       7A    -11.274995     8A    -11.237054     9A    -11.227410
      10A    -11.215321    11A     -9.156839    12A     -6.841921
      13A     -6.841226    14A     -6.841088    15A     -1.446762
      16A     -1.329527    17A     -1.246566    18A     -1.078629
      19A     -1.045466    20A     -1.008557    21A     -0.915714
      22A     -0.869037    23A     -0.855966    24A     -0.774562
      25A     -0.720236    26A     -0.671701    27A     -0.667827
      28A     -0.651109    29A     -0.640672    30A     -0.613511
      31A     -0.599465    32A     -0.577115    33A     -0.572348
      34A     -0.549964    35A     -0.543515    36A     -0.540117
      37A     -0.526776    38A     -0.519047    39A     -0.511414
      40A     -0.497784    41A     -0.491224    42A     -0.485953
      43A     -0.461954    44A     -0.445959    45A     -0.394156

  @DF-RHF Final Energy:  -837.77655686968819

   => Energetics <=

    Nuclear Repulsion Energy =            743.3409330204311800
    One-Electron Energy =               -2625.6288506755008711
    Two-Electron Energy =                1044.5113607853813846
    Total Energy =                       -837.7765568696881928
  Basis Set: (AUG-CC-PVTZ AUX)
    Blend: AUG-CC-PVTZ-RI
    Molecular point group: c1

    Geometry (in Angstrom), charge = 0, multiplicity = 1:

       Center              X                  Y                   Z               Mass
    ------------   -----------------  -----------------  -----------------  -----------------
         S           -0.743761605481    -0.059068505984    -0.370849692296    31.972071174400
         O           -1.009282305481     0.929264294016    -1.397816892296    15.994914619570
         O           -0.965219305481    -1.498830705984    -0.595447892296    15.994914619570
         N            0.860266694519     0.081117294016     0.071522107704    14.003074004430
         C            1.383688694519     1.436590294016     0.272522107704    12.000000000000
         C            1.424528694519    -0.995505705984     0.906233107704    12.000000000000
         C           -1.696158305481     0.399395294016     1.079019107704    12.000000000000
         C            2.810521694519     1.551260294016    -0.240685892296    12.000000000000
         C            2.203887694519    -2.001923705984     0.076603107704    12.000000000000
         C           -3.187461305481     0.285686294016     0.791713107704    12.000000000000
         H            0.745615694519     2.121245294016    -0.287003892296     1.007825032230
         H            1.336657694519     1.713356294016     1.337209107704     1.007825032230
         H            2.065111694519    -0.521839705984     1.658103107704     1.007825032230
         H            0.625396694519    -1.512511705984     1.447837107704     1.007825032230
         H           -1.394883305481    -0.255447305984     1.901065107704     1.007825032230
         H           -1.407840305481     1.425161294016     1.325703107704     1.007825032230
         H            3.487565694519     0.881907294016     0.295631107704     1.007825032230
         H            2.841057694519     1.301551294016    -1.302486892296     1.007825032230
         H            3.174700694519     2.574165294016    -0.106630892296     1.007825032230
         H            1.533532694519    -2.469237705984    -0.646016892296     1.007825032230
         H            3.016511694519    -1.512203705984    -0.463680892296     1.007825032230
         H            2.628952694519    -2.778633705984     0.720315107704     1.007825032230
         H           -3.758668305481     0.578611294016     1.676013107704     1.007825032230
         H           -3.463017305481     0.938635294016    -0.037215892296     1.007825032230
         H           -3.446054305481    -0.741615705984     0.530718107704     1.007825032230

  Basis Set: AUG-CC-PVTZ
    Blend: AUG-CC-PVTZ
  Basis Set: (AUG-CC-PVTZ AUX)
    Blend: AUG-CC-PVTZ-JKFIT
	 Reference Energy          =    -837.7765568696881928 [Eh]
	 Singles Energy            =      -0.0000000000000000 [Eh]
	 Same-Spin Energy          =      -0.5166987968054088 [Eh]
	 Opposite-Spin Energy      =      -1.6696596318754895 [Eh]
	 Correlation Energy        =      -2.1863584286808981 [Eh]
	 Total Energy              =    -839.9629152983691256 [Eh]

	 ================> DF-SCS-MP2 Energies <==================
	-----------------------------------------------------------
	 SCS Same-Spin Scale       =       0.3333333333333333 [-]
	 SCS Opposite-Spin Scale   =       1.2000000000000000 [-]
	 SCS Same-Spin Energy      =      -0.1722329322684696 [Eh]
	 SCS Opposite-Spin Energy  =      -2.0035915582505872 [Eh]
	 SCS Correlation Energy    =      -2.1758244905190569 [Eh]
	 SCS Total Energy          =    -839.9523813602072551 [Eh]
	-----------------------------------------------------------

  Dipole Moment: [D]
     X:     1.4993      Y:     1.5361      Z:     4.2408     Total:     4.7531

*** Psi4 exiting successfully. Buy a developer a beer!
