                               Psi4 1.3.2 release

  ==> Input File <==

--------------------------------------------------------------------------
#psi4
#
memory 32 gb

molecule  {
0 1
  S       -0.7380000    -0.0680220    -0.3640970
  O       -1.0107130     0.9314480    -1.3993950
  O       -0.9666500    -1.4966470    -0.5970260
  N        0.8588360     0.0833010     0.0699440
  C        1.3465748     1.3463676     0.2572413
  C        1.4230980    -0.9933220     0.9046550
  C       -1.6975890     0.4015790     1.0774410
  C        2.8090910     1.5534440    -0.2422640
  C        2.2024570    -1.9997400     0.0750250
  C       -3.1888920     0.2878700     0.7901350
  H        0.7441850     2.1234290    -0.2885820
  H        1.3352270     1.7155400     1.3356310
  H        2.0636810    -0.5196560     1.6565250
  H        0.6239660    -1.5103280     1.4462590
  H       -1.3901500    -0.2576530     1.8936760
  H       -1.4092710     1.4273450     1.3241250
  H        3.4861350     0.8840910     0.2940530
  H        2.8396270     1.3037350    -1.3040650
  H        3.1732700     2.5763490    -0.1082090
  H        1.5321020    -2.4670540    -0.6475950
  H        3.0150810    -1.5100200    -0.4652590
  H        2.6275220    -2.7764500     0.7187370
  H       -3.7600990     0.5807950     1.6744350
  H       -3.4644480     0.9408190    -0.0387940
  H       -3.4474850    -0.7394320     0.5291400
units angstrom
no_reorient  #important for SAPT in psi4, default
symmetry c1  #important for SAPT in psi4, default
}

set PROPERTIES_ORIGIN ["COM"]
properties('MP2/aug-cc-pvtz', properties = ['dipole'])
--------------------------------------------------------------------------

    Molecular point group: c1
  Charge       = 0
  Multiplicity = 1
  Basis Set: AUG-CC-PVTZ
    Blend: AUG-CC-PVTZ
  Basis Set: (AUG-CC-PVTZ AUX)
    Blend: AUG-CC-PVTZ-JKFIT

    Orbital Energies [Eh]
    ---------------------

    Doubly Occupied:

       1A    -92.194197     2A    -20.541748     3A    -20.541447
       4A    -15.596829     5A    -11.279076     6A    -11.277502
       7A    -11.275303     8A    -11.238484     9A    -11.226042
      10A    -11.218451    11A     -9.160068    12A     -6.845205
      13A     -6.844350    14A     -6.844268    15A     -1.448136
      16A     -1.329854    17A     -1.273994    18A     -1.080486
      19A     -1.045517    20A     -1.006461    21A     -0.920618
      22A     -0.874352    23A     -0.859976    24A     -0.774966
      25A     -0.729003    26A     -0.674673    27A     -0.670868
      28A     -0.655689    29A     -0.638763    30A     -0.613547
      31A     -0.607210    32A     -0.574929    33A     -0.573702
      34A     -0.551370    35A     -0.545305    36A     -0.539622
      37A     -0.528844    38A     -0.518649    39A     -0.508676
      40A     -0.493606    41A     -0.491604    42A     -0.487344
      43A     -0.460713    44A     -0.447541    45A     -0.391194

  @DF-RHF Final Energy:  -837.76617986122278

   => Energetics <=

    Nuclear Repulsion Energy =            745.6615950795119261
    One-Electron Energy =               -2630.0551828777784067
    Two-Electron Energy =                1046.6274079370436993
    Total Energy =                       -837.7661798612227813
  Basis Set: (AUG-CC-PVTZ AUX)
    Blend: AUG-CC-PVTZ-RI
    Molecular point group: c1

    Geometry (in Angstrom), charge = 0, multiplicity = 1:

       Center              X                  Y                   Z               Mass
    ------------   -----------------  -----------------  -----------------  -----------------
         S           -0.735406047028    -0.061304815615    -0.363100808287    31.972071174400
         O           -1.008119047028     0.938165184385    -1.398398808287    15.994914619570
         O           -0.964056047028    -1.489929815615    -0.596029808287    15.994914619570
         N            0.861429952972     0.090018184385     0.070940191713    14.003074004430
         C            1.349168752972     1.353084784385     0.258237491713    12.000000000000
         C            1.425691952972    -0.986604815615     0.905651191713    12.000000000000
         C           -1.694995047028     0.408296184385     1.078437191713    12.000000000000
         C            2.811684952972     1.560161184385    -0.241267808287    12.000000000000
         C            2.205050952972    -1.993022815615     0.076021191713    12.000000000000
         C           -3.186298047028     0.294587184385     0.791131191713    12.000000000000
         H            0.746778952972     2.130146184385    -0.287585808287     1.007825032230
         H            1.337820952972     1.722257184385     1.336627191713     1.007825032230
         H            2.066274952972    -0.512938815615     1.657521191713     1.007825032230
         H            0.626559952972    -1.503610815615     1.447255191713     1.007825032230
         H           -1.387556047028    -0.250935815615     1.894672191713     1.007825032230
         H           -1.406677047028     1.434062184385     1.325121191713     1.007825032230
         H            3.488728952972     0.890808184385     0.295049191713     1.007825032230
         H            2.842220952972     1.310452184385    -1.303068808287     1.007825032230
         H            3.175863952972     2.583066184385    -0.107212808287     1.007825032230
         H            1.534695952972    -2.460336815615    -0.646598808287     1.007825032230
         H            3.017674952972    -1.503302815615    -0.464262808287     1.007825032230
         H            2.630115952972    -2.769732815615     0.719733191713     1.007825032230
         H           -3.757505047028     0.587512184385     1.675431191713     1.007825032230
         H           -3.461854047028     0.947536184385    -0.037797808287     1.007825032230
         H           -3.444891047028    -0.732714815615     0.530136191713     1.007825032230

  Basis Set: AUG-CC-PVTZ
    Blend: AUG-CC-PVTZ
  Basis Set: (AUG-CC-PVTZ AUX)
    Blend: AUG-CC-PVTZ-JKFIT
	 Reference Energy          =    -837.7661798612227813 [Eh]
	 Singles Energy            =      -0.0000000000000000 [Eh]
	 Same-Spin Energy          =      -0.5176671102966226 [Eh]
	 Opposite-Spin Energy      =      -1.6704587999211289 [Eh]
	 Correlation Energy        =      -2.1881259102177513 [Eh]
	 Total Energy              =    -839.9543057714405450 [Eh]

	 ================> DF-SCS-MP2 Energies <==================
	-----------------------------------------------------------
	 SCS Same-Spin Scale       =       0.3333333333333333 [-]
	 SCS Opposite-Spin Scale   =       1.2000000000000000 [-]
	 SCS Same-Spin Energy      =      -0.1725557034322075 [Eh]
	 SCS Opposite-Spin Energy  =      -2.0045505599053546 [Eh]
	 SCS Correlation Energy    =      -2.1771062633375622 [Eh]
	 SCS Total Energy          =    -839.9432861245603590 [Eh]
	-----------------------------------------------------------

  Dipole Moment: [D]
     X:     1.3572      Y:     1.1700      Z:     4.2397     Total:     4.6028

*** Psi4 exiting successfully. Buy a developer a beer!
