                               Psi4 1.3.2 release

  ==> Input File <==

--------------------------------------------------------------------------
#psi4
#
memory 32 gb

molecule  {
0 1
  S       -0.7380000    -0.0680220    -0.3640970
  O       -1.0107130     0.9314480    -1.3993950
  O       -0.9666500    -1.4966470    -0.5970260
  N        0.9153127     0.0570085     0.1148516
  C        1.3822580     1.4387740     0.2709440
  C        1.4230980    -0.9933220     0.9046550
  C       -1.6975890     0.4015790     1.0774410
  C        2.8090910     1.5534440    -0.2422640
  C        2.2024570    -1.9997400     0.0750250
  C       -3.1888920     0.2878700     0.7901350
  H        0.7769577     2.1664765    -0.2703689
  H        1.3352270     1.7155400     1.3356310
  H        2.0636810    -0.5196560     1.6565250
  H        0.6239660    -1.5103280     1.4462590
  H       -1.3901500    -0.2576530     1.8936760
  H       -1.4092710     1.4273450     1.3241250
  H        3.4861350     0.8840910     0.2940530
  H        2.8396270     1.3037350    -1.3040650
  H        3.1732700     2.5763490    -0.1082090
  H        1.5321020    -2.4670540    -0.6475950
  H        3.0150810    -1.5100200    -0.4652590
  H        2.6275220    -2.7764500     0.7187370
  H       -3.7600990     0.5807950     1.6744350
  H       -3.4644480     0.9408190    -0.0387940
  H       -3.4474850    -0.7394320     0.5291400
units angstrom
no_reorient  #important for SAPT in psi4, default
symmetry c1  #important for SAPT in psi4, default
}

set PROPERTIES_ORIGIN ["COM"]
properties('MP2/aug-cc-pvtz', properties = ['dipole'])
--------------------------------------------------------------------------

    Molecular point group: c1
  Charge       = 0
  Multiplicity = 1
  Basis Set: AUG-CC-PVTZ
    Blend: AUG-CC-PVTZ
  Basis Set: (AUG-CC-PVTZ AUX)
    Blend: AUG-CC-PVTZ-JKFIT

    Orbital Energies [Eh]
    ---------------------

    Doubly Occupied:

       1A    -92.193472     2A    -20.545147     3A    -20.540842
       4A    -15.592524     5A    -11.278521     6A    -11.275879
       7A    -11.268932     8A    -11.239081     9A    -11.225933
      10A    -11.212340    11A     -9.159038    12A     -6.843922
      13A     -6.843273    14A     -6.843240    15A     -1.443558
      16A     -1.329951    17A     -1.253868    18A     -1.080642
      19A     -1.049275    20A     -1.000850    21A     -0.918794
      22A     -0.872145    23A     -0.850372    24A     -0.776778
      25A     -0.723184    26A     -0.671575    27A     -0.667659
      28A     -0.654407    29A     -0.642756    30A     -0.614470
      31A     -0.600748    32A     -0.579714    33A     -0.572439
      34A     -0.550931    35A     -0.542580    36A     -0.540006
      37A     -0.528001    38A     -0.519980    39A     -0.511477
      40A     -0.502314    41A     -0.491046    42A     -0.483823
      43A     -0.463238    44A     -0.441847    45A     -0.386868

  @DF-RHF Final Energy:  -837.76764116722461

   => Energetics <=

    Nuclear Repulsion Energy =            742.4234146417378497
    One-Electron Energy =               -2623.7272318888331029
    Two-Electron Energy =                1043.5361760798705291
    Total Energy =                       -837.7676411672246104
  Basis Set: (AUG-CC-PVTZ AUX)
    Blend: AUG-CC-PVTZ-RI
    Molecular point group: c1

    Geometry (in Angstrom), charge = 0, multiplicity = 1:

       Center              X                  Y                   Z               Mass
    ------------   -----------------  -----------------  -----------------  -----------------
         S           -0.742990594727    -0.066054477376    -0.368017339126    31.972071174400
         O           -1.015703594727     0.933415522624    -1.403315339126    15.994914619570
         O           -0.971640594727    -1.494679477376    -0.600946339126    15.994914619570
         N            0.910322105273     0.058976022624     0.110931260874    14.003074004430
         C            1.377267405273     1.440741522624     0.267023660874    12.000000000000
         C            1.418107405273    -0.991354477376     0.900734660874    12.000000000000
         C           -1.702579594727     0.403546522624     1.073520660874    12.000000000000
         C            2.804100405273     1.555411522624    -0.246184339126    12.000000000000
         C            2.197466405273    -1.997772477376     0.071104660874    12.000000000000
         C           -3.193882594727     0.289837522624     0.786214660874    12.000000000000
         H            0.771967105273     2.168444022624    -0.274289239126     1.007825032230
         H            1.330236405273     1.717507522624     1.331710660874     1.007825032230
         H            2.058690405273    -0.517688477376     1.652604660874     1.007825032230
         H            0.618975405273    -1.508360477376     1.442338660874     1.007825032230
         H           -1.395140594727    -0.255685477376     1.889755660874     1.007825032230
         H           -1.414261594727     1.429312522624     1.320204660874     1.007825032230
         H            3.481144405273     0.886058522624     0.290132660874     1.007825032230
         H            2.834636405273     1.305702522624    -1.307985339126     1.007825032230
         H            3.168279405273     2.578316522624    -0.112129339126     1.007825032230
         H            1.527111405273    -2.465086477376    -0.651515339126     1.007825032230
         H            3.010090405273    -1.508052477376    -0.469179339126     1.007825032230
         H            2.622531405273    -2.774482477376     0.714816660874     1.007825032230
         H           -3.765089594727     0.582762522624     1.670514660874     1.007825032230
         H           -3.469438594727     0.942786522624    -0.042714339126     1.007825032230
         H           -3.452475594727    -0.737464477376     0.525219660874     1.007825032230

  Basis Set: AUG-CC-PVTZ
    Blend: AUG-CC-PVTZ
  Basis Set: (AUG-CC-PVTZ AUX)
    Blend: AUG-CC-PVTZ-JKFIT
	 Reference Energy          =    -837.7676411672246104 [Eh]
	 Singles Energy            =      -0.0000000000000000 [Eh]
	 Same-Spin Energy          =      -0.5176826823379920 [Eh]
	 Opposite-Spin Energy      =      -1.6712948927596516 [Eh]
	 Correlation Energy        =      -2.1889775750976437 [Eh]
	 Total Energy              =    -839.9566187423222345 [Eh]

	 ================> DF-SCS-MP2 Energies <==================
	-----------------------------------------------------------
	 SCS Same-Spin Scale       =       0.3333333333333333 [-]
	 SCS Opposite-Spin Scale   =       1.2000000000000000 [-]
	 SCS Same-Spin Energy      =      -0.1725608941126640 [Eh]
	 SCS Opposite-Spin Energy  =      -2.0055538713115819 [Eh]
	 SCS Correlation Energy    =      -2.1781147654242461 [Eh]
	 SCS Total Energy          =    -839.9457559326488081 [Eh]
	-----------------------------------------------------------

  Dipole Moment: [D]
     X:     1.2045      Y:     1.5793      Z:     4.1747     Total:     4.6231

*** Psi4 exiting successfully. Buy a developer a beer!
