                               Psi4 1.3.2 release

  ==> Input File <==

--------------------------------------------------------------------------
#psi4
#
memory 32 gb

molecule  {
0 1
  S       -0.7312730    -0.1256257    -0.3648877
  O       -1.0107130     0.9314480    -1.3993950
  O       -0.9666500    -1.4966470    -0.5970260
  N        0.8588360     0.0833010     0.0699440
  C        1.4278985     1.4185071     0.2822438
  C        1.4230980    -0.9933220     0.9046550
  C       -1.6975890     0.4015790     1.0774410
  C        2.8090910     1.5534440    -0.2422640
  C        2.2024570    -1.9997400     0.0750250
  C       -3.1888920     0.2878700     0.7901350
  H        0.7441850     2.1234290    -0.2885820
  H        1.3352270     1.7155400     1.3356310
  H        2.0636810    -0.5196560     1.6565250
  H        0.6239660    -1.5103280     1.4462590
  H       -1.3901500    -0.2576530     1.8936760
  H       -1.4092710     1.4273450     1.3241250
  H        3.4861350     0.8840910     0.2940530
  H        2.8396270     1.3037350    -1.3040650
  H        3.1732700     2.5763490    -0.1082090
  H        1.5321020    -2.4670540    -0.6475950
  H        3.0150810    -1.5100200    -0.4652590
  H        2.6275220    -2.7764500     0.7187370
  H       -3.7600990     0.5807950     1.6744350
  H       -3.4644480     0.9408190    -0.0387940
  H       -3.4474850    -0.7394320     0.5291400
units angstrom
no_reorient  #important for SAPT in psi4, default
symmetry c1  #important for SAPT in psi4, default
}

set PROPERTIES_ORIGIN ["COM"]
properties('MP2/aug-cc-pvtz', properties = ['dipole'])
--------------------------------------------------------------------------

    Molecular point group: c1
  Charge       = 0
  Multiplicity = 1
  Basis Set: AUG-CC-PVTZ
    Blend: AUG-CC-PVTZ
  Basis Set: (AUG-CC-PVTZ AUX)
    Blend: AUG-CC-PVTZ-JKFIT

    Orbital Energies [Eh]
    ---------------------

    Doubly Occupied:

       1A    -92.190673     2A    -20.552793     3A    -20.528795
       4A    -15.592253     5A    -11.277202     6A    -11.275625
       7A    -11.273528     8A    -11.235030     9A    -11.226353
      10A    -11.217778    11A     -9.156633    12A     -6.841773
      13A     -6.841213    14A     -6.840662    15A     -1.460617
      16A     -1.324333    17A     -1.248211    18A     -1.073527
      19A     -1.050112    20A     -1.012658    21A     -0.913345
      22A     -0.867172    23A     -0.857545    24A     -0.773471
      25A     -0.720796    26A     -0.674981    27A     -0.668429
      28A     -0.650953    29A     -0.638264    30A     -0.614983
      31A     -0.599922    32A     -0.584559    33A     -0.571157
      34A     -0.551486    35A     -0.549047    36A     -0.540560
      37A     -0.525306    38A     -0.521516    39A     -0.514971
      40A     -0.492955    41A     -0.489392    42A     -0.485306
      43A     -0.457039    44A     -0.440997    45A     -0.395420

  @DF-RHF Final Energy:  -837.76804770825424

   => Energetics <=

    Nuclear Repulsion Energy =            743.6385069416851366
    One-Electron Energy =               -2626.1744271908914925
    Two-Electron Energy =                1044.7678725409521121
    Total Energy =                       -837.7680477082542438
  Basis Set: (AUG-CC-PVTZ AUX)
    Blend: AUG-CC-PVTZ-RI
    Molecular point group: c1

    Geometry (in Angstrom), charge = 0, multiplicity = 1:

       Center              X                  Y                   Z               Mass
    ------------   -----------------  -----------------  -----------------  -----------------
         S           -0.735893388982    -0.112996099194    -0.365555827237    31.972071174400
         O           -1.015333388982     0.944077600806    -1.400063127237    15.994914619570
         O           -0.971270388982    -1.484017399194    -0.597694127237    15.994914619570
         N            0.854215611018     0.095930600806     0.069275872763    14.003074004430
         C            1.423278111018     1.431136700806     0.281575672763    12.000000000000
         C            1.418477611018    -0.980692399194     0.903986872763    12.000000000000
         C           -1.702209388982     0.414208600806     1.076772872763    12.000000000000
         C            2.804470611018     1.566073600806    -0.242932127237    12.000000000000
         C            2.197836611018    -1.987110399194     0.074356872763    12.000000000000
         C           -3.193512388982     0.300499600806     0.789466872763    12.000000000000
         H            0.739564611018     2.136058600806    -0.289250127237     1.007825032230
         H            1.330606611018     1.728169600806     1.334962872763     1.007825032230
         H            2.059060611018    -0.507026399194     1.655856872763     1.007825032230
         H            0.619345611018    -1.497698399194     1.445590872763     1.007825032230
         H           -1.394770388982    -0.245023399194     1.893007872763     1.007825032230
         H           -1.413891388982     1.439974600806     1.323456872763     1.007825032230
         H            3.481514611018     0.896720600806     0.293384872763     1.007825032230
         H            2.835006611018     1.316364600806    -1.304733127237     1.007825032230
         H            3.168649611018     2.588978600806    -0.108877127237     1.007825032230
         H            1.527481611018    -2.454424399194    -0.648263127237     1.007825032230
         H            3.010460611018    -1.497390399194    -0.465927127237     1.007825032230
         H            2.622901611018    -2.763820399194     0.718068872763     1.007825032230
         H           -3.764719388982     0.593424600806     1.673766872763     1.007825032230
         H           -3.469068388982     0.953448600806    -0.039462127237     1.007825032230
         H           -3.452105388982    -0.726802399194     0.528471872763     1.007825032230

  Basis Set: AUG-CC-PVTZ
    Blend: AUG-CC-PVTZ
  Basis Set: (AUG-CC-PVTZ AUX)
    Blend: AUG-CC-PVTZ-JKFIT
	 Reference Energy          =    -837.7680477082542438 [Eh]
	 Singles Energy            =      -0.0000000000000000 [Eh]
	 Same-Spin Energy          =      -0.5168058178217232 [Eh]
	 Opposite-Spin Energy      =      -1.6697948382979164 [Eh]
	 Correlation Energy        =      -2.1866006561196398 [Eh]
	 Total Energy              =    -839.9546483643738384 [Eh]

	 ================> DF-SCS-MP2 Energies <==================
	-----------------------------------------------------------
	 SCS Same-Spin Scale       =       0.3333333333333333 [-]
	 SCS Opposite-Spin Scale   =       1.2000000000000000 [-]
	 SCS Same-Spin Energy      =      -0.1722686059405744 [Eh]
	 SCS Opposite-Spin Energy  =      -2.0037538059574995 [Eh]
	 SCS Correlation Energy    =      -2.1760224118980740 [Eh]
	 SCS Total Energy          =    -839.9440701201523325 [Eh]
	-----------------------------------------------------------

  Dipole Moment: [D]
     X:     1.6827      Y:     0.9771      Z:     4.3194     Total:     4.7375

*** Psi4 exiting successfully. Buy a developer a beer!
