                               Psi4 1.3.2 release

  ==> Input File <==

--------------------------------------------------------------------------
#psi4
#
memory 32 gb

molecule  {
0 1
  S       -0.7380000    -0.0680220    -0.3640970
  O       -1.0107130     0.9314480    -1.3993950
  O       -0.9666500    -1.4966470    -0.5970260
  N        0.8403217     0.0928946     0.0550912
  C        1.3822580     1.4387740     0.2709440
  C        1.4230980    -0.9933220     0.9046550
  C       -1.6975890     0.4015790     1.0774410
  C        2.8090910     1.5534440    -0.2422640
  C        2.2024570    -1.9997400     0.0750250
  C       -3.1888920     0.2878700     0.7901350
  H        0.7336451     2.1086568    -0.2943146
  H        1.3352270     1.7155400     1.3356310
  H        2.0636810    -0.5196560     1.6565250
  H        0.6239660    -1.5103280     1.4462590
  H       -1.3901500    -0.2576530     1.8936760
  H       -1.4092710     1.4273450     1.3241250
  H        3.4861350     0.8840910     0.2940530
  H        2.8396270     1.3037350    -1.3040650
  H        3.1732700     2.5763490    -0.1082090
  H        1.5321020    -2.4670540    -0.6475950
  H        3.0150810    -1.5100200    -0.4652590
  H        2.6275220    -2.7764500     0.7187370
  H       -3.7600990     0.5807950     1.6744350
  H       -3.4644480     0.9408190    -0.0387940
  H       -3.4474850    -0.7394320     0.5291400
units angstrom
no_reorient  #important for SAPT in psi4, default
symmetry c1  #important for SAPT in psi4, default
}

set PROPERTIES_ORIGIN ["COM"]
properties('MP2/aug-cc-pvtz', properties = ['dipole'])
--------------------------------------------------------------------------

    Molecular point group: c1
  Charge       = 0
  Multiplicity = 1
  Basis Set: AUG-CC-PVTZ
    Blend: AUG-CC-PVTZ
  Basis Set: (AUG-CC-PVTZ AUX)
    Blend: AUG-CC-PVTZ-JKFIT

    Orbital Energies [Eh]
    ---------------------

    Doubly Occupied:

       1A    -92.189593     2A    -20.537970     3A    -20.536664
       4A    -15.593703     5A    -11.278604     6A    -11.276864
       7A    -11.274390     8A    -11.236043     9A    -11.228670
      10A    -11.217580    11A     -9.155408    12A     -6.840583
      13A     -6.839776    14A     -6.839672    15A     -1.444216
      16A     -1.326082    17A     -1.248262    18A     -1.077490
      19A     -1.045762    20A     -1.013233    21A     -0.915168
      22A     -0.869444    23A     -0.859589    24A     -0.773357
      25A     -0.719477    26A     -0.670972    27A     -0.667528
      28A     -0.651862    29A     -0.640352    30A     -0.611318
      31A     -0.599549    32A     -0.576785    33A     -0.572169
      34A     -0.549622    35A     -0.545399    36A     -0.540400
      37A     -0.526634    38A     -0.519589    39A     -0.512177
      40A     -0.495989    41A     -0.489361    42A     -0.485285
      43A     -0.459329    44A     -0.446636    45A     -0.398537

  @DF-RHF Final Energy:  -837.77681042435938

   => Energetics <=

    Nuclear Repulsion Energy =            743.8903326829918115
    One-Electron Energy =               -2626.7401054760944135
    Two-Electron Energy =                1045.0729623687432195
    Total Energy =                       -837.7768104243593825
  Basis Set: (AUG-CC-PVTZ AUX)
    Blend: AUG-CC-PVTZ-RI
    Molecular point group: c1

    Geometry (in Angstrom), charge = 0, multiplicity = 1:

       Center              X                  Y                   Z               Mass
    ------------   -----------------  -----------------  -----------------  -----------------
         S           -0.736365076943    -0.068745519594    -0.362801988241    31.972071174400
         O           -1.009078076943     0.930724480406    -1.398099988241    15.994914619570
         O           -0.965015076943    -1.497370519594    -0.595730988241    15.994914619570
         N            0.841956623057     0.092171080406     0.056386211759    14.003074004430
         C            1.383892923057     1.438050480406     0.272239011759    12.000000000000
         C            1.424732923057    -0.994045519594     0.905950011759    12.000000000000
         C           -1.695954076943     0.400855480406     1.078736011759    12.000000000000
         C            2.810725923057     1.552720480406    -0.240968988241    12.000000000000
         C            2.204091923057    -2.000463519594     0.076320011759    12.000000000000
         C           -3.187257076943     0.287146480406     0.791430011759    12.000000000000
         H            0.735280023057     2.107933280406    -0.293019588241     1.007825032230
         H            1.336861923057     1.714816480406     1.336926011759     1.007825032230
         H            2.065315923057    -0.520379519594     1.657820011759     1.007825032230
         H            0.625600923057    -1.511051519594     1.447554011759     1.007825032230
         H           -1.388515076943    -0.258376519594     1.894971011759     1.007825032230
         H           -1.407636076943     1.426621480406     1.325420011759     1.007825032230
         H            3.487769923057     0.883367480406     0.295348011759     1.007825032230
         H            2.841261923057     1.303011480406    -1.302769988241     1.007825032230
         H            3.174904923057     2.575625480406    -0.106913988241     1.007825032230
         H            1.533736923057    -2.467777519594    -0.646299988241     1.007825032230
         H            3.016715923057    -1.510743519594    -0.463963988241     1.007825032230
         H            2.629156923057    -2.777173519594     0.720032011759     1.007825032230
         H           -3.758464076943     0.580071480406     1.675730011759     1.007825032230
         H           -3.462813076943     0.940095480406    -0.037498988241     1.007825032230
         H           -3.445850076943    -0.740155519594     0.530435011759     1.007825032230

  Basis Set: AUG-CC-PVTZ
    Blend: AUG-CC-PVTZ
  Basis Set: (AUG-CC-PVTZ AUX)
    Blend: AUG-CC-PVTZ-JKFIT
	 Reference Energy          =    -837.7768104243593825 [Eh]
	 Singles Energy            =      -0.0000000000000000 [Eh]
	 Same-Spin Energy          =      -0.5166023606588380 [Eh]
	 Opposite-Spin Energy      =      -1.6694281210310633 [Eh]
	 Correlation Energy        =      -2.1860304816899014 [Eh]
	 Total Energy              =    -839.9628409060493368 [Eh]

	 ================> DF-SCS-MP2 Energies <==================
	-----------------------------------------------------------
	 SCS Same-Spin Scale       =       0.3333333333333333 [-]
	 SCS Opposite-Spin Scale   =       1.2000000000000000 [-]
	 SCS Same-Spin Energy      =      -0.1722007868862793 [Eh]
	 SCS Opposite-Spin Energy  =      -2.0033137452372758 [Eh]
	 SCS Correlation Energy    =      -2.1755145321235552 [Eh]
	 SCS Total Energy          =    -839.9523249564829257 [Eh]
	-----------------------------------------------------------

  Dipole Moment: [D]
     X:     1.7219      Y:     1.3957      Z:     4.3585     Total:     4.8898

*** Psi4 exiting successfully. Buy a developer a beer!
