                               Psi4 1.4a3.dev225

  ==> Input File <==

--------------------------------------------------------------------------
#psi4
#
memory 32 gb

molecule  {
0 1
  S        0.7616280     0.0424770    -0.4366460
  O        1.0057100    -1.0742430    -1.3855102
  O        0.9495440     1.4436620    -0.8249950
  N       -0.8076120    -0.0882160     0.0931460
  C       -1.3185710    -1.4233650     0.4283730
  C       -1.3686840     1.0652840     0.8208400
  C        1.8058710    -0.2545270     0.9952940
  C       -2.7505920    -1.6006810    -0.0558370
  C       -2.1814690     1.9714470    -0.0911900
  C        3.2787560    -0.1326200     0.6229570
  H       -0.6761480    -2.1530350    -0.0688350
  H       -1.2569730    -1.5943860     1.5141500
  H       -1.9866060     0.6632120     1.6319710
  H       -0.5646970     1.6429440     1.2905320
  H        1.5186250     0.4781900     1.7554980
  H        1.5601880    -1.2573080     1.3582850
  H       -3.4295210    -0.8918450     0.4253230
  H       -2.7963610    -1.4499180    -1.1363750
  H       -3.1014500    -2.6111540     0.1760480
  H       -1.5338360     2.3728670    -0.8718090
  H       -2.9953600     1.4152720    -0.5615490
  H       -2.6084920     2.8033720     0.4789350
  H        3.8991710    -0.3169240     1.5035790
  H        3.5375790    -0.8611900    -0.1476860
  H        3.4935140     0.8689240     0.2454810
units angstrom
no_reorient  #important for SAPT in psi4, default
symmetry c1  #important for SAPT in psi4, default
}

set PROPERTIES_ORIGIN ["COM"]
properties('MP2/aug-cc-pvtz', properties = ['dipole'])
--------------------------------------------------------------------------

    Molecular point group: c1
  Charge       = 0
  Multiplicity = 1
  Basis Set: AUG-CC-PVTZ
    Blend: AUG-CC-PVTZ
  Basis Set: (AUG-CC-PVTZ AUX)
    Blend: AUG-CC-PVTZ-JKFIT

    Orbital Energies [Eh]
    ---------------------

    Doubly Occupied:

       1A    -92.192891     2A    -20.540424     3A    -20.538702
       4A    -15.594148     5A    -11.277136     6A    -11.276937
       7A    -11.276736     8A    -11.237189     9A    -11.227959
      10A    -11.216593    11A     -9.158153    12A     -6.843252
      13A     -6.842475    14A     -6.842315    15A     -1.437949
      16A     -1.321697    17A     -1.247852    18A     -1.077900
      19A     -1.045920    20A     -1.009897    21A     -0.916483
      22A     -0.869967    23A     -0.857746    24A     -0.774476
      25A     -0.718987    26A     -0.670126    27A     -0.665954
      28A     -0.651099    29A     -0.639623    30A     -0.609982
      31A     -0.599451    32A     -0.577609    33A     -0.571581
      34A     -0.549359    35A     -0.544209    36A     -0.540476
      37A     -0.526571    38A     -0.519440    39A     -0.512516
      40A     -0.497513    41A     -0.487194    42A     -0.484653
      43A     -0.458795    44A     -0.445160    45A     -0.395099

  @DF-RHF Final Energy:  -837.77401698362326

   => Energetics <=

    Nuclear Repulsion Energy =            741.8308569862593913
    One-Electron Energy =               -2622.6293622387197502
    Two-Electron Energy =                1043.0244882688371035
    Total Energy =                       -837.7740169836233690
  Basis Set: (AUG-CC-PVTZ AUX)
    Blend: AUG-CC-PVTZ-RI
    Molecular point group: c1

    Geometry (in Angstrom), charge = 0, multiplicity = 1:

       Center              X                  Y                   Z               Mass
    ------------   -----------------  -----------------  -----------------  -----------------
         S            0.719800686421     0.038599463027    -0.389913100658    31.972071174400
         O            0.963882686421    -1.078120536973    -1.338777300658    15.994914619570
         O            0.907716686421     1.439784463027    -0.778262100658    15.994914619570
         N           -0.849439313579    -0.092093536973     0.139878899342    14.003074004430
         C           -1.360398313579    -1.427242536973     0.475105899342    12.000000000000
         C           -1.410511313579     1.061406463027     0.867572899342    12.000000000000
         C            1.764043686421    -0.258404536973     1.042026899342    12.000000000000
         C           -2.792419313579    -1.604558536973    -0.009104100658    12.000000000000
         C           -2.223296313579     1.967569463027    -0.044457100658    12.000000000000
         C            3.236928686421    -0.136497536973     0.669689899342    12.000000000000
         H           -0.717975313579    -2.156912536973    -0.022102100658     1.007825032230
         H           -1.298800313579    -1.598263536973     1.560882899342     1.007825032230
         H           -2.028433313579     0.659334463027     1.678703899342     1.007825032230
         H           -0.606524313579     1.639066463027     1.337264899342     1.007825032230
         H            1.476797686421     0.474312463027     1.802230899342     1.007825032230
         H            1.518360686421    -1.261185536973     1.405017899342     1.007825032230
         H           -3.471348313579    -0.895722536973     0.472055899342     1.007825032230
         H           -2.838188313579    -1.453795536973    -1.089642100658     1.007825032230
         H           -3.143277313579    -2.615031536973     0.222780899342     1.007825032230
         H           -1.575663313579     2.368989463027    -0.825076100658     1.007825032230
         H           -3.037187313579     1.411394463027    -0.514816100658     1.007825032230
         H           -2.650319313579     2.799494463027     0.525667899342     1.007825032230
         H            3.857343686421    -0.320801536973     1.550311899342     1.007825032230
         H            3.495751686421    -0.865067536973    -0.100953100658     1.007825032230
         H            3.451686686421     0.865046463027     0.292213899342     1.007825032230

  Basis Set: AUG-CC-PVTZ
    Blend: AUG-CC-PVTZ
  Basis Set: (AUG-CC-PVTZ AUX)
    Blend: AUG-CC-PVTZ-JKFIT
	 Reference Energy          =    -837.7740169836232553 [Eh]
	 Singles Energy            =      -0.0000000000000000 [Eh]
	 Same-Spin Energy          =      -0.5170693717562486 [Eh]
	 Opposite-Spin Energy      =      -1.6707733615624529 [Eh]
	 Correlation Energy        =      -2.1878427333187016 [Eh]
	 Total Energy              =    -839.9618597169419445 [Eh]

	 ================> DF-SCS-MP2 Energies <==================
	-----------------------------------------------------------
	 SCS Same-Spin Scale       =       0.3333333333333333 [-]
	 SCS Opposite-Spin Scale   =       1.2000000000000000 [-]
	 SCS Same-Spin Energy      =      -0.1723564572520828 [Eh]
	 SCS Opposite-Spin Energy  =      -2.0049280338749433 [Eh]
	 SCS Correlation Energy    =      -2.1772844911270264 [Eh]
	 SCS Total Energy          =    -839.9513014747502666 [Eh]
	-----------------------------------------------------------

  Dipole Moment: [D]
     X:    -1.4031      Y:    -0.9176      Z:     4.5277     Total:     4.8282

*** Psi4 exiting successfully. Buy a developer a beer!
