                               Psi4 1.4a3.dev225

  ==> Input File <==

--------------------------------------------------------------------------
#psi4
#
memory 32 gb

molecule  {
0 1
  S        0.7616280     0.0424770    -0.4366460
  O        1.0024240    -1.0592090    -1.3727360
  O        0.9495440     1.4436620    -0.8249950
  N       -0.8076120    -0.0882160     0.0931460
  C       -1.3185710    -1.4233650     0.4283730
  C       -1.3686840     1.0652840     0.8208400
  C        1.7942487    -0.2512214     0.9793567
  C       -2.7505920    -1.6006810    -0.0558370
  C       -2.1814690     1.9714470    -0.0911900
  C        3.2787560    -0.1326200     0.6229570
  H       -0.6761480    -2.1530350    -0.0688350
  H       -1.2569730    -1.5943860     1.5141500
  H       -1.9866060     0.6632120     1.6319710
  H       -0.5646970     1.6429440     1.2905320
  H        1.5186250     0.4781900     1.7554980
  H        1.5601880    -1.2573080     1.3582850
  H       -3.4295210    -0.8918450     0.4253230
  H       -2.7963610    -1.4499180    -1.1363750
  H       -3.1014500    -2.6111540     0.1760480
  H       -1.5338360     2.3728670    -0.8718090
  H       -2.9953600     1.4152720    -0.5615490
  H       -2.6084920     2.8033720     0.4789350
  H        3.8991710    -0.3169240     1.5035790
  H        3.5375790    -0.8611900    -0.1476860
  H        3.4935140     0.8689240     0.2454810
units angstrom
no_reorient  #important for SAPT in psi4, default
symmetry c1  #important for SAPT in psi4, default
}

set PROPERTIES_ORIGIN ["COM"]
properties('MP2/aug-cc-pvtz', properties = ['dipole'])
--------------------------------------------------------------------------

    Molecular point group: c1
  Charge       = 0
  Multiplicity = 1
  Basis Set: AUG-CC-PVTZ
    Blend: AUG-CC-PVTZ
  Basis Set: (AUG-CC-PVTZ AUX)
    Blend: AUG-CC-PVTZ-JKFIT

    Orbital Energies [Eh]
    ---------------------

    Doubly Occupied:

       1A    -92.191794     2A    -20.539113     3A    -20.538908
       4A    -15.593021     5A    -11.276748     6A    -11.276393
       7A    -11.275447     8A    -11.237490     9A    -11.227830
      10A    -11.216125    11A     -9.157394    12A     -6.842510
      13A     -6.841757    14A     -6.841712    15A     -1.444005
      16A     -1.327255    17A     -1.247649    18A     -1.077541
      19A     -1.045537    20A     -1.009271    21A     -0.917322
      22A     -0.869582    23A     -0.857041    24A     -0.773475
      25A     -0.720293    26A     -0.671131    27A     -0.667004
      28A     -0.649793    29A     -0.639586    30A     -0.611351
      31A     -0.599457    32A     -0.577764    33A     -0.572156
      34A     -0.548626    35A     -0.543510    36A     -0.538201
      37A     -0.525747    38A     -0.519202    39A     -0.512172
      40A     -0.497366    41A     -0.489465    42A     -0.485989
      43A     -0.460399    44A     -0.447253    45A     -0.395323

  @DF-RHF Final Energy:  -837.77622541632013

   => Energetics <=

    Nuclear Repulsion Energy =            743.2949840840891511
    One-Electron Energy =               -2625.5490049069271663
    Two-Electron Energy =                1044.4777954065177710
    Total Energy =                       -837.7762254163201305
  Basis Set: (AUG-CC-PVTZ AUX)
    Blend: AUG-CC-PVTZ-RI
    Molecular point group: c1

    Geometry (in Angstrom), charge = 0, multiplicity = 1:

       Center              X                  Y                   Z               Mass
    ------------   -----------------  -----------------  -----------------  -----------------
         S            0.720963905200     0.036902523611    -0.389992301362    31.972071174400
         O            0.961759905200    -1.064783476389    -1.326082301362    15.994914619570
         O            0.908879905200     1.438087523611    -0.778341301362    15.994914619570
         N           -0.848276094800    -0.093790476389     0.139799698638    14.003074004430
         C           -1.359235094800    -1.428939476389     0.475026698638    12.000000000000
         C           -1.409348094800     1.059709523611     0.867493698638    12.000000000000
         C            1.753584605200    -0.256795876389     1.026010398638    12.000000000000
         C           -2.791256094800    -1.606255476389    -0.009183301362    12.000000000000
         C           -2.222133094800     1.965872523611    -0.044536301362    12.000000000000
         C            3.238091905200    -0.138194476389     0.669610698638    12.000000000000
         H           -0.716812094800    -2.158609476389    -0.022181301362     1.007825032230
         H           -1.297637094800    -1.599960476389     1.560803698638     1.007825032230
         H           -2.027270094800     0.657637523611     1.678624698638     1.007825032230
         H           -0.605361094800     1.637369523611     1.337185698638     1.007825032230
         H            1.477960905200     0.472615523611     1.802151698638     1.007825032230
         H            1.519523905200    -1.262882476389     1.404938698638     1.007825032230
         H           -3.470185094800    -0.897419476389     0.471976698638     1.007825032230
         H           -2.837025094800    -1.455492476389    -1.089721301362     1.007825032230
         H           -3.142114094800    -2.616728476389     0.222701698638     1.007825032230
         H           -1.574500094800     2.367292523611    -0.825155301362     1.007825032230
         H           -3.036024094800     1.409697523611    -0.514895301362     1.007825032230
         H           -2.649156094800     2.797797523611     0.525588698638     1.007825032230
         H            3.858506905200    -0.322498476389     1.550232698638     1.007825032230
         H            3.496914905200    -0.866764476389    -0.101032301362     1.007825032230
         H            3.452849905200     0.863349523611     0.292134698638     1.007825032230

  Basis Set: AUG-CC-PVTZ
    Blend: AUG-CC-PVTZ
  Basis Set: (AUG-CC-PVTZ AUX)
    Blend: AUG-CC-PVTZ-JKFIT
	 Reference Energy          =    -837.7762254163201305 [Eh]
	 Singles Energy            =      -0.0000000000000000 [Eh]
	 Same-Spin Energy          =      -0.5166990892630638 [Eh]
	 Opposite-Spin Energy      =      -1.6697287302113504 [Eh]
	 Correlation Energy        =      -2.1864278194744142 [Eh]
	 Total Energy              =    -839.9626532357945052 [Eh]

	 ================> DF-SCS-MP2 Energies <==================
	-----------------------------------------------------------
	 SCS Same-Spin Scale       =       0.3333333333333333 [-]
	 SCS Opposite-Spin Scale   =       1.2000000000000000 [-]
	 SCS Same-Spin Energy      =      -0.1722330297543546 [Eh]
	 SCS Opposite-Spin Energy  =      -2.0036744762536203 [Eh]
	 SCS Correlation Energy    =      -2.1759075060079747 [Eh]
	 SCS Total Energy          =    -839.9521329223281327 [Eh]
	-----------------------------------------------------------

  Dipole Moment: [D]
     X:    -1.3680      Y:    -0.9954      Z:     4.4663     Total:     4.7760

*** Psi4 exiting successfully. Buy a developer a beer!
