                               Psi4 1.3.2 release

  ==> Input File <==

--------------------------------------------------------------------------
#psi4
#
memory 32 gb

molecule  {
0 1
  S       -0.7380000    -0.0680220    -0.3640970
  O       -1.0107130     0.9314480    -1.3993950
  O       -0.9666500    -1.4966470    -0.5970260
  N        0.8588360     0.0833010     0.0699440
  C        1.4288523     1.4105771     0.3250874
  C        1.4686720    -0.9407444     0.9380927
  C       -1.6975890     0.4015790     1.0774410
  C        2.8090910     1.5534440    -0.2422640
  C        2.2024570    -1.9997400     0.0750250
  C       -3.1888920     0.2878700     0.7901350
  H        0.7441850     2.1234290    -0.2885820
  H        1.3352270     1.7155400     1.3356310
  H        2.0636810    -0.5196560     1.6565250
  H        0.6239660    -1.5103280     1.4462590
  H       -1.3901500    -0.2576530     1.8936760
  H       -1.4092710     1.4273450     1.3241250
  H        3.4861350     0.8840910     0.2940530
  H        2.8396270     1.3037350    -1.3040650
  H        3.1732700     2.5763490    -0.1082090
  H        1.5321020    -2.4670540    -0.6475950
  H        3.0150810    -1.5100200    -0.4652590
  H        2.6275220    -2.7764500     0.7187370
  H       -3.7600990     0.5807950     1.6744350
  H       -3.4644480     0.9408190    -0.0387940
  H       -3.4474850    -0.7394320     0.5291400
units angstrom
no_reorient  #important for SAPT in psi4, default
symmetry c1  #important for SAPT in psi4, default
}

set PROPERTIES_ORIGIN ["COM"]
properties('MP2/aug-cc-pvtz', properties = ['dipole'])
--------------------------------------------------------------------------

    Molecular point group: c1
  Charge       = 0
  Multiplicity = 1
  Basis Set: AUG-CC-PVTZ
    Blend: AUG-CC-PVTZ
  Basis Set: (AUG-CC-PVTZ AUX)
    Blend: AUG-CC-PVTZ-JKFIT

    Orbital Energies [Eh]
    ---------------------

    Doubly Occupied:

       1A    -92.193076     2A    -20.540192     3A    -20.539973
       4A    -15.593089     5A    -11.276525     6A    -11.275581
       7A    -11.273870     8A    -11.236931     9A    -11.227847
      10A    -11.217120    11A     -9.158470    12A     -6.843635
      13A     -6.842798    14A     -6.842736    15A     -1.444420
      16A     -1.327744    17A     -1.250117    18A     -1.078688
      19A     -1.044022    20A     -1.010169    21A     -0.917216
      22A     -0.867523    23A     -0.861902    24A     -0.776897
      25A     -0.716571    26A     -0.676888    27A     -0.668469
      28A     -0.654348    29A     -0.640702    30A     -0.613793
      31A     -0.594043    32A     -0.580299    33A     -0.572943
      34A     -0.550944    35A     -0.544145    36A     -0.536620
      37A     -0.529258    38A     -0.525768    39A     -0.506850
      40A     -0.492095    41A     -0.487240    42A     -0.479502
      43A     -0.459336    44A     -0.449557    45A     -0.395165

  @DF-RHF Final Energy:  -837.76141601205381

   => Energetics <=

    Nuclear Repulsion Energy =            742.8922940410702722
    One-Electron Energy =               -2624.6772750937916499
    Two-Electron Energy =                1044.0235650406675632
    Total Energy =                       -837.7614160120538145
  Basis Set: (AUG-CC-PVTZ AUX)
    Blend: AUG-CC-PVTZ-RI
    Molecular point group: c1

    Geometry (in Angstrom), charge = 0, multiplicity = 1:

       Center              X                  Y                   Z               Mass
    ------------   -----------------  -----------------  -----------------  -----------------
         S           -0.744699699565    -0.069794185925    -0.370463228320    31.972071174400
         O           -1.017412699565     0.929675814075    -1.405761228320    15.994914619570
         O           -0.973349699565    -1.498419185925    -0.603392228320    15.994914619570
         N            0.852136300435     0.081528814075     0.063577771680    14.003074004430
         C            1.422152600435     1.408804914075     0.318721171680    12.000000000000
         C            1.461972300435    -0.942516585925     0.931726471680    12.000000000000
         C           -1.704288699565     0.399806814075     1.071074771680    12.000000000000
         C            2.802391300435     1.551671814075    -0.248630228320    12.000000000000
         C            2.195757300435    -2.001512185925     0.068658771680    12.000000000000
         C           -3.195591699565     0.286097814075     0.783768771680    12.000000000000
         H            0.737485300435     2.121656814075    -0.294948228320     1.007825032230
         H            1.328527300435     1.713767814075     1.329264771680     1.007825032230
         H            2.056981300435    -0.521428185925     1.650158771680     1.007825032230
         H            0.617266300435    -1.512100185925     1.439892771680     1.007825032230
         H           -1.396849699565    -0.259425185925     1.887309771680     1.007825032230
         H           -1.415970699565     1.425572814075     1.317758771680     1.007825032230
         H            3.479435300435     0.882318814075     0.287686771680     1.007825032230
         H            2.832927300435     1.301962814075    -1.310431228320     1.007825032230
         H            3.166570300435     2.574576814075    -0.114575228320     1.007825032230
         H            1.525402300435    -2.468826185925    -0.653961228320     1.007825032230
         H            3.008381300435    -1.511792185925    -0.471625228320     1.007825032230
         H            2.620822300435    -2.778222185925     0.712370771680     1.007825032230
         H           -3.766798699565     0.579022814075     1.668068771680     1.007825032230
         H           -3.471147699565     0.939046814075    -0.045160228320     1.007825032230
         H           -3.454184699565    -0.741204185925     0.522773771680     1.007825032230

  Basis Set: AUG-CC-PVTZ
    Blend: AUG-CC-PVTZ
  Basis Set: (AUG-CC-PVTZ AUX)
    Blend: AUG-CC-PVTZ-JKFIT
	 Reference Energy          =    -837.7614160120538145 [Eh]
	 Singles Energy            =      -0.0000000000000000 [Eh]
	 Same-Spin Energy          =      -0.5172558264580399 [Eh]
	 Opposite-Spin Energy      =      -1.6709649801650739 [Eh]
	 Correlation Energy        =      -2.1882208066231139 [Eh]
	 Total Energy              =    -839.9496368186769359 [Eh]

	 ================> DF-SCS-MP2 Energies <==================
	-----------------------------------------------------------
	 SCS Same-Spin Scale       =       0.3333333333333333 [-]
	 SCS Opposite-Spin Scale   =       1.2000000000000000 [-]
	 SCS Same-Spin Energy      =      -0.1724186088193466 [Eh]
	 SCS Opposite-Spin Energy  =      -2.0051579761980887 [Eh]
	 SCS Correlation Energy    =      -2.1775765850174351 [Eh]
	 SCS Total Energy          =    -839.9389925970712056 [Eh]
	-----------------------------------------------------------

  Dipole Moment: [D]
     X:     1.5710      Y:     1.4910      Z:     4.3523     Total:     4.8614

*** Psi4 exiting successfully. Buy a developer a beer!
