                               Psi4 1.3.2 release

  ==> Input File <==

--------------------------------------------------------------------------
#psi4
#
memory 32 gb

molecule  {
0 1
  S       -0.7380000    -0.0680220    -0.3640970
  O       -1.0107130     0.9314480    -1.3993950
  O       -0.9666500    -1.4966470    -0.5970260
  N        1.0510315     0.1015143     0.1221853
  C        1.3822580     1.4387740     0.2709440
  C        1.4230980    -0.9933220     0.9046550
  C       -1.6975890     0.4015790     1.0774410
  C        2.8090910     1.5534440    -0.2422640
  C        2.2024570    -1.9997400     0.0750250
  C       -3.1888920     0.2878700     0.7901350
  H        0.7441850     2.1234290    -0.2885820
  H        1.3352270     1.7155400     1.3356310
  H        2.0636810    -0.5196560     1.6565250
  H        0.6239660    -1.5103280     1.4462590
  H       -1.3901500    -0.2576530     1.8936760
  H       -1.4092710     1.4273450     1.3241250
  H        3.4861350     0.8840910     0.2940530
  H        2.8396270     1.3037350    -1.3040650
  H        3.1732700     2.5763490    -0.1082090
  H        1.5321020    -2.4670540    -0.6475950
  H        3.0150810    -1.5100200    -0.4652590
  H        2.6275220    -2.7764500     0.7187370
  H       -3.7600990     0.5807950     1.6744350
  H       -3.4644480     0.9408190    -0.0387940
  H       -3.4474850    -0.7394320     0.5291400
units angstrom
no_reorient  #important for SAPT in psi4, default
symmetry c1  #important for SAPT in psi4, default
}

set PROPERTIES_ORIGIN ["COM"]
properties('MP2/aug-cc-pvtz', properties = ['dipole'])
--------------------------------------------------------------------------

    Molecular point group: c1
  Charge       = 0
  Multiplicity = 1
  Basis Set: AUG-CC-PVTZ
    Blend: AUG-CC-PVTZ
  Basis Set: (AUG-CC-PVTZ AUX)
    Blend: AUG-CC-PVTZ-JKFIT

    Orbital Energies [Eh]
    ---------------------

    Doubly Occupied:

       1A    -92.191726     2A    -20.548258     3A    -20.547712
       4A    -15.592773     5A    -11.283975     6A    -11.267634
       7A    -11.266777     8A    -11.243162     9A    -11.220629
      10A    -11.210880    11A     -9.158352    12A     -6.842793
      13A     -6.842330    14A     -6.842284    15A     -1.442294
      16A     -1.332973    17A     -1.263179    18A     -1.084373
      19A     -1.055816    20A     -0.985472    21A     -0.922313
      22A     -0.875660    23A     -0.836024    24A     -0.781681
      25A     -0.725900    26A     -0.670421    27A     -0.668687
      28A     -0.662663    29A     -0.644128    30A     -0.619309
      31A     -0.606359    32A     -0.578697    33A     -0.571613
      34A     -0.552929    35A     -0.543256    36A     -0.538971
      37A     -0.530508    38A     -0.520439    39A     -0.511210
      40A     -0.504890    41A     -0.493383    42A     -0.480397
      43A     -0.466276    44A     -0.427203    45A     -0.375993

  @DF-RHF Final Energy:  -837.73649151888867

   => Energetics <=

    Nuclear Repulsion Energy =            740.4687704111353241
    One-Electron Energy =               -2619.7459154223997757
    Two-Electron Energy =                1041.5406534923758954
    Total Energy =                       -837.7364915188886698
  Basis Set: (AUG-CC-PVTZ AUX)
    Blend: AUG-CC-PVTZ-RI
    Molecular point group: c1

    Geometry (in Angstrom), charge = 0, multiplicity = 1:

       Center              X                  Y                   Z               Mass
    ------------   -----------------  -----------------  -----------------  -----------------
         S           -0.754302835278    -0.069566867788    -0.368528227939    31.972071174400
         O           -1.027015835278     0.929903132212    -1.403826227939    15.994914619570
         O           -0.982952835278    -1.498191867788    -0.601457227939    15.994914619570
         N            1.034728664722     0.099969432212     0.117754072061    14.003074004430
         C            1.365955164722     1.437229132212     0.266512772061    12.000000000000
         C            1.406795164722    -0.994866867788     0.900223772061    12.000000000000
         C           -1.713891835278     0.400034132212     1.073009772061    12.000000000000
         C            2.792788164722     1.551899132212    -0.246695227939    12.000000000000
         C            2.186154164722    -2.001284867788     0.070593772061    12.000000000000
         C           -3.205194835278     0.286325132212     0.785703772061    12.000000000000
         H            0.727882164722     2.121884132212    -0.293013227939     1.007825032230
         H            1.318924164722     1.713995132212     1.331199772061     1.007825032230
         H            2.047378164722    -0.521200867788     1.652093772061     1.007825032230
         H            0.607663164722    -1.511872867788     1.441827772061     1.007825032230
         H           -1.406452835278    -0.259197867788     1.889244772061     1.007825032230
         H           -1.425573835278     1.425800132212     1.319693772061     1.007825032230
         H            3.469832164722     0.882546132212     0.289621772061     1.007825032230
         H            2.823324164722     1.302190132212    -1.308496227939     1.007825032230
         H            3.156967164722     2.574804132212    -0.112640227939     1.007825032230
         H            1.515799164722    -2.468598867788    -0.652026227939     1.007825032230
         H            2.998778164722    -1.511564867788    -0.469690227939     1.007825032230
         H            2.611219164722    -2.777994867788     0.714305772061     1.007825032230
         H           -3.776401835278     0.579250132212     1.670003772061     1.007825032230
         H           -3.480750835278     0.939274132212    -0.043225227939     1.007825032230
         H           -3.463787835278    -0.740976867788     0.524708772061     1.007825032230

  Basis Set: AUG-CC-PVTZ
    Blend: AUG-CC-PVTZ
  Basis Set: (AUG-CC-PVTZ AUX)
    Blend: AUG-CC-PVTZ-JKFIT
	 Reference Energy          =    -837.7364915188886698 [Eh]
	 Singles Energy            =      -0.0000000000000000 [Eh]
	 Same-Spin Energy          =      -0.5202081637136929 [Eh]
	 Opposite-Spin Energy      =      -1.6758356033385786 [Eh]
	 Correlation Energy        =      -2.1960437670522714 [Eh]
	 Total Energy              =    -839.9325352859409577 [Eh]

	 ================> DF-SCS-MP2 Energies <==================
	-----------------------------------------------------------
	 SCS Same-Spin Scale       =       0.3333333333333333 [-]
	 SCS Opposite-Spin Scale   =       1.2000000000000000 [-]
	 SCS Same-Spin Energy      =      -0.1734027212378976 [Eh]
	 SCS Opposite-Spin Energy  =      -2.0110027240062944 [Eh]
	 SCS Correlation Energy    =      -2.1844054452441921 [Eh]
	 SCS Total Energy          =    -839.9208969641329077 [Eh]
	-----------------------------------------------------------

  Dipole Moment: [D]
     X:     0.4940      Y:     1.3880      Z:     4.0969     Total:     4.3538

*** Psi4 exiting successfully. Buy a developer a beer!
