                               Psi4 1.3.2 release

  ==> Input File <==

--------------------------------------------------------------------------
#psi4
#
memory 32 gb

molecule  {
0 1
  S       -0.7380000    -0.0680220    -0.3640970
  O       -1.0107130     0.9314480    -1.3993950
  O       -0.9666500    -1.4966470    -0.5970260
  N        0.8775097     0.0741203     0.0848580
  C        1.3822580     1.4387740     0.2709440
  C        1.4230980    -0.9933220     0.9046550
  C       -1.6975890     0.4015790     1.0774410
  C        2.8090910     1.5534440    -0.2422640
  C        2.2024570    -1.9997400     0.0750250
  C       -3.1888920     0.2878700     0.7901350
  H        0.7549192     2.1379926    -0.2826790
  H        1.3352270     1.7155400     1.3356310
  H        2.0636810    -0.5196560     1.6565250
  H        0.6239660    -1.5103280     1.4462590
  H       -1.3901500    -0.2576530     1.8936760
  H       -1.4092710     1.4273450     1.3241250
  H        3.4861350     0.8840910     0.2940530
  H        2.8396270     1.3037350    -1.3040650
  H        3.1732700     2.5763490    -0.1082090
  H        1.5321020    -2.4670540    -0.6475950
  H        3.0150810    -1.5100200    -0.4652590
  H        2.6275220    -2.7764500     0.7187370
  H       -3.7600990     0.5807950     1.6744350
  H       -3.4644480     0.9408190    -0.0387940
  H       -3.4474850    -0.7394320     0.5291400
units angstrom
no_reorient  #important for SAPT in psi4, default
symmetry c1  #important for SAPT in psi4, default
}

set PROPERTIES_ORIGIN ["COM"]
properties('MP2/aug-cc-pvtz', properties = ['dipole'])
--------------------------------------------------------------------------

    Molecular point group: c1
  Charge       = 0
  Multiplicity = 1
  Basis Set: AUG-CC-PVTZ
    Blend: AUG-CC-PVTZ
  Basis Set: (AUG-CC-PVTZ AUX)
    Blend: AUG-CC-PVTZ-JKFIT

    Orbital Energies [Eh]
    ---------------------

    Doubly Occupied:

       1A    -92.191869     2A    -20.541096     3A    -20.539448
       4A    -15.593230     5A    -11.276520     6A    -11.276135
       7A    -11.273644     8A    -11.237606     9A    -11.227209
      10A    -11.214947    11A     -9.157480    12A     -6.842498
      13A     -6.841797    14A     -6.841726    15A     -1.443770
      16A     -1.328099    17A     -1.250207    18A     -1.079101
      19A     -1.047248    20A     -1.006970    21A     -0.916927
      22A     -0.870631    23A     -0.855052    24A     -0.775197
      25A     -0.721403    26A     -0.671175    27A     -0.667402
      28A     -0.652095    29A     -0.641950    30A     -0.612694
      31A     -0.600305    32A     -0.578134    33A     -0.572358
      34A     -0.550216    35A     -0.543238    36A     -0.540793
      37A     -0.527265    38A     -0.519593    39A     -0.511904
      40A     -0.499515    41A     -0.489637    42A     -0.485585
      43A     -0.461418    44A     -0.445127    45A     -0.392872

  @DF-RHF Final Energy:  -837.77533064473914

   => Energetics <=

    Nuclear Repulsion Energy =            743.1374438853633819
    One-Electron Energy =               -2625.1993731834550090
    Two-Electron Energy =                1044.2865986533524847
    Total Energy =                       -837.7753306447391424
  Basis Set: (AUG-CC-PVTZ AUX)
    Blend: AUG-CC-PVTZ-RI
    Molecular point group: c1

    Geometry (in Angstrom), charge = 0, multiplicity = 1:

       Center              X                  Y                   Z               Mass
    ------------   -----------------  -----------------  -----------------  -----------------
         S           -0.739649418890    -0.067332088305    -0.365397985648    31.972071174400
         O           -1.012362418890     0.932137911695    -1.400695985648    15.994914619570
         O           -0.968299418890    -1.495957088305    -0.598326985648    15.994914619570
         N            0.875860281110     0.074810211695     0.083557014352    14.003074004430
         C            1.380608581110     1.439463911695     0.269643014352    12.000000000000
         C            1.421448581110    -0.992632088305     0.903354014352    12.000000000000
         C           -1.699238418890     0.402268911695     1.076140014352    12.000000000000
         C            2.807441581110     1.554133911695    -0.243564985648    12.000000000000
         C            2.200807581110    -1.999050088305     0.073724014352    12.000000000000
         C           -3.190541418890     0.288559911695     0.788834014352    12.000000000000
         H            0.753269781110     2.138682511695    -0.283979985648     1.007825032230
         H            1.333577581110     1.716229911695     1.334330014352     1.007825032230
         H            2.062031581110    -0.518966088305     1.655224014352     1.007825032230
         H            0.622316581110    -1.509638088305     1.444958014352     1.007825032230
         H           -1.391799418890    -0.256963088305     1.892375014352     1.007825032230
         H           -1.410920418890     1.428034911695     1.322824014352     1.007825032230
         H            3.484485581110     0.884780911695     0.292752014352     1.007825032230
         H            2.837977581110     1.304424911695    -1.305365985648     1.007825032230
         H            3.171620581110     2.577038911695    -0.109509985648     1.007825032230
         H            1.530452581110    -2.466364088305    -0.648895985648     1.007825032230
         H            3.013431581110    -1.509330088305    -0.466559985648     1.007825032230
         H            2.625872581110    -2.775760088305     0.717436014352     1.007825032230
         H           -3.761748418890     0.581484911695     1.673134014352     1.007825032230
         H           -3.466097418890     0.941508911695    -0.040094985648     1.007825032230
         H           -3.449134418890    -0.738742088305     0.527839014352     1.007825032230

  Basis Set: AUG-CC-PVTZ
    Blend: AUG-CC-PVTZ
  Basis Set: (AUG-CC-PVTZ AUX)
    Blend: AUG-CC-PVTZ-JKFIT
	 Reference Energy          =    -837.7753306447391424 [Eh]
	 Singles Energy            =      -0.0000000000000000 [Eh]
	 Same-Spin Energy          =      -0.5170104429028402 [Eh]
	 Opposite-Spin Energy      =      -1.6701381598507696 [Eh]
	 Correlation Energy        =      -2.1871486027536098 [Eh]
	 Total Energy              =    -839.9624792474927517 [Eh]

	 ================> DF-SCS-MP2 Energies <==================
	-----------------------------------------------------------
	 SCS Same-Spin Scale       =       0.3333333333333333 [-]
	 SCS Opposite-Spin Scale   =       1.2000000000000000 [-]
	 SCS Same-Spin Energy      =      -0.1723368143009467 [Eh]
	 SCS Opposite-Spin Energy  =      -2.0041657918209235 [Eh]
	 SCS Correlation Energy    =      -2.1765026061218702 [Eh]
	 SCS Total Energy          =    -839.9518332508610001 [Eh]
	-----------------------------------------------------------

  Dipole Moment: [D]
     X:     1.4606      Y:     1.4873      Z:     4.2669     Total:     4.7489

*** Psi4 exiting successfully. Buy a developer a beer!
