                               Psi4 1.3.2 release

  ==> Input File <==

--------------------------------------------------------------------------
#psi4
#
memory 32 gb

molecule  {
0 1
  S       -0.7380000    -0.0680220    -0.3640970
  O       -1.0107130     0.9314480    -1.3993950
  O       -0.9666500    -1.4966470    -0.5970260
  N        0.8366925     0.0905172     0.0805748
  C        1.3822580     1.4387740     0.2709440
  C        1.4230980    -0.9933220     0.9046550
  C       -1.6975890     0.4015790     1.0774410
  C        2.8094616     1.5789259    -0.2348538
  C        2.2024570    -1.9997400     0.0750250
  C       -3.1888920     0.2878700     0.7901350
  H        0.7441850     2.1234290    -0.2885820
  H        1.3352270     1.7155400     1.3356310
  H        2.0636810    -0.5196560     1.6565250
  H        0.6239660    -1.5103280     1.4462590
  H       -1.3901500    -0.2576530     1.8936760
  H       -1.4092710     1.4273450     1.3241250
  H        3.4861350     0.8840910     0.2940530
  H        2.8396270     1.3037350    -1.3040650
  H        3.1732700     2.5763490    -0.1082090
  H        1.5321020    -2.4670540    -0.6475950
  H        3.0150810    -1.5100200    -0.4652590
  H        2.6275220    -2.7764500     0.7187370
  H       -3.7600990     0.5807950     1.6744350
  H       -3.4644480     0.9408190    -0.0387940
  H       -3.4474850    -0.7394320     0.5291400
units angstrom
no_reorient  #important for SAPT in psi4, default
symmetry c1  #important for SAPT in psi4, default
}

set PROPERTIES_ORIGIN ["COM"]
properties('MP2/aug-cc-pvtz', properties = ['dipole'])
--------------------------------------------------------------------------

    Molecular point group: c1
  Charge       = 0
  Multiplicity = 1
  Basis Set: AUG-CC-PVTZ
    Blend: AUG-CC-PVTZ
  Basis Set: (AUG-CC-PVTZ AUX)
    Blend: AUG-CC-PVTZ-JKFIT

    Orbital Energies [Eh]
    ---------------------

    Doubly Occupied:

       1A    -92.190528     2A    -20.538456     3A    -20.538007
       4A    -15.593407     5A    -11.277604     6A    -11.277052
       7A    -11.273912     8A    -11.235717     9A    -11.228917
      10A    -11.217359    11A     -9.156192    12A     -6.841375
      13A     -6.840578    14A     -6.840450    15A     -1.444538
      16A     -1.326716    17A     -1.249898    18A     -1.077333
      19A     -1.046510    20A     -1.012983    21A     -0.915795
      22A     -0.870723    23A     -0.859343    24A     -0.772823
      25A     -0.720123    26A     -0.671552    27A     -0.667548
      28A     -0.650668    29A     -0.640394    30A     -0.611710
      31A     -0.600094    32A     -0.581012    33A     -0.572757
      34A     -0.549758    35A     -0.544953    36A     -0.540887
      37A     -0.526453    38A     -0.519389    39A     -0.510053
      40A     -0.496254    41A     -0.490332    42A     -0.486381
      43A     -0.459915    44A     -0.446300    45A     -0.396387

  @DF-RHF Final Energy:  -837.77660082967338

   => Energetics <=

    Nuclear Repulsion Energy =            743.6853341966520929
    One-Electron Energy =               -2626.3056005500861829
    Two-Electron Energy =                1044.8436655237605919
    Total Energy =                       -837.7766008296734981
  Basis Set: (AUG-CC-PVTZ AUX)
    Blend: AUG-CC-PVTZ-RI
    Molecular point group: c1

    Geometry (in Angstrom), charge = 0, multiplicity = 1:

       Center              X                  Y                   Z               Mass
    ------------   -----------------  -----------------  -----------------  -----------------
         S           -0.736148516050    -0.070486345824    -0.365537281231    31.972071174400
         O           -1.008861516050     0.928983654176    -1.400835281231    15.994914619570
         O           -0.964798516050    -1.499111345824    -0.598466281231    15.994914619570
         N            0.838543983950     0.088052854176     0.079134518769    14.003074004430
         C            1.384109483950     1.436309654176     0.269503718769    12.000000000000
         C            1.424949483950    -0.995786345824     0.903214718769    12.000000000000
         C           -1.695737516050     0.399114654176     1.076000718769    12.000000000000
         C            2.811313083950     1.576461554176    -0.236294081231    12.000000000000
         C            2.204308483950    -2.002204345824     0.073584718769    12.000000000000
         C           -3.187040516050     0.285405654176     0.788694718769    12.000000000000
         H            0.746036483950     2.120964654176    -0.290022281231     1.007825032230
         H            1.337078483950     1.713075654176     1.334190718769     1.007825032230
         H            2.065532483950    -0.522120345824     1.655084718769     1.007825032230
         H            0.625817483950    -1.512792345824     1.444818718769     1.007825032230
         H           -1.388298516050    -0.260117345824     1.892235718769     1.007825032230
         H           -1.407419516050     1.424880654176     1.322684718769     1.007825032230
         H            3.487986483950     0.881626654176     0.292612718769     1.007825032230
         H            2.841478483950     1.301270654176    -1.305505281231     1.007825032230
         H            3.175121483950     2.573884654176    -0.109649281231     1.007825032230
         H            1.533953483950    -2.469518345824    -0.649035281231     1.007825032230
         H            3.016932483950    -1.512484345824    -0.466699281231     1.007825032230
         H            2.629373483950    -2.778914345824     0.717296718769     1.007825032230
         H           -3.758247516050     0.578330654176     1.672994718769     1.007825032230
         H           -3.462596516050     0.938354654176    -0.040234281231     1.007825032230
         H           -3.445633516050    -0.741896345824     0.527699718769     1.007825032230

  Basis Set: AUG-CC-PVTZ
    Blend: AUG-CC-PVTZ
  Basis Set: (AUG-CC-PVTZ AUX)
    Blend: AUG-CC-PVTZ-JKFIT
	 Reference Energy          =    -837.7766008296733844 [Eh]
	 Singles Energy            =      -0.0000000000000000 [Eh]
	 Same-Spin Energy          =      -0.5165726021678682 [Eh]
	 Opposite-Spin Energy      =      -1.6692795386656121 [Eh]
	 Correlation Energy        =      -2.1858521408334801 [Eh]
	 Total Energy              =    -839.9624529705068881 [Eh]

	 ================> DF-SCS-MP2 Energies <==================
	-----------------------------------------------------------
	 SCS Same-Spin Scale       =       0.3333333333333333 [-]
	 SCS Opposite-Spin Scale   =       1.2000000000000000 [-]
	 SCS Same-Spin Energy      =      -0.1721908673892894 [Eh]
	 SCS Opposite-Spin Energy  =      -2.0031354463987343 [Eh]
	 SCS Correlation Energy    =      -2.1753263137880237 [Eh]
	 SCS Total Energy          =    -839.9519271434613756 [Eh]
	-----------------------------------------------------------

  Dipole Moment: [D]
     X:     1.7136      Y:     1.4224      Z:     4.2998     Total:     4.8423

*** Psi4 exiting successfully. Buy a developer a beer!
