                               Psi4 1.3.2 release

  ==> Input File <==

--------------------------------------------------------------------------
#psi4
#
memory 32 gb

molecule  {
0 1
  S       -0.7380000    -0.0680220    -0.3640970
  O       -1.0107130     0.9314480    -1.3993950
  O       -0.9666500    -1.4966470    -0.5970260
  N        0.8037940     0.1133087     0.0255873
  C        1.3822580     1.4387740     0.2709440
  C        1.4230980    -0.9933220     0.9046550
  C       -1.6975890     0.4015790     1.0774410
  C        2.8090910     1.5534440    -0.2422640
  C        2.2024570    -1.9997400     0.0750250
  C       -3.1888920     0.2878700     0.7901350
  H        0.7131612     2.0785049    -0.3052615
  H        1.3352270     1.7155400     1.3356310
  H        2.0636810    -0.5196560     1.6565250
  H        0.6239660    -1.5103280     1.4462590
  H       -1.3901500    -0.2576530     1.8936760
  H       -1.4092710     1.4273450     1.3241250
  H        3.4861350     0.8840910     0.2940530
  H        2.8396270     1.3037350    -1.3040650
  H        3.1732700     2.5763490    -0.1082090
  H        1.5321020    -2.4670540    -0.6475950
  H        3.0150810    -1.5100200    -0.4652590
  H        2.6275220    -2.7764500     0.7187370
  H       -3.7600990     0.5807950     1.6744350
  H       -3.4644480     0.9408190    -0.0387940
  H       -3.4474850    -0.7394320     0.5291400
units angstrom
no_reorient  #important for SAPT in psi4, default
symmetry c1  #important for SAPT in psi4, default
}

set PROPERTIES_ORIGIN ["COM"]
properties('MP2/aug-cc-pvtz', properties = ['dipole'])
--------------------------------------------------------------------------

    Molecular point group: c1
  Charge       = 0
  Multiplicity = 1
  Basis Set: AUG-CC-PVTZ
    Blend: AUG-CC-PVTZ
  Basis Set: (AUG-CC-PVTZ AUX)
    Blend: AUG-CC-PVTZ-JKFIT

    Orbital Energies [Eh]
    ---------------------

    Doubly Occupied:

       1A    -92.186737     2A    -20.536433     3A    -20.531932
       4A    -15.593858     5A    -11.283710     6A    -11.277996
       7A    -11.272171     8A    -11.234422     9A    -11.230270
      10A    -11.220229    11A     -9.152914    12A     -6.838273
      13A     -6.837297    14A     -6.837168    15A     -1.445005
      16A     -1.323982    17A     -1.247813    18A     -1.075864
      19A     -1.044818    20A     -1.019465    21A     -0.913645
      22A     -0.869225    23A     -0.863277    24A     -0.771247
      25A     -0.717384    26A     -0.671144    27A     -0.668071
      28A     -0.652663    29A     -0.638795    30A     -0.610405
      31A     -0.598503    32A     -0.575694    33A     -0.571971
      34A     -0.549622    35A     -0.547549    36A     -0.539689
      37A     -0.526385    38A     -0.519827    39A     -0.512387
      40A     -0.492356    41A     -0.490351    42A     -0.481722
      43A     -0.456976    44A     -0.446752    45A     -0.403725

  @DF-RHF Final Energy:  -837.77209684797117

   => Energetics <=

    Nuclear Repulsion Energy =            744.6793624016887634
    One-Electron Energy =               -2628.3434766301211312
    Two-Electron Energy =                1045.8920173804613114
    Total Energy =                       -837.7720968479711701
  Basis Set: (AUG-CC-PVTZ AUX)
    Blend: AUG-CC-PVTZ-RI
    Molecular point group: c1

    Geometry (in Angstrom), charge = 0, multiplicity = 1:

       Center              X                  Y                   Z               Mass
    ------------   -----------------  -----------------  -----------------  -----------------
         S           -0.733141568955    -0.070293064281    -0.360232495772    31.972071174400
         O           -1.005854568955     0.929176935719    -1.395530495772    15.994914619570
         O           -0.961791568955    -1.498918064281    -0.593161495772    15.994914619570
         N            0.808652431045     0.111037635719     0.029451804228    14.003074004430
         C            1.387116431045     1.436502935719     0.274808504228    12.000000000000
         C            1.427956431045    -0.995593064281     0.908519504228    12.000000000000
         C           -1.692730568955     0.399307935719     1.081305504228    12.000000000000
         C            2.813949431045     1.551172935719    -0.238399495772    12.000000000000
         C            2.207315431045    -2.002011064281     0.078889504228    12.000000000000
         C           -3.184033568955     0.285598935719     0.793999504228    12.000000000000
         H            0.718019631045     2.076233835719    -0.301396995772     1.007825032230
         H            1.340085431045     1.713268935719     1.339495504228     1.007825032230
         H            2.068539431045    -0.521927064281     1.660389504228     1.007825032230
         H            0.628824431045    -1.512599064281     1.450123504228     1.007825032230
         H           -1.385291568955    -0.259924064281     1.897540504228     1.007825032230
         H           -1.404412568955     1.425073935719     1.327989504228     1.007825032230
         H            3.490993431045     0.881819935719     0.297917504228     1.007825032230
         H            2.844485431045     1.301463935719    -1.300200495772     1.007825032230
         H            3.178128431045     2.574077935719    -0.104344495772     1.007825032230
         H            1.536960431045    -2.469325064281    -0.643730495772     1.007825032230
         H            3.019939431045    -1.512291064281    -0.461394495772     1.007825032230
         H            2.632380431045    -2.778721064281     0.722601504228     1.007825032230
         H           -3.755240568955     0.578523935719     1.678299504228     1.007825032230
         H           -3.459589568955     0.938547935719    -0.034929495772     1.007825032230
         H           -3.442626568955    -0.741703064281     0.533004504228     1.007825032230

  Basis Set: AUG-CC-PVTZ
    Blend: AUG-CC-PVTZ
  Basis Set: (AUG-CC-PVTZ AUX)
    Blend: AUG-CC-PVTZ-JKFIT
	 Reference Energy          =    -837.7720968479711701 [Eh]
	 Singles Energy            =      -0.0000000000000000 [Eh]
	 Same-Spin Energy          =      -0.5164650306413560 [Eh]
	 Opposite-Spin Energy      =      -1.6691849978611746 [Eh]
	 Correlation Energy        =      -2.1856500285025304 [Eh]
	 Total Energy              =    -839.9577468764737205 [Eh]

	 ================> DF-SCS-MP2 Energies <==================
	-----------------------------------------------------------
	 SCS Same-Spin Scale       =       0.3333333333333333 [-]
	 SCS Opposite-Spin Scale   =       1.2000000000000000 [-]
	 SCS Same-Spin Energy      =      -0.1721550102137853 [Eh]
	 SCS Opposite-Spin Energy  =      -2.0030219974334096 [Eh]
	 SCS Correlation Energy    =      -2.1751770076471950 [Eh]
	 SCS Total Energy          =    -839.9472738556183913 [Eh]
	-----------------------------------------------------------

  Dipole Moment: [D]
     X:     1.9843      Y:     1.3048      Z:     4.4482     Total:     5.0424

*** Psi4 exiting successfully. Buy a developer a beer!
