                               Psi4 1.3.2 release

  ==> Input File <==

--------------------------------------------------------------------------
#psi4
#
memory 32 gb

molecule  {
0 1
  S       -0.7380000    -0.0680220    -0.3640970
  O       -1.0107130     0.9314480    -1.3993950
  O       -0.9666500    -1.4966470    -0.5970260
  N        0.8325946     0.1091169     0.1487673
  C        1.3822580     1.4387740     0.2709440
  C        1.4230980    -0.9933220     0.9046550
  C       -1.6169288     0.4170192     1.1230436
  C        2.8090910     1.5534440    -0.2422640
  C        2.2024570    -1.9997400     0.0750250
  C       -3.1888920     0.2878700     0.7901350
  H        0.7441850     2.1234290    -0.2885820
  H        1.3352270     1.7155400     1.3356310
  H        2.0636810    -0.5196560     1.6565250
  H        0.6239660    -1.5103280     1.4462590
  H       -1.3901500    -0.2576530     1.8936760
  H       -1.4092710     1.4273450     1.3241250
  H        3.4861350     0.8840910     0.2940530
  H        2.8396270     1.3037350    -1.3040650
  H        3.1732700     2.5763490    -0.1082090
  H        1.5321020    -2.4670540    -0.6475950
  H        3.0150810    -1.5100200    -0.4652590
  H        2.6275220    -2.7764500     0.7187370
  H       -3.7600990     0.5807950     1.6744350
  H       -3.4644480     0.9408190    -0.0387940
  H       -3.4474850    -0.7394320     0.5291400
units angstrom
no_reorient  #important for SAPT in psi4, default
symmetry c1  #important for SAPT in psi4, default
}

set PROPERTIES_ORIGIN ["COM"]
properties('MP2/aug-cc-pvtz', properties = ['dipole'])
--------------------------------------------------------------------------

    Molecular point group: c1
  Charge       = 0
  Multiplicity = 1
  Basis Set: AUG-CC-PVTZ
    Blend: AUG-CC-PVTZ
  Basis Set: (AUG-CC-PVTZ AUX)
    Blend: AUG-CC-PVTZ-JKFIT

    Orbital Energies [Eh]
    ---------------------

    Doubly Occupied:

       1A    -92.193894     2A    -20.543769     3A    -20.543722
       4A    -15.585764     5A    -11.274831     6A    -11.273902
       7A    -11.269879     8A    -11.239738     9A    -11.227356
      10A    -11.216812    11A     -9.159096    12A     -6.844307
      13A     -6.843567    14A     -6.843277    15A     -1.446341
      16A     -1.330546    17A     -1.253222    18A     -1.069298
      19A     -1.046781    20A     -1.007605    21A     -0.916044
      22A     -0.874292    23A     -0.859899    24A     -0.774506
      25A     -0.720079    26A     -0.675661    27A     -0.673100
      28A     -0.653214    29A     -0.640457    30A     -0.614177
      31A     -0.600900    32A     -0.580088    33A     -0.563117
      34A     -0.549301    35A     -0.547957    36A     -0.536905
      37A     -0.521974    38A     -0.519389    39A     -0.513207
      40A     -0.500424    41A     -0.493519    42A     -0.489995
      43A     -0.464795    44A     -0.447824    45A     -0.384310

  @DF-RHF Final Energy:  -837.76755846647529

   => Energetics <=

    Nuclear Repulsion Energy =            743.6974595222119433
    One-Electron Energy =               -2626.2723500530573801
    Two-Electron Energy =                1044.8073320643702573
    Total Energy =                       -837.7675584664752932
  Basis Set: (AUG-CC-PVTZ AUX)
    Blend: AUG-CC-PVTZ-RI
    Molecular point group: c1

    Geometry (in Angstrom), charge = 0, multiplicity = 1:

       Center              X                  Y                   Z               Mass
    ------------   -----------------  -----------------  -----------------  -----------------
         S           -0.741637243364    -0.071334120136    -0.374097938533    31.972071174400
         O           -1.014350243364     0.928135879864    -1.409395938533    15.994914619570
         O           -0.970287243364    -1.499959120136    -0.607026938533    15.994914619570
         N            0.828957356636     0.105804779864     0.138766361467    14.003074004430
         C            1.378620756636     1.435461879864     0.260943061467    12.000000000000
         C            1.419460756636    -0.996634120136     0.894654061467    12.000000000000
         C           -1.620566043364     0.413707079864     1.113042661467    12.000000000000
         C            2.805453756636     1.550131879864    -0.252264938533    12.000000000000
         C            2.198819756636    -2.003052120136     0.065024061467    12.000000000000
         C           -3.192529243364     0.284557879864     0.780134061467    12.000000000000
         H            0.740547756636     2.120116879864    -0.298582938533     1.007825032230
         H            1.331589756636     1.712227879864     1.325630061467     1.007825032230
         H            2.060043756636    -0.522968120136     1.646524061467     1.007825032230
         H            0.620328756636    -1.513640120136     1.436258061467     1.007825032230
         H           -1.393787243364    -0.260965120136     1.883675061467     1.007825032230
         H           -1.412908243364     1.424032879864     1.314124061467     1.007825032230
         H            3.482497756636     0.880778879864     0.284052061467     1.007825032230
         H            2.835989756636     1.300422879864    -1.314065938533     1.007825032230
         H            3.169632756636     2.573036879864    -0.118209938533     1.007825032230
         H            1.528464756636    -2.470366120136    -0.657595938533     1.007825032230
         H            3.011443756636    -1.513332120136    -0.475259938533     1.007825032230
         H            2.623884756636    -2.779762120136     0.708736061467     1.007825032230
         H           -3.763736243364     0.577482879864     1.664434061467     1.007825032230
         H           -3.468085243364     0.937506879864    -0.048794938533     1.007825032230
         H           -3.451122243364    -0.742744120136     0.519139061467     1.007825032230

  Basis Set: AUG-CC-PVTZ
    Blend: AUG-CC-PVTZ
  Basis Set: (AUG-CC-PVTZ AUX)
    Blend: AUG-CC-PVTZ-JKFIT
	 Reference Energy          =    -837.7675584664752932 [Eh]
	 Singles Energy            =      -0.0000000000000000 [Eh]
	 Same-Spin Energy          =      -0.5167257089367681 [Eh]
	 Opposite-Spin Energy      =      -1.6698906721075004 [Eh]
	 Correlation Energy        =      -2.1866163810442685 [Eh]
	 Total Energy              =    -839.9541748475195391 [Eh]

	 ================> DF-SCS-MP2 Energies <==================
	-----------------------------------------------------------
	 SCS Same-Spin Scale       =       0.3333333333333333 [-]
	 SCS Opposite-Spin Scale   =       1.2000000000000000 [-]
	 SCS Same-Spin Energy      =      -0.1722419029789227 [Eh]
	 SCS Opposite-Spin Energy  =      -2.0038688065290002 [Eh]
	 SCS Correlation Energy    =      -2.1761107095079231 [Eh]
	 SCS Total Energy          =    -839.9436691759832456 [Eh]
	-----------------------------------------------------------

  Dipole Moment: [D]
     X:     1.5887      Y:     1.3579      Z:     4.0859     Total:     4.5894

*** Psi4 exiting successfully. Buy a developer a beer!
