                               Psi4 1.3.2 release

  ==> Input File <==

--------------------------------------------------------------------------
#psi4
#
memory 32 gb

molecule  {
0 1
  S       -0.7380000    -0.0680220    -0.3640970
  O       -1.0028404     0.9252747    -1.4073495
  O       -0.9666500    -1.4966470    -0.5970260
  N        0.8588360     0.0833010     0.0699440
  C        1.3822580     1.4387740     0.2709440
  C        1.4230980    -0.9933220     0.9046550
  C       -1.6919715     0.3891570     1.0851420
  C        2.8090910     1.5534440    -0.2422640
  C        2.2024570    -1.9997400     0.0750250
  C       -3.1888920     0.2878700     0.7901350
  H        0.7441850     2.1234290    -0.2885820
  H        1.3352270     1.7155400     1.3356310
  H        2.0636810    -0.5196560     1.6565250
  H        0.6239660    -1.5103280     1.4462590
  H       -1.3901500    -0.2576530     1.8936760
  H       -1.4092710     1.4273450     1.3241250
  H        3.4861350     0.8840910     0.2940530
  H        2.8396270     1.3037350    -1.3040650
  H        3.1732700     2.5763490    -0.1082090
  H        1.5321020    -2.4670540    -0.6475950
  H        3.0150810    -1.5100200    -0.4652590
  H        2.6275220    -2.7764500     0.7187370
  H       -3.7600990     0.5807950     1.6744350
  H       -3.4644480     0.9408190    -0.0387940
  H       -3.4474850    -0.7394320     0.5291400
units angstrom
no_reorient  #important for SAPT in psi4, default
symmetry c1  #important for SAPT in psi4, default
}

set PROPERTIES_ORIGIN ["COM"]
properties('MP2/aug-cc-pvtz', properties = ['dipole'])
--------------------------------------------------------------------------

    Molecular point group: c1
  Charge       = 0
  Multiplicity = 1
  Basis Set: AUG-CC-PVTZ
    Blend: AUG-CC-PVTZ
  Basis Set: (AUG-CC-PVTZ AUX)
    Blend: AUG-CC-PVTZ-JKFIT

    Orbital Energies [Eh]
    ---------------------

    Doubly Occupied:

       1A    -92.190788     2A    -20.539516     3A    -20.537907
       4A    -15.592869     5A    -11.276243     6A    -11.275900
       7A    -11.275891     8A    -11.237598     9A    -11.227729
      10A    -11.216074    11A     -9.156491    12A     -6.841588
      13A     -6.840856    14A     -6.840725    15A     -1.443912
      16A     -1.326774    17A     -1.248687    18A     -1.078183
      19A     -1.046222    20A     -1.009789    21A     -0.916258
      22A     -0.869778    23A     -0.857477    24A     -0.774705
      25A     -0.720397    26A     -0.670633    27A     -0.668327
      28A     -0.651868    29A     -0.641121    30A     -0.611846
      31A     -0.599750    32A     -0.577239    33A     -0.571680
      34A     -0.550096    35A     -0.544371    36A     -0.539771
      37A     -0.527749    38A     -0.519518    39A     -0.511858
      40A     -0.497946    41A     -0.489024    42A     -0.485856
      43A     -0.460213    44A     -0.446416    45A     -0.395374

  @DF-RHF Final Energy:  -837.77667953144794

   => Energetics <=

    Nuclear Repulsion Energy =            743.4877635707412082
    One-Electron Energy =               -2625.9228654960356835
    Two-Electron Energy =                1044.6584223938466494
    Total Energy =                       -837.7766795314478259
  Basis Set: (AUG-CC-PVTZ AUX)
    Blend: AUG-CC-PVTZ-RI
    Molecular point group: c1

    Geometry (in Angstrom), charge = 0, multiplicity = 1:

       Center              X                  Y                   Z               Mass
    ------------   -----------------  -----------------  -----------------  -----------------
         S           -0.739171016240    -0.066520826861    -0.363885948865    31.972071174400
         O           -1.004011416240     0.926775873139    -1.407138448865    15.994914619570
         O           -0.967821016240    -1.495145826861    -0.596814948865    15.994914619570
         N            0.857664983760     0.084802173139     0.070155051135    14.003074004430
         C            1.381086983760     1.440275173139     0.271155051135    12.000000000000
         C            1.421926983760    -0.991820826861     0.904866051135    12.000000000000
         C           -1.693142516240     0.390658173139     1.085353051135    12.000000000000
         C            2.807919983760     1.554945173139    -0.242052948865    12.000000000000
         C            2.201285983760    -1.998238826861     0.075236051135    12.000000000000
         C           -3.190063016240     0.289371173139     0.790346051135    12.000000000000
         H            0.743013983760     2.124930173139    -0.288370948865     1.007825032230
         H            1.334055983760     1.717041173139     1.335842051135     1.007825032230
         H            2.062509983760    -0.518154826861     1.656736051135     1.007825032230
         H            0.622794983760    -1.508826826861     1.446470051135     1.007825032230
         H           -1.391321016240    -0.256151826861     1.893887051135     1.007825032230
         H           -1.410442016240     1.428846173139     1.324336051135     1.007825032230
         H            3.484963983760     0.885592173139     0.294264051135     1.007825032230
         H            2.838455983760     1.305236173139    -1.303853948865     1.007825032230
         H            3.172098983760     2.577850173139    -0.107997948865     1.007825032230
         H            1.530930983760    -2.465552826861    -0.647383948865     1.007825032230
         H            3.013909983760    -1.508518826861    -0.465047948865     1.007825032230
         H            2.626350983760    -2.774948826861     0.718948051135     1.007825032230
         H           -3.761270016240     0.582296173139     1.674646051135     1.007825032230
         H           -3.465619016240     0.942320173139    -0.038582948865     1.007825032230
         H           -3.448656016240    -0.737930826861     0.529351051135     1.007825032230

  Basis Set: AUG-CC-PVTZ
    Blend: AUG-CC-PVTZ
  Basis Set: (AUG-CC-PVTZ AUX)
    Blend: AUG-CC-PVTZ-JKFIT
	 Reference Energy          =    -837.7766795314479396 [Eh]
	 Singles Energy            =      -0.0000000000000000 [Eh]
	 Same-Spin Energy          =      -0.5167189702924713 [Eh]
	 Opposite-Spin Energy      =      -1.6696699628532150 [Eh]
	 Correlation Energy        =      -2.1863889331456861 [Eh]
	 Total Energy              =    -839.9630684645936753 [Eh]

	 ================> DF-SCS-MP2 Energies <==================
	-----------------------------------------------------------
	 SCS Same-Spin Scale       =       0.3333333333333333 [-]
	 SCS Opposite-Spin Scale   =       1.2000000000000000 [-]
	 SCS Same-Spin Energy      =      -0.1722396567641571 [Eh]
	 SCS Opposite-Spin Energy  =      -2.0036039554238578 [Eh]
	 SCS Correlation Energy    =      -2.1758436121880149 [Eh]
	 SCS Total Energy          =    -839.9525231436359718 [Eh]
	-----------------------------------------------------------

  Dipole Moment: [D]
     X:     1.5576      Y:     1.4579      Z:     4.3305     Total:     4.8275

*** Psi4 exiting successfully. Buy a developer a beer!
