                               Psi4 1.3.2 release

  ==> Input File <==

--------------------------------------------------------------------------
#psi4
#
memory 32 gb

molecule  {
0 1
  S       -0.7380000    -0.0680220    -0.3640970
  O       -0.9953308     0.9678879    -1.3670058
  O       -0.9504238    -1.5060862    -0.5494443
  N        0.8588360     0.0833010     0.0699440
  C        1.3822580     1.4387740     0.2709440
  C        1.4230980    -0.9933220     0.9046550
  C       -1.6975890     0.4015790     1.0774410
  C        2.8090910     1.5534440    -0.2422640
  C        2.2024570    -1.9997400     0.0750250
  C       -3.1888920     0.2878700     0.7901350
  H        0.7441850     2.1234290    -0.2885820
  H        1.3352270     1.7155400     1.3356310
  H        2.0636810    -0.5196560     1.6565250
  H        0.6239660    -1.5103280     1.4462590
  H       -1.3901500    -0.2576530     1.8936760
  H       -1.4092710     1.4273450     1.3241250
  H        3.4861350     0.8840910     0.2940530
  H        2.8396270     1.3037350    -1.3040650
  H        3.1732700     2.5763490    -0.1082090
  H        1.5321020    -2.4670540    -0.6475950
  H        3.0150810    -1.5100200    -0.4652590
  H        2.6275220    -2.7764500     0.7187370
  H       -3.7600990     0.5807950     1.6744350
  H       -3.4644480     0.9408190    -0.0387940
  H       -3.4474850    -0.7394320     0.5291400
units angstrom
no_reorient  #important for SAPT in psi4, default
symmetry c1  #important for SAPT in psi4, default
}

set PROPERTIES_ORIGIN ["COM"]
properties('MP2/aug-cc-pvtz', properties = ['dipole'])
--------------------------------------------------------------------------

    Molecular point group: c1
  Charge       = 0
  Multiplicity = 1
  Basis Set: AUG-CC-PVTZ
    Blend: AUG-CC-PVTZ
  Basis Set: (AUG-CC-PVTZ AUX)
    Blend: AUG-CC-PVTZ-JKFIT

    Orbital Energies [Eh]
    ---------------------

    Doubly Occupied:

       1A    -92.191954     2A    -20.542409     3A    -20.542171
       4A    -15.591852     5A    -11.274575     6A    -11.274422
       7A    -11.273051     8A    -11.236227     9A    -11.226873
      10A    -11.215506    11A     -9.157505    12A     -6.842643
      13A     -6.841827    14A     -6.841786    15A     -1.445753
      16A     -1.333016    17A     -1.246758    18A     -1.076441
      19A     -1.045107    20A     -1.008866    21A     -0.914706
      22A     -0.868752    23A     -0.856645    24A     -0.773850
      25A     -0.720915    26A     -0.671163    27A     -0.667615
      28A     -0.650983    29A     -0.639976    30A     -0.614448
      31A     -0.598885    32A     -0.576196    33A     -0.572059
      34A     -0.549109    35A     -0.543431    36A     -0.539743
      37A     -0.526476    38A     -0.518697    39A     -0.510685
      40A     -0.497097    41A     -0.492144    42A     -0.487171
      43A     -0.464095    44A     -0.444876    45A     -0.394401

  @DF-RHF Final Energy:  -837.77477688394640

   => Energetics <=

    Nuclear Repulsion Energy =            744.1575427621554581
    One-Electron Energy =               -2627.2589168879203498
    Two-Electron Energy =                1045.3265972418184901
    Total Energy =                       -837.7747768839462879
  Basis Set: (AUG-CC-PVTZ AUX)
    Blend: AUG-CC-PVTZ-RI
    Molecular point group: c1

    Geometry (in Angstrom), charge = 0, multiplicity = 1:

       Center              X                  Y                   Z               Mass
    ------------   -----------------  -----------------  -----------------  -----------------
         S           -0.741062448575    -0.070638040470    -0.371845293197    31.972071174400
         O           -0.998393248575     0.965271859530    -1.374754093197    15.994914619570
         O           -0.953486248575    -1.508702240470    -0.557192593197    15.994914619570
         N            0.855773551425     0.080684959530     0.062195706803    14.003074004430
         C            1.379195551425     1.436157959530     0.263195706803    12.000000000000
         C            1.420035551425    -0.995938040470     0.896906706803    12.000000000000
         C           -1.700651448575     0.398962959530     1.069692706803    12.000000000000
         C            2.806028551425     1.550827959530    -0.250012293197    12.000000000000
         C            2.199394551425    -2.002356040470     0.067276706803    12.000000000000
         C           -3.191954448575     0.285253959530     0.782386706803    12.000000000000
         H            0.741122551425     2.120812959530    -0.296330293197     1.007825032230
         H            1.332164551425     1.712923959530     1.327882706803     1.007825032230
         H            2.060618551425    -0.522272040470     1.648776706803     1.007825032230
         H            0.620903551425    -1.512944040470     1.438510706803     1.007825032230
         H           -1.393212448575    -0.260269040470     1.885927706803     1.007825032230
         H           -1.412333448575     1.424728959530     1.316376706803     1.007825032230
         H            3.483072551425     0.881474959530     0.286304706803     1.007825032230
         H            2.836564551425     1.301118959530    -1.311813293197     1.007825032230
         H            3.170207551425     2.573732959530    -0.115957293197     1.007825032230
         H            1.529039551425    -2.469670040470    -0.655343293197     1.007825032230
         H            3.012018551425    -1.512636040470    -0.473007293197     1.007825032230
         H            2.624459551425    -2.779066040470     0.710988706803     1.007825032230
         H           -3.763161448575     0.578178959530     1.666686706803     1.007825032230
         H           -3.467510448575     0.938202959530    -0.046542293197     1.007825032230
         H           -3.450547448575    -0.742048040470     0.521391706803     1.007825032230

  Basis Set: AUG-CC-PVTZ
    Blend: AUG-CC-PVTZ
  Basis Set: (AUG-CC-PVTZ AUX)
    Blend: AUG-CC-PVTZ-JKFIT
	 Reference Energy          =    -837.7747768839464015 [Eh]
	 Singles Energy            =      -0.0000000000000000 [Eh]
	 Same-Spin Energy          =      -0.5171834138795619 [Eh]
	 Opposite-Spin Energy      =      -1.6704975439254310 [Eh]
	 Correlation Energy        =      -2.1876809578049929 [Eh]
	 Total Energy              =    -839.9624578417514158 [Eh]

	 ================> DF-SCS-MP2 Energies <==================
	-----------------------------------------------------------
	 SCS Same-Spin Scale       =       0.3333333333333333 [-]
	 SCS Opposite-Spin Scale   =       1.2000000000000000 [-]
	 SCS Same-Spin Energy      =      -0.1723944712931873 [Eh]
	 SCS Opposite-Spin Energy  =      -2.0045970527105172 [Eh]
	 SCS Correlation Energy    =      -2.1769915240037045 [Eh]
	 SCS Total Energy          =    -839.9517684079501123 [Eh]
	-----------------------------------------------------------

  Dipole Moment: [D]
     X:     1.5049      Y:     1.3749      Z:     4.1124     Total:     4.5899

*** Psi4 exiting successfully. Buy a developer a beer!
