                               Psi4 1.3.2 release

  ==> Input File <==

--------------------------------------------------------------------------
#psi4
#
memory 32 gb

molecule  {
0 1
  S       -0.7380000    -0.0680220    -0.3640970
  O       -1.0107130     0.9314480    -1.3993950
  O       -0.9666500    -1.4966470    -0.5970260
  N        0.8547646     0.0876344     0.0831697
  C        1.3822580     1.4387740     0.2709440
  C        1.4230980    -0.9933220     0.9046550
  C       -1.6843224     0.4042429     1.0853193
  C        2.8090910     1.5534440    -0.2422640
  C        2.2024570    -1.9997400     0.0750250
  C       -3.1888920     0.2878700     0.7901350
  H        0.7441850     2.1234290    -0.2885820
  H        1.3352270     1.7155400     1.3356310
  H        2.0636810    -0.5196560     1.6565250
  H        0.6239660    -1.5103280     1.4462590
  H       -1.3901500    -0.2576530     1.8936760
  H       -1.4092710     1.4273450     1.3241250
  H        3.4861350     0.8840910     0.2940530
  H        2.8396270     1.3037350    -1.3040650
  H        3.1732700     2.5763490    -0.1082090
  H        1.5321020    -2.4670540    -0.6475950
  H        3.0150810    -1.5100200    -0.4652590
  H        2.6275220    -2.7764500     0.7187370
  H       -3.7600990     0.5807950     1.6744350
  H       -3.4644480     0.9408190    -0.0387940
  H       -3.4474850    -0.7394320     0.5291400
units angstrom
no_reorient  #important for SAPT in psi4, default
symmetry c1  #important for SAPT in psi4, default
}

set PROPERTIES_ORIGIN ["COM"]
properties('MP2/aug-cc-pvtz', properties = ['dipole'])
--------------------------------------------------------------------------

    Molecular point group: c1
  Charge       = 0
  Multiplicity = 1
  Basis Set: AUG-CC-PVTZ
    Blend: AUG-CC-PVTZ
  Basis Set: (AUG-CC-PVTZ AUX)
    Blend: AUG-CC-PVTZ-JKFIT

    Orbital Energies [Eh]
    ---------------------

    Doubly Occupied:

       1A    -92.191340     2A    -20.539746     3A    -20.539585
       4A    -15.592088     5A    -11.275986     6A    -11.275842
       7A    -11.274414     8A    -11.237396     9A    -11.227797
      10A    -11.216317    11A     -9.156944    12A     -6.842057
      13A     -6.841313    14A     -6.841191    15A     -1.444356
      16A     -1.327693    17A     -1.249803    18A     -1.076503
      19A     -1.046510    20A     -1.009697    21A     -0.916057
      22A     -0.870707    23A     -0.857752    24A     -0.774439
      25A     -0.720451    26A     -0.671664    27A     -0.668177
      28A     -0.652098    29A     -0.641088    30A     -0.612271
      31A     -0.600126    32A     -0.577735    33A     -0.570117
      34A     -0.549729    35A     -0.544551    36A     -0.538742
      37A     -0.528589    38A     -0.519665    39A     -0.512390
      40A     -0.498376    41A     -0.489959    42A     -0.486678
      43A     -0.461202    44A     -0.446486    45A     -0.393794

  @DF-RHF Final Energy:  -837.77684806941443

   => Energetics <=

    Nuclear Repulsion Energy =            743.5430296999595612
    One-Electron Energy =               -2626.0209149429797435
    Two-Electron Energy =                1044.7010371736057550
    Total Energy =                       -837.7768480694144273
  Basis Set: (AUG-CC-PVTZ AUX)
    Blend: AUG-CC-PVTZ-RI
    Molecular point group: c1

    Geometry (in Angstrom), charge = 0, multiplicity = 1:

       Center              X                  Y                   Z               Mass
    ------------   -----------------  -----------------  -----------------  -----------------
         S           -0.738618901006    -0.068583149862    -0.365791419707    31.972071174400
         O           -1.011331901006     0.930886850138    -1.401089419707    15.994914619570
         O           -0.967268901006    -1.497208149862    -0.598720419707    15.994914619570
         N            0.854145698994     0.087073250138     0.081475280293    14.003074004430
         C            1.381639098994     1.438212850138     0.269249580293    12.000000000000
         C            1.422479098994    -0.993883149862     0.902960580293    12.000000000000
         C           -1.684941301006     0.403681750138     1.083624880293    12.000000000000
         C            2.808472098994     1.552882850138    -0.243958419707    12.000000000000
         C            2.201838098994    -2.000301149862     0.073330580293    12.000000000000
         C           -3.189510901006     0.287308850138     0.788440580293    12.000000000000
         H            0.743566098994     2.122867850138    -0.290276419707     1.007825032230
         H            1.334608098994     1.714978850138     1.333936580293     1.007825032230
         H            2.063062098994    -0.520217149862     1.654830580293     1.007825032230
         H            0.623347098994    -1.510889149862     1.444564580293     1.007825032230
         H           -1.390768901006    -0.258214149862     1.891981580293     1.007825032230
         H           -1.409889901006     1.426783850138     1.322430580293     1.007825032230
         H            3.485516098994     0.883529850138     0.292358580293     1.007825032230
         H            2.839008098994     1.303173850138    -1.305759419707     1.007825032230
         H            3.172651098994     2.575787850138    -0.109903419707     1.007825032230
         H            1.531483098994    -2.467615149862    -0.649289419707     1.007825032230
         H            3.014462098994    -1.510581149862    -0.466953419707     1.007825032230
         H            2.626903098994    -2.777011149862     0.717042580293     1.007825032230
         H           -3.760717901006     0.580233850138     1.672740580293     1.007825032230
         H           -3.465066901006     0.940257850138    -0.040488419707     1.007825032230
         H           -3.448103901006    -0.739993149862     0.527445580293     1.007825032230

  Basis Set: AUG-CC-PVTZ
    Blend: AUG-CC-PVTZ
  Basis Set: (AUG-CC-PVTZ AUX)
    Blend: AUG-CC-PVTZ-JKFIT
	 Reference Energy          =    -837.7768480694144273 [Eh]
	 Singles Energy            =      -0.0000000000000000 [Eh]
	 Same-Spin Energy          =      -0.5167007900078343 [Eh]
	 Opposite-Spin Energy      =      -1.6696143674814972 [Eh]
	 Correlation Energy        =      -2.1863151574893314 [Eh]
	 Total Energy              =    -839.9631632269037027 [Eh]

	 ================> DF-SCS-MP2 Energies <==================
	-----------------------------------------------------------
	 SCS Same-Spin Scale       =       0.3333333333333333 [-]
	 SCS Opposite-Spin Scale   =       1.2000000000000000 [-]
	 SCS Same-Spin Energy      =      -0.1722335966692781 [Eh]
	 SCS Opposite-Spin Energy  =      -2.0035372409777965 [Eh]
	 SCS Correlation Energy    =      -2.1757708376470748 [Eh]
	 SCS Total Energy          =    -839.9526189070614919 [Eh]
	-----------------------------------------------------------

  Dipole Moment: [D]
     X:     1.5875      Y:     1.4282      Z:     4.2762     Total:     4.7797

*** Psi4 exiting successfully. Buy a developer a beer!
