                               Psi4 1.3.2 release

  ==> Input File <==

--------------------------------------------------------------------------
#psi4
#
memory 32 gb

molecule  {
0 1
  S       -0.7380000    -0.0680220    -0.3640970
  O       -1.0107130     0.9314480    -1.3993950
  O       -0.9666500    -1.4966470    -0.5970260
  N        0.8627858     0.0789561     0.0566852
  C        1.3822580     1.4387740     0.2709440
  C        1.4230980    -0.9933220     0.9046550
  C       -1.7107825     0.3988793     1.0694529
  C        2.8090910     1.5534440    -0.2422640
  C        2.2024570    -1.9997400     0.0750250
  C       -3.1888920     0.2878700     0.7901350
  H        0.7441850     2.1234290    -0.2885820
  H        1.3352270     1.7155400     1.3356310
  H        2.0636810    -0.5196560     1.6565250
  H        0.6239660    -1.5103280     1.4462590
  H       -1.3901500    -0.2576530     1.8936760
  H       -1.4092710     1.4273450     1.3241250
  H        3.4861350     0.8840910     0.2940530
  H        2.8396270     1.3037350    -1.3040650
  H        3.1732700     2.5763490    -0.1082090
  H        1.5321020    -2.4670540    -0.6475950
  H        3.0150810    -1.5100200    -0.4652590
  H        2.6275220    -2.7764500     0.7187370
  H       -3.7600990     0.5807950     1.6744350
  H       -3.4644480     0.9408190    -0.0387940
  H       -3.4474850    -0.7394320     0.5291400
units angstrom
no_reorient  #important for SAPT in psi4, default
symmetry c1  #important for SAPT in psi4, default
}

set PROPERTIES_ORIGIN ["COM"]
properties('MP2/aug-cc-pvtz', properties = ['dipole'])
--------------------------------------------------------------------------

    Molecular point group: c1
  Charge       = 0
  Multiplicity = 1
  Basis Set: AUG-CC-PVTZ
    Blend: AUG-CC-PVTZ
  Basis Set: (AUG-CC-PVTZ AUX)
    Blend: AUG-CC-PVTZ-JKFIT

    Orbital Energies [Eh]
    ---------------------

    Doubly Occupied:

       1A    -92.190277     2A    -20.538093     3A    -20.537840
       4A    -15.594959     5A    -11.276917     6A    -11.276566
       7A    -11.276374     8A    -11.236247     9A    -11.228049
      10A    -11.216217    11A     -9.156061    12A     -6.841134
      13A     -6.840385    14A     -6.840329    15A     -1.443557
      16A     -1.326515    17A     -1.248228    18A     -1.080230
      19A     -1.046358    20A     -1.010482    21A     -0.915986
      22A     -0.869243    23A     -0.856994    24A     -0.774143
      25A     -0.720444    26A     -0.670462    27A     -0.666729
      28A     -0.651454    29A     -0.641304    30A     -0.611645
      31A     -0.599818    32A     -0.577655    33A     -0.574240
      34A     -0.550095    35A     -0.544544    36A     -0.541511
      37A     -0.525461    38A     -0.519201    39A     -0.511652
      40A     -0.497219    41A     -0.488417    42A     -0.485097
      43A     -0.459580    44A     -0.445631    45A     -0.397730

  @DF-RHF Final Energy:  -837.77617553995788

   => Energetics <=

    Nuclear Repulsion Energy =            743.4745347311081787
    One-Electron Energy =               -2625.8992746522785637
    Two-Electron Energy =                1044.6485643812125090
    Total Energy =                       -837.7761755399578760
  Basis Set: (AUG-CC-PVTZ AUX)
    Blend: AUG-CC-PVTZ-RI
    Molecular point group: c1

    Geometry (in Angstrom), charge = 0, multiplicity = 1:

       Center              X                  Y                   Z               Mass
    ------------   -----------------  -----------------  -----------------  -----------------
         S           -0.737375886577    -0.067457129562    -0.362391533445    31.972071174400
         O           -1.010088886577     0.932012870438    -1.397689533445    15.994914619570
         O           -0.966025886577    -1.496082129562    -0.595320533445    15.994914619570
         N            0.863409913423     0.079520970438     0.058390666555    14.003074004430
         C            1.382882113423     1.439338870438     0.272649466555    12.000000000000
         C            1.423722113423    -0.992757129562     0.906360466555    12.000000000000
         C           -1.710158386577     0.399444170438     1.071158366555    12.000000000000
         C            2.809715113423     1.554008870438    -0.240558533445    12.000000000000
         C            2.203081113423    -1.999175129562     0.076730466555    12.000000000000
         C           -3.188267886577     0.288434870438     0.791840466555    12.000000000000
         H            0.744809113423     2.123993870438    -0.286876533445     1.007825032230
         H            1.335851113423     1.716104870438     1.337336466555     1.007825032230
         H            2.064305113423    -0.519091129562     1.658230466555     1.007825032230
         H            0.624590113423    -1.509763129562     1.447964466555     1.007825032230
         H           -1.389525886577    -0.257088129562     1.895381466555     1.007825032230
         H           -1.408646886577     1.427909870438     1.325830466555     1.007825032230
         H            3.486759113423     0.884655870438     0.295758466555     1.007825032230
         H            2.840251113423     1.304299870438    -1.302359533445     1.007825032230
         H            3.173894113423     2.576913870438    -0.106503533445     1.007825032230
         H            1.532726113423    -2.466489129562    -0.645889533445     1.007825032230
         H            3.015705113423    -1.509455129562    -0.463553533445     1.007825032230
         H            2.628146113423    -2.775885129562     0.720442466555     1.007825032230
         H           -3.759474886577     0.581359870438     1.676140466555     1.007825032230
         H           -3.463823886577     0.941383870438    -0.037088533445     1.007825032230
         H           -3.446860886577    -0.738867129562     0.530845466555     1.007825032230

  Basis Set: AUG-CC-PVTZ
    Blend: AUG-CC-PVTZ
  Basis Set: (AUG-CC-PVTZ AUX)
    Blend: AUG-CC-PVTZ-JKFIT
	 Reference Energy          =    -837.7761755399578760 [Eh]
	 Singles Energy            =      -0.0000000000000000 [Eh]
	 Same-Spin Energy          =      -0.5168716168609910 [Eh]
	 Opposite-Spin Energy      =      -1.6698949119024338 [Eh]
	 Correlation Energy        =      -2.1867665287634246 [Eh]
	 Total Energy              =    -839.9629420687213042 [Eh]

	 ================> DF-SCS-MP2 Energies <==================
	-----------------------------------------------------------
	 SCS Same-Spin Scale       =       0.3333333333333333 [-]
	 SCS Opposite-Spin Scale   =       1.2000000000000000 [-]
	 SCS Same-Spin Energy      =      -0.1722905389536637 [Eh]
	 SCS Opposite-Spin Energy  =      -2.0038738942829206 [Eh]
	 SCS Correlation Energy    =      -2.1761644332365844 [Eh]
	 SCS Total Energy          =    -839.9523399731945119 [Eh]
	-----------------------------------------------------------

  Dipole Moment: [D]
     X:     1.5950      Y:     1.4544      Z:     4.3490     Total:     4.8552

*** Psi4 exiting successfully. Buy a developer a beer!
