                               Psi4 1.4a3.dev225

  ==> Input File <==

--------------------------------------------------------------------------
#psi4
#
memory 32 gb

molecule  {
0 1
  S        0.7616280     0.0424770    -0.4366460
  O        1.0024240    -1.0592090    -1.3727360
  O        0.9495440     1.4436620    -0.8249950
  N       -0.7603858    -0.0842828     0.0772019
  C       -1.3185710    -1.4233650     0.4283730
  C       -1.3686840     1.0652840     0.8208400
  C        1.8058710    -0.2545270     0.9952940
  C       -2.7505920    -1.6006810    -0.0558370
  C       -2.1814690     1.9714470    -0.0911900
  C        3.2787560    -0.1326200     0.6229570
  H       -0.6761480    -2.1530350    -0.0688350
  H       -1.2569730    -1.5943860     1.5141500
  H       -1.9866060     0.6632120     1.6319710
  H       -0.5646970     1.6429440     1.2905320
  H        1.5186250     0.4781900     1.7554980
  H        1.5601880    -1.2573080     1.3582850
  H       -3.4295210    -0.8918450     0.4253230
  H       -2.7963610    -1.4499180    -1.1363750
  H       -3.1014500    -2.6111540     0.1760480
  H       -1.5338360     2.3728670    -0.8718090
  H       -2.9953600     1.4152720    -0.5615490
  H       -2.6084920     2.8033720     0.4789350
  H        3.8991710    -0.3169240     1.5035790
  H        3.5375790    -0.8611900    -0.1476860
  H        3.4935140     0.8689240     0.2454810
units angstrom
no_reorient  #important for SAPT in psi4, default
symmetry c1  #important for SAPT in psi4, default
}

set PROPERTIES_ORIGIN ["COM"]
properties('MP2/aug-cc-pvtz', properties = ['dipole'])
--------------------------------------------------------------------------

    Molecular point group: c1
  Charge       = 0
  Multiplicity = 1
  Basis Set: AUG-CC-PVTZ
    Blend: AUG-CC-PVTZ
  Basis Set: (AUG-CC-PVTZ AUX)
    Blend: AUG-CC-PVTZ-JKFIT

    Orbital Energies [Eh]
    ---------------------

    Doubly Occupied:

       1A    -92.188080     2A    -20.535333     3A    -20.535173
       4A    -15.593330     5A    -11.280814     6A    -11.280255
       7A    -11.272279     8A    -11.234483     9A    -11.230651
      10A    -11.218180    11A     -9.153875    12A     -6.839200
      13A     -6.838278    14A     -6.838141    15A     -1.443867
      16A     -1.324333    17A     -1.246717    18A     -1.074818
      19A     -1.044836    20A     -1.016960    21A     -0.913489
      22A     -0.868692    23A     -0.862441    24A     -0.771487
      25A     -0.717236    26A     -0.671101    27A     -0.666742
      28A     -0.648897    29A     -0.640251    30A     -0.610621
      31A     -0.597279    32A     -0.578306    33A     -0.571208
      34A     -0.548659    35A     -0.545150    36A     -0.539424
      37A     -0.525027    38A     -0.519562    39A     -0.513061
      40A     -0.496375    41A     -0.489677    42A     -0.482744
      43A     -0.457855    44A     -0.445596    45A     -0.399931

  @DF-RHF Final Energy:  -837.77605074934456

   => Energetics <=

    Nuclear Repulsion Energy =            743.7191098503774356
    One-Electron Energy =               -2626.4494980627041514
    Two-Electron Energy =                1044.9543374629820391
    Total Energy =                       -837.7760507493446767
  Basis Set: (AUG-CC-PVTZ AUX)
    Blend: AUG-CC-PVTZ-RI
    Molecular point group: c1

    Geometry (in Angstrom), charge = 0, multiplicity = 1:

       Center              X                  Y                   Z               Mass
    ------------   -----------------  -----------------  -----------------  -----------------
         S            0.716113116645     0.036809178134    -0.389798344756    31.972071174400
         O            0.956909116645    -1.064876821866    -1.325888344756    15.994914619570
         O            0.904029116645     1.437994178134    -0.778147344756    15.994914619570
         N           -0.805900683355    -0.089950621866     0.124049555244    14.003074004430
         C           -1.364085883355    -1.429032821866     0.475220655244    12.000000000000
         C           -1.414198883355     1.059616178134     0.867687655244    12.000000000000
         C            1.760356116645    -0.260194821866     1.042141655244    12.000000000000
         C           -2.796106883355    -1.606348821866    -0.008989344756    12.000000000000
         C           -2.226983883355     1.965779178134    -0.044342344756    12.000000000000
         C            3.233241116645    -0.138287821866     0.669804655244    12.000000000000
         H           -0.721662883355    -2.158702821866    -0.021987344756     1.007825032230
         H           -1.302487883355    -1.600053821866     1.560997655244     1.007825032230
         H           -2.032120883355     0.657544178134     1.678818655244     1.007825032230
         H           -0.610211883355     1.637276178134     1.337379655244     1.007825032230
         H            1.473110116645     0.472522178134     1.802345655244     1.007825032230
         H            1.514673116645    -1.262975821866     1.405132655244     1.007825032230
         H           -3.475035883355    -0.897512821866     0.472170655244     1.007825032230
         H           -2.841875883355    -1.455585821866    -1.089527344756     1.007825032230
         H           -3.146964883355    -2.616821821866     0.222895655244     1.007825032230
         H           -1.579350883355     2.367199178134    -0.824961344756     1.007825032230
         H           -3.040874883355     1.409604178134    -0.514701344756     1.007825032230
         H           -2.654006883355     2.797704178134     0.525782655244     1.007825032230
         H            3.853656116645    -0.322591821866     1.550426655244     1.007825032230
         H            3.492064116645    -0.866857821866    -0.100838344756     1.007825032230
         H            3.447999116645     0.863256178134     0.292328655244     1.007825032230

  Basis Set: AUG-CC-PVTZ
    Blend: AUG-CC-PVTZ
  Basis Set: (AUG-CC-PVTZ AUX)
    Blend: AUG-CC-PVTZ-JKFIT
	 Reference Energy          =    -837.7760507493445630 [Eh]
	 Singles Energy            =      -0.0000000000000000 [Eh]
	 Same-Spin Energy          =      -0.5161745386614284 [Eh]
	 Opposite-Spin Energy      =      -1.6688666102679837 [Eh]
	 Correlation Energy        =      -2.1850411489294119 [Eh]
	 Total Energy              =    -839.9610918982739349 [Eh]

	 ================> DF-SCS-MP2 Energies <==================
	-----------------------------------------------------------
	 SCS Same-Spin Scale       =       0.3333333333333333 [-]
	 SCS Opposite-Spin Scale   =       1.2000000000000000 [-]
	 SCS Same-Spin Energy      =      -0.1720581795538094 [Eh]
	 SCS Opposite-Spin Energy  =      -2.0026399323215802 [Eh]
	 SCS Correlation Energy    =      -2.1746981118753896 [Eh]
	 SCS Total Energy          =    -839.9507488612199495 [Eh]
	-----------------------------------------------------------

  Dipole Moment: [D]
     X:    -1.7263      Y:    -1.0065      Z:     4.5302     Total:     4.9513

*** Psi4 exiting successfully. Buy a developer a beer!
