                               Psi4 1.3.2 release

  ==> Input File <==

--------------------------------------------------------------------------
#psi4
#
memory 32 gb

molecule  {
0 1
  S       -0.7380000    -0.0680220    -0.3640970
  O       -1.0419898     0.9553754    -1.3667946
  O       -0.9666500    -1.4966470    -0.5970260
  N        0.8588360     0.0833010     0.0699440
  C        1.3822580     1.4387740     0.2709440
  C        1.4230980    -0.9933220     0.9046550
  C       -1.7193239     0.4509000     1.0455453
  C        2.8090910     1.5534440    -0.2422640
  C        2.2024570    -1.9997400     0.0750250
  C       -3.1888920     0.2878700     0.7901350
  H        0.7441850     2.1234290    -0.2885820
  H        1.3352270     1.7155400     1.3356310
  H        2.0636810    -0.5196560     1.6565250
  H        0.6239660    -1.5103280     1.4462590
  H       -1.3901500    -0.2576530     1.8936760
  H       -1.4092710     1.4273450     1.3241250
  H        3.4861350     0.8840910     0.2940530
  H        2.8396270     1.3037350    -1.3040650
  H        3.1732700     2.5763490    -0.1082090
  H        1.5321020    -2.4670540    -0.6475950
  H        3.0150810    -1.5100200    -0.4652590
  H        2.6275220    -2.7764500     0.7187370
  H       -3.7600990     0.5807950     1.6744350
  H       -3.4644480     0.9408190    -0.0387940
  H       -3.4474850    -0.7394320     0.5291400
units angstrom
no_reorient  #important for SAPT in psi4, default
symmetry c1  #important for SAPT in psi4, default
}

set PROPERTIES_ORIGIN ["COM"]
properties('MP2/aug-cc-pvtz', properties = ['dipole'])
--------------------------------------------------------------------------

    Molecular point group: c1
  Charge       = 0
  Multiplicity = 1
  Basis Set: AUG-CC-PVTZ
    Blend: AUG-CC-PVTZ
  Basis Set: (AUG-CC-PVTZ AUX)
    Blend: AUG-CC-PVTZ-JKFIT

    Orbital Energies [Eh]
    ---------------------

    Doubly Occupied:

       1A    -92.191182     2A    -20.542037     3A    -20.536783
       4A    -15.596031     5A    -11.277260     6A    -11.276855
       7A    -11.274276     8A    -11.234123     9A    -11.228683
      10A    -11.216992    11A     -9.156813    12A     -6.841895
      13A     -6.841218    14A     -6.841031    15A     -1.444377
      16A     -1.328629    17A     -1.250431    18A     -1.078887
      19A     -1.047290    20A     -1.011314    21A     -0.915278
      22A     -0.870776    23A     -0.857339    24A     -0.773876
      25A     -0.721315    26A     -0.672785    27A     -0.665181
      28A     -0.650123    29A     -0.641069    30A     -0.612159
      31A     -0.600841    32A     -0.578658    33A     -0.575272
      34A     -0.550747    35A     -0.545859    36A     -0.543940
      37A     -0.522659    38A     -0.517243    39A     -0.511942
      40A     -0.496767    41A     -0.489938    42A     -0.485815
      43A     -0.461310    44A     -0.443461    45A     -0.397106

  @DF-RHF Final Energy:  -837.77137967274575

   => Energetics <=

    Nuclear Repulsion Energy =            743.6213208273725286
    One-Electron Energy =               -2626.1502698341173527
    Two-Electron Energy =                1044.7575693339990721
    Total Energy =                       -837.7713796727457520
  Basis Set: (AUG-CC-PVTZ AUX)
    Blend: AUG-CC-PVTZ-RI
    Molecular point group: c1

    Geometry (in Angstrom), charge = 0, multiplicity = 1:

       Center              X                  Y                   Z               Mass
    ------------   -----------------  -----------------  -----------------  -----------------
         S           -0.733389537415    -0.073925459320    -0.364937010732    31.972071174400
         O           -1.037379337415     0.949471940680    -1.367634610732    15.994914619570
         O           -0.962039537415    -1.502550459320    -0.597866010732    15.994914619570
         N            0.863446462585     0.077397540680     0.069103989268    14.003074004430
         C            1.386868462585     1.432870540680     0.270103989268    12.000000000000
         C            1.427708462585    -0.999225459320     0.903814989268    12.000000000000
         C           -1.714713437415     0.444996540680     1.044705289268    12.000000000000
         C            2.813701462585     1.547540540680    -0.243104010732    12.000000000000
         C            2.207067462585    -2.005643459320     0.074184989268    12.000000000000
         C           -3.184281537415     0.281966540680     0.789294989268    12.000000000000
         H            0.748795462585     2.117525540680    -0.289422010732     1.007825032230
         H            1.339837462585     1.709636540680     1.334790989268     1.007825032230
         H            2.068291462585    -0.525559459320     1.655684989268     1.007825032230
         H            0.628576462585    -1.516231459320     1.445418989268     1.007825032230
         H           -1.385539537415    -0.263556459320     1.892835989268     1.007825032230
         H           -1.404660537415     1.421441540680     1.323284989268     1.007825032230
         H            3.490745462585     0.878187540680     0.293212989268     1.007825032230
         H            2.844237462585     1.297831540680    -1.304905010732     1.007825032230
         H            3.177880462585     2.570445540680    -0.109049010732     1.007825032230
         H            1.536712462585    -2.472957459320    -0.648435010732     1.007825032230
         H            3.019691462585    -1.515923459320    -0.466099010732     1.007825032230
         H            2.632132462585    -2.782353459320     0.717896989268     1.007825032230
         H           -3.755488537415     0.574891540680     1.673594989268     1.007825032230
         H           -3.459837537415     0.934915540680    -0.039634010732     1.007825032230
         H           -3.442874537415    -0.745335459320     0.528299989268     1.007825032230

  Basis Set: AUG-CC-PVTZ
    Blend: AUG-CC-PVTZ
  Basis Set: (AUG-CC-PVTZ AUX)
    Blend: AUG-CC-PVTZ-JKFIT
	 Reference Energy          =    -837.7713796727457520 [Eh]
	 Singles Energy            =      -0.0000000000000000 [Eh]
	 Same-Spin Energy          =      -0.5171355332164465 [Eh]
	 Opposite-Spin Energy      =      -1.6703297863933266 [Eh]
	 Correlation Energy        =      -2.1874653196097729 [Eh]
	 Total Energy              =    -839.9588449923555800 [Eh]

	 ================> DF-SCS-MP2 Energies <==================
	-----------------------------------------------------------
	 SCS Same-Spin Scale       =       0.3333333333333333 [-]
	 SCS Opposite-Spin Scale   =       1.2000000000000000 [-]
	 SCS Same-Spin Energy      =      -0.1723785110721488 [Eh]
	 SCS Opposite-Spin Energy  =      -2.0043957436719917 [Eh]
	 SCS Correlation Energy    =      -2.1767742547441404 [Eh]
	 SCS Total Energy          =    -839.9481539274898978 [Eh]
	-----------------------------------------------------------

  Dipole Moment: [D]
     X:     1.7215      Y:     1.3794      Z:     4.2241     Total:     4.7655

*** Psi4 exiting successfully. Buy a developer a beer!
