                               Psi4 1.3.2 release

  ==> Input File <==

--------------------------------------------------------------------------
#psi4
#
memory 32 gb

molecule  {
0 1
  S       -0.7380000    -0.0680220    -0.3640970
  O       -1.0107130     0.9314480    -1.3993950
  O       -0.9666500    -1.4966470    -0.5970260
  N        0.8588360     0.0833010     0.0699440
  C        1.3503901     1.4555122     0.2345331
  C        1.3918482    -1.0267429     0.8810862
  C       -1.6975890     0.4015790     1.0774410
  C        2.8090910     1.5534440    -0.2422640
  C        2.2024570    -1.9997400     0.0750250
  C       -3.1888920     0.2878700     0.7901350
  H        0.7441850     2.1234290    -0.2885820
  H        1.3352270     1.7155400     1.3356310
  H        2.0636810    -0.5196560     1.6565250
  H        0.6239660    -1.5103280     1.4462590
  H       -1.3901500    -0.2576530     1.8936760
  H       -1.4092710     1.4273450     1.3241250
  H        3.4861350     0.8840910     0.2940530
  H        2.8396270     1.3037350    -1.3040650
  H        3.1732700     2.5763490    -0.1082090
  H        1.5321020    -2.4670540    -0.6475950
  H        3.0150810    -1.5100200    -0.4652590
  H        2.6275220    -2.7764500     0.7187370
  H       -3.7600990     0.5807950     1.6744350
  H       -3.4644480     0.9408190    -0.0387940
  H       -3.4474850    -0.7394320     0.5291400
units angstrom
no_reorient  #important for SAPT in psi4, default
symmetry c1  #important for SAPT in psi4, default
}

set PROPERTIES_ORIGIN ["COM"]
properties('MP2/aug-cc-pvtz', properties = ['dipole'])
--------------------------------------------------------------------------

    Molecular point group: c1
  Charge       = 0
  Multiplicity = 1
  Basis Set: AUG-CC-PVTZ
    Blend: AUG-CC-PVTZ
  Basis Set: (AUG-CC-PVTZ AUX)
    Blend: AUG-CC-PVTZ-JKFIT

    Orbital Energies [Eh]
    ---------------------

    Doubly Occupied:

       1A    -92.189474     2A    -20.538301     3A    -20.538137
       4A    -15.594553     5A    -11.278922     6A    -11.277554
       7A    -11.275445     8A    -11.236826     9A    -11.228562
      10A    -11.216377    11A     -9.155390    12A     -6.840436
      13A     -6.839742    14A     -6.839632    15A     -1.443944
      16A     -1.326938    17A     -1.249061    18A     -1.078179
      19A     -1.049096    20A     -1.009852    21A     -0.915439
      22A     -0.873818    23A     -0.854431    24A     -0.775082
      25A     -0.724230    26A     -0.669532    27A     -0.666588
      28A     -0.649567    29A     -0.642463    30A     -0.610548
      31A     -0.604121    32A     -0.576707    33A     -0.571858
      34A     -0.550600    35A     -0.546367    36A     -0.543279
      37A     -0.527152    38A     -0.516825    39A     -0.513689
      40A     -0.502010    41A     -0.487537    42A     -0.484387
      43A     -0.460162    44A     -0.442808    45A     -0.394792

  @DF-RHF Final Energy:  -837.77060144362235

   => Energetics <=

    Nuclear Repulsion Energy =            743.9713847005124308
    One-Electron Energy =               -2626.8631464071586379
    Two-Electron Energy =                1045.1211602630239668
    Total Energy =                       -837.7706014436223541
  Basis Set: (AUG-CC-PVTZ AUX)
    Blend: AUG-CC-PVTZ-RI
    Molecular point group: c1

    Geometry (in Angstrom), charge = 0, multiplicity = 1:

       Center              X                  Y                   Z               Mass
    ------------   -----------------  -----------------  -----------------  -----------------
         S           -0.733411805971    -0.066809246589    -0.359736887187    31.972071174400
         O           -1.006124805971     0.932660753411    -1.395034887187    15.994914619570
         O           -0.962061805971    -1.495434246589    -0.592665887187    15.994914619570
         N            0.863424194029     0.084513753411     0.074304112813    14.003074004430
         C            1.354978294029     1.456724953411     0.238893212813    12.000000000000
         C            1.396436394029    -1.025530146589     0.885446312813    12.000000000000
         C           -1.693000805971     0.402791753411     1.081801112813    12.000000000000
         C            2.813679194029     1.554656753411    -0.237903887187    12.000000000000
         C            2.207045194029    -1.998527246589     0.079385112813    12.000000000000
         C           -3.184303805971     0.289082753411     0.794495112813    12.000000000000
         H            0.748773194029     2.124641753411    -0.284221887187     1.007825032230
         H            1.339815194029     1.716752753411     1.339991112813     1.007825032230
         H            2.068269194029    -0.518443246589     1.660885112813     1.007825032230
         H            0.628554194029    -1.509115246589     1.450619112813     1.007825032230
         H           -1.385561805971    -0.256440246589     1.898036112813     1.007825032230
         H           -1.404682805971     1.428557753411     1.328485112813     1.007825032230
         H            3.490723194029     0.885303753411     0.298413112813     1.007825032230
         H            2.844215194029     1.304947753411    -1.299704887187     1.007825032230
         H            3.177858194029     2.577561753411    -0.103848887187     1.007825032230
         H            1.536690194029    -2.465841246589    -0.643234887187     1.007825032230
         H            3.019669194029    -1.508807246589    -0.460898887187     1.007825032230
         H            2.632110194029    -2.775237246589     0.723097112813     1.007825032230
         H           -3.755510805971     0.582007753411     1.678795112813     1.007825032230
         H           -3.459859805971     0.942031753411    -0.034433887187     1.007825032230
         H           -3.442896805971    -0.738219246589     0.533500112813     1.007825032230

  Basis Set: AUG-CC-PVTZ
    Blend: AUG-CC-PVTZ
  Basis Set: (AUG-CC-PVTZ AUX)
    Blend: AUG-CC-PVTZ-JKFIT
	 Reference Energy          =    -837.7706014436223541 [Eh]
	 Singles Energy            =      -0.0000000000000000 [Eh]
	 Same-Spin Energy          =      -0.5168370275192149 [Eh]
	 Opposite-Spin Energy      =      -1.6698730617733419 [Eh]
	 Correlation Energy        =      -2.1867100892925571 [Eh]
	 Total Energy              =    -839.9573115329149005 [Eh]

	 ================> DF-SCS-MP2 Energies <==================
	-----------------------------------------------------------
	 SCS Same-Spin Scale       =       0.3333333333333333 [-]
	 SCS Opposite-Spin Scale   =       1.2000000000000000 [-]
	 SCS Same-Spin Energy      =      -0.1722790091730716 [Eh]
	 SCS Opposite-Spin Energy  =      -2.0038476741280102 [Eh]
	 SCS Correlation Energy    =      -2.1761266833010819 [Eh]
	 SCS Total Energy          =    -839.9467281269234036 [Eh]
	-----------------------------------------------------------

  Dipole Moment: [D]
     X:     1.5978      Y:     1.3921      Z:     4.2660     Total:     4.7633

*** Psi4 exiting successfully. Buy a developer a beer!
