                               Psi4 1.4a3.dev225

  ==> Input File <==

--------------------------------------------------------------------------
#psi4
#
memory 32 gb

molecule  {
0 1
  S        0.7616280     0.0424770    -0.4366460
  O        1.0024240    -1.0592090    -1.3727360
  O        0.9495440     1.4436620    -0.8249950
  N       -0.8076120    -0.0882160     0.0931460
  C       -1.3359700    -1.4688290     0.4397880
  C       -1.3686840     1.0652840     0.8208400
  C        1.8058710    -0.2545270     0.9952940
  C       -2.7505920    -1.6006810    -0.0558370
  C       -2.1814690     1.9714470    -0.0911900
  C        3.2787560    -0.1326200     0.6229570
  H       -0.6761480    -2.1530350    -0.0688350
  H       -1.2569730    -1.5943860     1.5141500
  H       -1.9866060     0.6632120     1.6319710
  H       -0.5646970     1.6429440     1.2905320
  H        1.5186250     0.4781900     1.7554980
  H        1.5601880    -1.2573080     1.3582850
  H       -3.4295210    -0.8918450     0.4253230
  H       -2.7963610    -1.4499180    -1.1363750
  H       -3.1014500    -2.6111540     0.1760480
  H       -1.5338360     2.3728670    -0.8718090
  H       -2.9953600     1.4152720    -0.5615490
  H       -2.6084920     2.8033720     0.4789350
  H        3.8991710    -0.3169240     1.5035790
  H        3.5375790    -0.8611900    -0.1476860
  H        3.4935140     0.8689240     0.2454810
units angstrom
no_reorient  #important for SAPT in psi4, default
symmetry c1  #important for SAPT in psi4, default
}

set PROPERTIES_ORIGIN ["COM"]
properties('MP2/aug-cc-pvtz', properties = ['dipole'])
--------------------------------------------------------------------------

    Molecular point group: c1
  Charge       = 0
  Multiplicity = 1
  Basis Set: AUG-CC-PVTZ
    Blend: AUG-CC-PVTZ
  Basis Set: (AUG-CC-PVTZ AUX)
    Blend: AUG-CC-PVTZ-JKFIT

    Orbital Energies [Eh]
    ---------------------

    Doubly Occupied:

       1A    -92.189465     2A    -20.537871     3A    -20.537289
       4A    -15.590615     5A    -11.278592     6A    -11.274935
       7A    -11.274456     8A    -11.235995     9A    -11.229115
      10A    -11.215090    11A     -9.154909    12A     -6.839991
      13A     -6.839286    14A     -6.839196    15A     -1.441362
      16A     -1.325614    17A     -1.237372    18A     -1.076059
      19A     -1.048007    20A     -1.009758    21A     -0.913601
      22A     -0.868505    23A     -0.856314    24A     -0.772846
      25A     -0.715279    26A     -0.669049    27A     -0.665591
      28A     -0.650773    29A     -0.640448    30A     -0.610952
      31A     -0.596306    32A     -0.578144    33A     -0.570935
      34A     -0.552217    35A     -0.546031    36A     -0.538061
      37A     -0.525111    38A     -0.519772    39A     -0.513693
      40A     -0.499417    41A     -0.487943    42A     -0.482055
      43A     -0.459846    44A     -0.443260    45A     -0.394633

  @DF-RHF Final Energy:  -837.77450888581643

   => Energetics <=

    Nuclear Repulsion Energy =            741.7974635802494277
    One-Electron Energy =               -2622.6524271616272017
    Two-Electron Energy =                1043.0804546955614569
    Total Energy =                       -837.7745088858164308
  Basis Set: (AUG-CC-PVTZ AUX)
    Blend: AUG-CC-PVTZ-RI
    Molecular point group: c1

    Geometry (in Angstrom), charge = 0, multiplicity = 1:

       Center              X                  Y                   Z               Mass
    ------------   -----------------  -----------------  -----------------  -----------------
         S            0.721383819261     0.040447634281    -0.391980567220    31.972071174400
         O            0.962179819261    -1.061238365719    -1.328070567220    15.994914619570
         O            0.909299819261     1.441632634281    -0.780329567220    15.994914619570
         N           -0.847856180739    -0.090245365719     0.137811432780    14.003074004430
         C           -1.376214180739    -1.470858365719     0.484453432780    12.000000000000
         C           -1.408928180739     1.063254634281     0.865505432780    12.000000000000
         C            1.765626819261    -0.256556365719     1.039959432780    12.000000000000
         C           -2.790836180739    -1.602710365719    -0.011171567220    12.000000000000
         C           -2.221713180739     1.969417634281    -0.046524567220    12.000000000000
         C            3.238511819261    -0.134649365719     0.667622432780    12.000000000000
         H           -0.716392180739    -2.155064365719    -0.024169567220     1.007825032230
         H           -1.297217180739    -1.596415365719     1.558815432780     1.007825032230
         H           -2.026850180739     0.661182634281     1.676636432780     1.007825032230
         H           -0.604941180739     1.640914634281     1.335197432780     1.007825032230
         H            1.478380819261     0.476160634281     1.800163432780     1.007825032230
         H            1.519943819261    -1.259337365719     1.402950432780     1.007825032230
         H           -3.469765180739    -0.893874365719     0.469988432780     1.007825032230
         H           -2.836605180739    -1.451947365719    -1.091709567220     1.007825032230
         H           -3.141694180739    -2.613183365719     0.220713432780     1.007825032230
         H           -1.574080180739     2.370837634281    -0.827143567220     1.007825032230
         H           -3.035604180739     1.413242634281    -0.516883567220     1.007825032230
         H           -2.648736180739     2.801342634281     0.523600432780     1.007825032230
         H            3.858926819261    -0.318953365719     1.548244432780     1.007825032230
         H            3.497334819261    -0.863219365719    -0.103020567220     1.007825032230
         H            3.453269819261     0.866894634281     0.290146432780     1.007825032230

  Basis Set: AUG-CC-PVTZ
    Blend: AUG-CC-PVTZ
  Basis Set: (AUG-CC-PVTZ AUX)
    Blend: AUG-CC-PVTZ-JKFIT
	 Reference Energy          =    -837.7745088858164308 [Eh]
	 Singles Energy            =      -0.0000000000000000 [Eh]
	 Same-Spin Energy          =      -0.5165518386552976 [Eh]
	 Opposite-Spin Energy      =      -1.6698894531593478 [Eh]
	 Correlation Energy        =      -2.1864412918146456 [Eh]
	 Total Energy              =    -839.9609501776310481 [Eh]

	 ================> DF-SCS-MP2 Energies <==================
	-----------------------------------------------------------
	 SCS Same-Spin Scale       =       0.3333333333333333 [-]
	 SCS Opposite-Spin Scale   =       1.2000000000000000 [-]
	 SCS Same-Spin Energy      =      -0.1721839462184325 [Eh]
	 SCS Opposite-Spin Energy  =      -2.0038673437912173 [Eh]
	 SCS Correlation Energy    =      -2.1760512900096498 [Eh]
	 SCS Total Energy          =    -839.9505601758261264 [Eh]
	-----------------------------------------------------------

  Dipole Moment: [D]
     X:    -1.4950      Y:    -1.1184      Z:     4.4935     Total:     4.8660

*** Psi4 exiting successfully. Buy a developer a beer!
