                               Psi4 1.3.2 release

  ==> Input File <==

--------------------------------------------------------------------------
#psi4
#
memory 32 gb

molecule  {
0 1
  S       -0.7380000    -0.0680220    -0.3640970
  O       -1.0107130     0.9314480    -1.3993950
  O       -0.9666500    -1.4966470    -0.5970260
  N        0.9035945     0.0701094     0.0488693
  C        1.3822580     1.4387740     0.2709440
  C        1.4230980    -0.9933220     0.9046550
  C       -1.6975890     0.4015790     1.0774410
  C        2.8070462     1.5023832    -0.2566132
  C        2.2024570    -1.9997400     0.0750250
  C       -3.1888920     0.2878700     0.7901350
  H        0.7441850     2.1234290    -0.2885820
  H        1.3352270     1.7155400     1.3356310
  H        2.0636810    -0.5196560     1.6565250
  H        0.6239660    -1.5103280     1.4462590
  H       -1.3901500    -0.2576530     1.8936760
  H       -1.4092710     1.4273450     1.3241250
  H        3.4861350     0.8840910     0.2940530
  H        2.8396270     1.3037350    -1.3040650
  H        3.1732700     2.5763490    -0.1082090
  H        1.5321020    -2.4670540    -0.6475950
  H        3.0150810    -1.5100200    -0.4652590
  H        2.6275220    -2.7764500     0.7187370
  H       -3.7600990     0.5807950     1.6744350
  H       -3.4644480     0.9408190    -0.0387940
  H       -3.4474850    -0.7394320     0.5291400
units angstrom
no_reorient  #important for SAPT in psi4, default
symmetry c1  #important for SAPT in psi4, default
}

set PROPERTIES_ORIGIN ["COM"]
properties('MP2/aug-cc-pvtz', properties = ['dipole'])
--------------------------------------------------------------------------

    Molecular point group: c1
  Charge       = 0
  Multiplicity = 1
  Basis Set: AUG-CC-PVTZ
    Blend: AUG-CC-PVTZ
  Basis Set: (AUG-CC-PVTZ AUX)
    Blend: AUG-CC-PVTZ-JKFIT

    Orbital Energies [Eh]
    ---------------------

    Doubly Occupied:

       1A    -92.190943     2A    -20.540588     3A    -20.539207
       4A    -15.594237     5A    -11.278433     6A    -11.275665
       7A    -11.273497     8A    -11.238956     9A    -11.226867
      10A    -11.214390    11A     -9.156797    12A     -6.841718
      13A     -6.841056    14A     -6.841031    15A     -1.442879
      16A     -1.327794    17A     -1.247907    18A     -1.080205
      19A     -1.046745    20A     -1.004448    21A     -0.916801
      22A     -0.868866    23A     -0.853513    24A     -0.777405
      25A     -0.720987    26A     -0.670322    27A     -0.667293
      28A     -0.654205    29A     -0.643195    30A     -0.612681
      31A     -0.600157    32A     -0.578155    33A     -0.569202
      34A     -0.549615    35A     -0.545582    36A     -0.537092
      37A     -0.527424    38A     -0.519301    39A     -0.513295
      40A     -0.499529    41A     -0.489075    42A     -0.482072
      43A     -0.461252    44A     -0.444995    45A     -0.394388

  @DF-RHF Final Energy:  -837.77015018280929

   => Energetics <=

    Nuclear Repulsion Energy =            743.1637703255526048
    One-Electron Energy =               -2625.2683065442770385
    Two-Electron Energy =                1044.3343860359150312
    Total Energy =                       -837.7701501828094024
  Basis Set: (AUG-CC-PVTZ AUX)
    Blend: AUG-CC-PVTZ-RI
    Molecular point group: c1

    Geometry (in Angstrom), charge = 0, multiplicity = 1:

       Center              X                  Y                   Z               Mass
    ------------   -----------------  -----------------  -----------------  -----------------
         S           -0.741647885653    -0.063191293783    -0.361266156770    31.972071174400
         O           -1.014360885653     0.936278706217    -1.396564156770    15.994914619570
         O           -0.970297885653    -1.491816293783    -0.594195156770    15.994914619570
         N            0.899946614347     0.074940106217     0.051700143230    14.003074004430
         C            1.378610114347     1.443604706217     0.273774843230    12.000000000000
         C            1.419450114347    -0.988491293783     0.907485843230    12.000000000000
         C           -1.701236885653     0.406409706217     1.080271843230    12.000000000000
         C            2.803398314347     1.507213906217    -0.253782356770    12.000000000000
         C            2.198809114347    -1.994909293783     0.077855843230    12.000000000000
         C           -3.192539885653     0.292700706217     0.792965843230    12.000000000000
         H            0.740537114347     2.128259706217    -0.285751156770     1.007825032230
         H            1.331579114347     1.720370706217     1.338461843230     1.007825032230
         H            2.060033114347    -0.514825293783     1.659355843230     1.007825032230
         H            0.620318114347    -1.505497293783     1.449089843230     1.007825032230
         H           -1.393797885653    -0.252822293783     1.896506843230     1.007825032230
         H           -1.412918885653     1.432175706217     1.326955843230     1.007825032230
         H            3.482487114347     0.888921706217     0.296883843230     1.007825032230
         H            2.835979114347     1.308565706217    -1.301234156770     1.007825032230
         H            3.169622114347     2.581179706217    -0.105378156770     1.007825032230
         H            1.528454114347    -2.462223293783    -0.644764156770     1.007825032230
         H            3.011433114347    -1.505189293783    -0.462428156770     1.007825032230
         H            2.623874114347    -2.771619293783     0.721567843230     1.007825032230
         H           -3.763746885653     0.585625706217     1.677265843230     1.007825032230
         H           -3.468095885653     0.945649706217    -0.035963156770     1.007825032230
         H           -3.451132885653    -0.734601293783     0.531970843230     1.007825032230

  Basis Set: AUG-CC-PVTZ
    Blend: AUG-CC-PVTZ
  Basis Set: (AUG-CC-PVTZ AUX)
    Blend: AUG-CC-PVTZ-JKFIT
	 Reference Energy          =    -837.7701501828092887 [Eh]
	 Singles Energy            =      -0.0000000000000000 [Eh]
	 Same-Spin Energy          =      -0.5173658014464515 [Eh]
	 Opposite-Spin Energy      =      -1.6710913269108341 [Eh]
	 Correlation Energy        =      -2.1884571283572853 [Eh]
	 Total Energy              =    -839.9586073111665883 [Eh]

	 ================> DF-SCS-MP2 Energies <==================
	-----------------------------------------------------------
	 SCS Same-Spin Scale       =       0.3333333333333333 [-]
	 SCS Opposite-Spin Scale   =       1.2000000000000000 [-]
	 SCS Same-Spin Energy      =      -0.1724552671488171 [Eh]
	 SCS Opposite-Spin Energy  =      -2.0053095922930009 [Eh]
	 SCS Correlation Energy    =      -2.1777648594418180 [Eh]
	 SCS Total Energy          =    -839.9479150422511111 [Eh]
	-----------------------------------------------------------

  Dipole Moment: [D]
     X:     1.3466      Y:     1.4624      Z:     4.3407     Total:     4.7743

*** Psi4 exiting successfully. Buy a developer a beer!
