                               Psi4 1.3.2 release

  ==> Input File <==

--------------------------------------------------------------------------
#psi4
#
memory 32 gb

molecule  {
0 1
  S       -0.7380000    -0.0680220    -0.3640970
  O       -1.0107130     0.9314480    -1.3993950
  O       -0.9666500    -1.4966470    -0.5970260
  N        0.8588360     0.0833010     0.0699440
  C        1.3342291     1.4632556     0.2162496
  C        1.3759774    -1.0429486     0.8689294
  C       -1.6975890     0.4015790     1.0774410
  C        2.8090910     1.5534440    -0.2422640
  C        2.2024570    -1.9997400     0.0750250
  C       -3.1888920     0.2878700     0.7901350
  H        0.7441850     2.1234290    -0.2885820
  H        1.3352270     1.7155400     1.3356310
  H        2.0636810    -0.5196560     1.6565250
  H        0.6239660    -1.5103280     1.4462590
  H       -1.3901500    -0.2576530     1.8936760
  H       -1.4092710     1.4273450     1.3241250
  H        3.4861350     0.8840910     0.2940530
  H        2.8396270     1.3037350    -1.3040650
  H        3.1732700     2.5763490    -0.1082090
  H        1.5321020    -2.4670540    -0.6475950
  H        3.0150810    -1.5100200    -0.4652590
  H        2.6275220    -2.7764500     0.7187370
  H       -3.7600990     0.5807950     1.6744350
  H       -3.4644480     0.9408190    -0.0387940
  H       -3.4474850    -0.7394320     0.5291400
units angstrom
no_reorient  #important for SAPT in psi4, default
symmetry c1  #important for SAPT in psi4, default
}

set PROPERTIES_ORIGIN ["COM"]
properties('MP2/aug-cc-pvtz', properties = ['dipole'])
--------------------------------------------------------------------------

    Molecular point group: c1
  Charge       = 0
  Multiplicity = 1
  Basis Set: AUG-CC-PVTZ
    Blend: AUG-CC-PVTZ
  Basis Set: (AUG-CC-PVTZ AUX)
    Blend: AUG-CC-PVTZ-JKFIT

    Orbital Energies [Eh]
    ---------------------

    Doubly Occupied:

       1A    -92.188869     2A    -20.538063     3A    -20.537934
       4A    -15.595315     5A    -11.280736     6A    -11.278433
       7A    -11.275452     8A    -11.236841     9A    -11.229049
      10A    -11.216645    11A     -9.154902    12A     -6.839927
      13A     -6.839257    14A     -6.839133    15A     -1.444037
      16A     -1.326941    17A     -1.249290    18A     -1.078163
      19A     -1.050707    20A     -1.009685    21A     -0.915206
      22A     -0.876108    23A     -0.853280    24A     -0.776361
      25A     -0.726072    26A     -0.669315    27A     -0.666344
      28A     -0.649163    29A     -0.643073    30A     -0.609956
      31A     -0.605696    32A     -0.576864    33A     -0.571782
      34A     -0.551687    35A     -0.547377    36A     -0.544580
      37A     -0.527334    38A     -0.518675    39A     -0.513187
      40A     -0.500744    41A     -0.487124    42A     -0.482534
      43A     -0.459891    44A     -0.440902    45A     -0.393873

  @DF-RHF Final Energy:  -837.76256693713026

   => Energetics <=

    Nuclear Repulsion Energy =            744.2174269323542148
    One-Electron Energy =               -2627.3269752460173549
    Two-Electron Energy =                1045.3469813765329945
    Total Energy =                       -837.7625669371302592
  Basis Set: (AUG-CC-PVTZ AUX)
    Blend: AUG-CC-PVTZ-RI
    Molecular point group: c1

    Geometry (in Angstrom), charge = 0, multiplicity = 1:

       Center              X                  Y                   Z               Mass
    ------------   -----------------  -----------------  -----------------  -----------------
         S           -0.731083382610    -0.066194113596    -0.357524151542    31.972071174400
         O           -1.003796382610     0.933275886404    -1.392822151542    15.994914619570
         O           -0.959733382610    -1.494819113596    -0.590453151542    15.994914619570
         N            0.865752617390     0.085128886404     0.076516848458    14.003074004430
         C            1.341145717390     1.465083486404     0.222822448458    12.000000000000
         C            1.382894017390    -1.041120713596     0.875502248458    12.000000000000
         C           -1.690672382610     0.403406886404     1.084013848458    12.000000000000
         C            2.816007617390     1.555271886404    -0.235691151542    12.000000000000
         C            2.209373617390    -1.997912113596     0.081597848458    12.000000000000
         C           -3.181975382610     0.289697886404     0.796707848458    12.000000000000
         H            0.751101617390     2.125256886404    -0.282009151542     1.007825032230
         H            1.342143617390     1.717367886404     1.342203848458     1.007825032230
         H            2.070597617390    -0.517828113596     1.663097848458     1.007825032230
         H            0.630882617390    -1.508500113596     1.452831848458     1.007825032230
         H           -1.383233382610    -0.255825113596     1.900248848458     1.007825032230
         H           -1.402354382610     1.429172886404     1.330697848458     1.007825032230
         H            3.493051617390     0.885918886404     0.300625848458     1.007825032230
         H            2.846543617390     1.305562886404    -1.297492151542     1.007825032230
         H            3.180186617390     2.578176886404    -0.101636151542     1.007825032230
         H            1.539018617390    -2.465226113596    -0.641022151542     1.007825032230
         H            3.021997617390    -1.508192113596    -0.458686151542     1.007825032230
         H            2.634438617390    -2.774622113596     0.725309848458     1.007825032230
         H           -3.753182382610     0.582622886404     1.681007848458     1.007825032230
         H           -3.457531382610     0.942646886404    -0.032221151542     1.007825032230
         H           -3.440568382610    -0.737604113596     0.535712848458     1.007825032230

  Basis Set: AUG-CC-PVTZ
    Blend: AUG-CC-PVTZ
  Basis Set: (AUG-CC-PVTZ AUX)
    Blend: AUG-CC-PVTZ-JKFIT
	 Reference Energy          =    -837.7625669371302592 [Eh]
	 Singles Energy            =      -0.0000000000000000 [Eh]
	 Same-Spin Energy          =      -0.5169837485688993 [Eh]
	 Opposite-Spin Energy      =      -1.6702381841639764 [Eh]
	 Correlation Energy        =      -2.1872219327328759 [Eh]
	 Total Energy              =    -839.9497888698631414 [Eh]

	 ================> DF-SCS-MP2 Energies <==================
	-----------------------------------------------------------
	 SCS Same-Spin Scale       =       0.3333333333333333 [-]
	 SCS Opposite-Spin Scale   =       1.2000000000000000 [-]
	 SCS Same-Spin Energy      =      -0.1723279161896331 [Eh]
	 SCS Opposite-Spin Energy  =      -2.0042858209967718 [Eh]
	 SCS Correlation Energy    =      -2.1766137371864049 [Eh]
	 SCS Total Energy          =    -839.9391806743166171 [Eh]
	-----------------------------------------------------------

  Dipole Moment: [D]
     X:     1.5990      Y:     1.3625      Z:     4.2363     Total:     4.7286

*** Psi4 exiting successfully. Buy a developer a beer!
