                               Psi4 1.3.2 release

  ==> Input File <==

--------------------------------------------------------------------------
#psi4
#
memory 32 gb

molecule  {
0 1
  S       -0.7380000    -0.0680220    -0.3640970
  O       -1.0185648     0.9375452    -1.3913616
  O       -0.9666500    -1.4966470    -0.5970260
  N        0.8588360     0.0833010     0.0699440
  C        1.3822580     1.4387740     0.2709440
  C        1.4230980    -0.9933220     0.9046550
  C       -1.7031334     0.4139652     1.0696302
  C        2.8090910     1.5534440    -0.2422640
  C        2.2024570    -1.9997400     0.0750250
  C       -3.1888920     0.2878700     0.7901350
  H        0.7441850     2.1234290    -0.2885820
  H        1.3352270     1.7155400     1.3356310
  H        2.0636810    -0.5196560     1.6565250
  H        0.6239660    -1.5103280     1.4462590
  H       -1.3901500    -0.2576530     1.8936760
  H       -1.4092710     1.4273450     1.3241250
  H        3.4861350     0.8840910     0.2940530
  H        2.8396270     1.3037350    -1.3040650
  H        3.1732700     2.5763490    -0.1082090
  H        1.5321020    -2.4670540    -0.6475950
  H        3.0150810    -1.5100200    -0.4652590
  H        2.6275220    -2.7764500     0.7187370
  H       -3.7600990     0.5807950     1.6744350
  H       -3.4644480     0.9408190    -0.0387940
  H       -3.4474850    -0.7394320     0.5291400
units angstrom
no_reorient  #important for SAPT in psi4, default
symmetry c1  #important for SAPT in psi4, default
}

set PROPERTIES_ORIGIN ["COM"]
properties('MP2/aug-cc-pvtz', properties = ['dipole'])
--------------------------------------------------------------------------

    Molecular point group: c1
  Charge       = 0
  Multiplicity = 1
  Basis Set: AUG-CC-PVTZ
    Blend: AUG-CC-PVTZ
  Basis Set: (AUG-CC-PVTZ AUX)
    Blend: AUG-CC-PVTZ-JKFIT

    Orbital Energies [Eh]
    ---------------------

    Doubly Occupied:

       1A    -92.190859     2A    -20.539536     3A    -20.538352
       4A    -15.594135     5A    -11.276647     6A    -11.276295
       7A    -11.275093     8A    -11.236103     9A    -11.228109
      10A    -11.216446    11A     -9.156541    12A     -6.841630
      13A     -6.840880    14A     -6.840810    15A     -1.444025
      16A     -1.327457    17A     -1.249378    18A     -1.078432
      19A     -1.046652    20A     -1.010400    21A     -0.915814
      22A     -0.870175    23A     -0.857296    24A     -0.774040
      25A     -0.720586    26A     -0.671481    27A     -0.666613
      28A     -0.651541    29A     -0.641242    30A     -0.612027
      31A     -0.600191    32A     -0.577648    33A     -0.572935
      34A     -0.549872    35A     -0.544188    36A     -0.541826
      37A     -0.525636    38A     -0.519424    39A     -0.512215
      40A     -0.497656    41A     -0.489378    42A     -0.485937
      43A     -0.460614    44A     -0.445622    45A     -0.396121

  @DF-RHF Final Energy:  -837.77637841785167

   => Energetics <=

    Nuclear Repulsion Energy =            743.5332909860287600
    One-Electron Energy =               -2626.0036213667594893
    Two-Electron Energy =                1044.6939519628790549
    Total Energy =                       -837.7763784178516744
  Basis Set: (AUG-CC-PVTZ AUX)
    Blend: AUG-CC-PVTZ-RI
    Molecular point group: c1

    Geometry (in Angstrom), charge = 0, multiplicity = 1:

       Center              X                  Y                   Z               Mass
    ------------   -----------------  -----------------  -----------------  -----------------
         S           -0.736836101359    -0.069513054680    -0.364307456649    31.972071174400
         O           -1.017400901359     0.936054145320    -1.391572056649    15.994914619570
         O           -0.965486101359    -1.498138054680    -0.597236456649    15.994914619570
         N            0.859999898641     0.081809945320     0.069733543351    14.003074004430
         C            1.383421898641     1.437282945320     0.270733543351    12.000000000000
         C            1.424261898641    -0.994813054680     0.904444543351    12.000000000000
         C           -1.701969501359     0.412474145320     1.069419743351    12.000000000000
         C            2.810254898641     1.551952945320    -0.242474456649    12.000000000000
         C            2.203620898641    -2.001231054680     0.074814543351    12.000000000000
         C           -3.187728101359     0.286378945320     0.789924543351    12.000000000000
         H            0.745348898641     2.121937945320    -0.288792456649     1.007825032230
         H            1.336390898641     1.714048945320     1.335420543351     1.007825032230
         H            2.064844898641    -0.521147054680     1.656314543351     1.007825032230
         H            0.625129898641    -1.511819054680     1.446048543351     1.007825032230
         H           -1.388986101359    -0.259144054680     1.893465543351     1.007825032230
         H           -1.408107101359     1.425853945320     1.323914543351     1.007825032230
         H            3.487298898641     0.882599945320     0.293842543351     1.007825032230
         H            2.840790898641     1.302243945320    -1.304275456649     1.007825032230
         H            3.174433898641     2.574857945320    -0.108419456649     1.007825032230
         H            1.533265898641    -2.468545054680    -0.647805456649     1.007825032230
         H            3.016244898641    -1.511511054680    -0.465469456649     1.007825032230
         H            2.628685898641    -2.777941054680     0.718526543351     1.007825032230
         H           -3.758935101359     0.579303945320     1.674224543351     1.007825032230
         H           -3.463284101359     0.939327945320    -0.039004456649     1.007825032230
         H           -3.446321101359    -0.740923054680     0.528929543351     1.007825032230

  Basis Set: AUG-CC-PVTZ
    Blend: AUG-CC-PVTZ
  Basis Set: (AUG-CC-PVTZ AUX)
    Blend: AUG-CC-PVTZ-JKFIT
	 Reference Energy          =    -837.7763784178516744 [Eh]
	 Singles Energy            =      -0.0000000000000000 [Eh]
	 Same-Spin Energy          =      -0.5168417274291773 [Eh]
	 Opposite-Spin Energy      =      -1.6698205662790477 [Eh]
	 Correlation Energy        =      -2.1866622937082250 [Eh]
	 Total Energy              =    -839.9630407115598700 [Eh]

	 ================> DF-SCS-MP2 Energies <==================
	-----------------------------------------------------------
	 SCS Same-Spin Scale       =       0.3333333333333333 [-]
	 SCS Opposite-Spin Scale   =       1.2000000000000000 [-]
	 SCS Same-Spin Energy      =      -0.1722805758097258 [Eh]
	 SCS Opposite-Spin Energy  =      -2.0037846795348573 [Eh]
	 SCS Correlation Energy    =      -2.1760652553445832 [Eh]
	 SCS Total Energy          =    -839.9524436731962851 [Eh]
	-----------------------------------------------------------

  Dipole Moment: [D]
     X:     1.6239      Y:     1.4254      Z:     4.2935     Total:     4.8065

*** Psi4 exiting successfully. Buy a developer a beer!
