                               Psi4 1.3.2 release

  ==> Input File <==

--------------------------------------------------------------------------
#psi4
#
memory 32 gb

molecule  {
0 1
  S       -0.7380000    -0.0680220    -0.3640970
  O       -0.9375962     0.9539355    -1.3941062
  O       -0.9666500    -1.4966470    -0.5970260
  N        0.8660844     0.1478376     0.0120589
  C        1.3822580     1.4387740     0.2709440
  C        1.4230980    -0.9933220     0.9046550
  C       -1.6975890     0.4015790     1.0774410
  C        2.8090910     1.5534440    -0.2422640
  C        2.2024570    -1.9997400     0.0750250
  C       -3.1888920     0.2878700     0.7901350
  H        0.7441850     2.1234290    -0.2885820
  H        1.3352270     1.7155400     1.3356310
  H        2.0636810    -0.5196560     1.6565250
  H        0.6239660    -1.5103280     1.4462590
  H       -1.3901500    -0.2576530     1.8936760
  H       -1.4092710     1.4273450     1.3241250
  H        3.4861350     0.8840910     0.2940530
  H        2.8396270     1.3037350    -1.3040650
  H        3.1732700     2.5763490    -0.1082090
  H        1.5321020    -2.4670540    -0.6475950
  H        3.0150810    -1.5100200    -0.4652590
  H        2.6275220    -2.7764500     0.7187370
  H       -3.7600990     0.5807950     1.6744350
  H       -3.4644480     0.9408190    -0.0387940
  H       -3.4474850    -0.7394320     0.5291400
units angstrom
no_reorient  #important for SAPT in psi4, default
symmetry c1  #important for SAPT in psi4, default
}

set PROPERTIES_ORIGIN ["COM"]
properties('MP2/aug-cc-pvtz', properties = ['dipole'])
--------------------------------------------------------------------------

    Molecular point group: c1
  Charge       = 0
  Multiplicity = 1
  Basis Set: AUG-CC-PVTZ
    Blend: AUG-CC-PVTZ
  Basis Set: (AUG-CC-PVTZ AUX)
    Blend: AUG-CC-PVTZ-JKFIT

    Orbital Energies [Eh]
    ---------------------

    Doubly Occupied:

       1A    -92.190567     2A    -20.545227     3A    -20.533252
       4A    -15.591980     5A    -11.280443     6A    -11.278631
       7A    -11.267748     8A    -11.239468     9A    -11.223709
      10A    -11.218262    11A     -9.156436    12A     -6.841583
      13A     -6.840749    14A     -6.840616    15A     -1.444589
      16A     -1.329136    17A     -1.244813    18A     -1.080842
      19A     -1.043282    20A     -1.008718    21A     -0.917108
      22A     -0.866450    23A     -0.856014    24A     -0.775216
      25A     -0.720847    26A     -0.669351    27A     -0.668785
      28A     -0.655018    29A     -0.635549    30A     -0.611425
      31A     -0.602813    32A     -0.574256    33A     -0.570600
      34A     -0.550722    35A     -0.545076    36A     -0.540004
      37A     -0.529010    38A     -0.518882    39A     -0.510280
      40A     -0.492876    41A     -0.489466    42A     -0.483544
      43A     -0.460329    44A     -0.444266    45A     -0.397277

  @DF-RHF Final Energy:  -837.76768005049087

   => Energetics <=

    Nuclear Repulsion Energy =            743.7186945914945682
    One-Electron Energy =               -2626.4023169849197075
    Two-Electron Energy =                1044.9159423429343860
    Total Energy =                       -837.7676800504907533
  Basis Set: (AUG-CC-PVTZ AUX)
    Blend: AUG-CC-PVTZ-RI
    Molecular point group: c1

    Geometry (in Angstrom), charge = 0, multiplicity = 1:

       Center              X                  Y                   Z               Mass
    ------------   -----------------  -----------------  -----------------  -----------------
         S           -0.745699062944    -0.075675057072    -0.359699214871    31.972071174400
         O           -0.945295262944     0.946282442928    -1.389708414871    15.994914619570
         O           -0.974349062944    -1.504300057072    -0.592628214871    15.994914619570
         N            0.858385337056     0.140184542928     0.016456685129    14.003074004430
         C            1.374558937056     1.431120942928     0.275341785129    12.000000000000
         C            1.415398937056    -1.000975057072     0.909052785129    12.000000000000
         C           -1.705288062944     0.393925942928     1.081838785129    12.000000000000
         C            2.801391937056     1.545790942928    -0.237866214871    12.000000000000
         C            2.194757937056    -2.007393057072     0.079422785129    12.000000000000
         C           -3.196591062944     0.280216942928     0.794532785129    12.000000000000
         H            0.736485937056     2.115775942928    -0.284184214871     1.007825032230
         H            1.327527937056     1.707886942928     1.340028785129     1.007825032230
         H            2.055981937056    -0.527309057072     1.660922785129     1.007825032230
         H            0.616266937056    -1.517981057072     1.450656785129     1.007825032230
         H           -1.397849062944    -0.265306057072     1.898073785129     1.007825032230
         H           -1.416970062944     1.419691942928     1.328522785129     1.007825032230
         H            3.478435937056     0.876437942928     0.298450785129     1.007825032230
         H            2.831927937056     1.296081942928    -1.299667214871     1.007825032230
         H            3.165570937056     2.568695942928    -0.103811214871     1.007825032230
         H            1.524402937056    -2.474707057072    -0.643197214871     1.007825032230
         H            3.007381937056    -1.517673057072    -0.460861214871     1.007825032230
         H            2.619822937056    -2.784103057072     0.723134785129     1.007825032230
         H           -3.767798062944     0.573141942928     1.678832785129     1.007825032230
         H           -3.472147062944     0.933165942928    -0.034396214871     1.007825032230
         H           -3.455184062944    -0.747085057072     0.533537785129     1.007825032230

  Basis Set: AUG-CC-PVTZ
    Blend: AUG-CC-PVTZ
  Basis Set: (AUG-CC-PVTZ AUX)
    Blend: AUG-CC-PVTZ-JKFIT
	 Reference Energy          =    -837.7676800504908670 [Eh]
	 Singles Energy            =      -0.0000000000000000 [Eh]
	 Same-Spin Energy          =      -0.5173399433913537 [Eh]
	 Opposite-Spin Energy      =      -1.6709509907263465 [Eh]
	 Correlation Energy        =      -2.1882909341176999 [Eh]
	 Total Energy              =    -839.9559709846085980 [Eh]

	 ================> DF-SCS-MP2 Energies <==================
	-----------------------------------------------------------
	 SCS Same-Spin Scale       =       0.3333333333333333 [-]
	 SCS Opposite-Spin Scale   =       1.2000000000000000 [-]
	 SCS Same-Spin Energy      =      -0.1724466477971179 [Eh]
	 SCS Opposite-Spin Energy  =      -2.0051411888716157 [Eh]
	 SCS Correlation Energy    =      -2.1775878366687338 [Eh]
	 SCS Total Energy          =    -839.9452678871596163 [Eh]
	-----------------------------------------------------------

  Dipole Moment: [D]
     X:     1.3141      Y:     1.1288      Z:     4.4288     Total:     4.7556

*** Psi4 exiting successfully. Buy a developer a beer!
