                               Psi4 1.3.2 release

  ==> Input File <==

--------------------------------------------------------------------------
#psi4
#
memory 32 gb

molecule  {
0 1
  S       -0.7393780    -0.0535895    -0.3638166
  O       -1.0107130     0.9314480    -1.3993950
  O       -0.9666500    -1.4966470    -0.5970260
  N        0.8588360     0.0833010     0.0699440
  C        1.3707460     1.4435836     0.2680803
  C        1.4230980    -0.9933220     0.9046550
  C       -1.6975890     0.4015790     1.0774410
  C        2.8090910     1.5534440    -0.2422640
  C        2.2024570    -1.9997400     0.0750250
  C       -3.1888920     0.2878700     0.7901350
  H        0.7441850     2.1234290    -0.2885820
  H        1.3352270     1.7155400     1.3356310
  H        2.0636810    -0.5196560     1.6565250
  H        0.6239660    -1.5103280     1.4462590
  H       -1.3901500    -0.2576530     1.8936760
  H       -1.4092710     1.4273450     1.3241250
  H        3.4861350     0.8840910     0.2940530
  H        2.8396270     1.3037350    -1.3040650
  H        3.1732700     2.5763490    -0.1082090
  H        1.5321020    -2.4670540    -0.6475950
  H        3.0150810    -1.5100200    -0.4652590
  H        2.6275220    -2.7764500     0.7187370
  H       -3.7600990     0.5807950     1.6744350
  H       -3.4644480     0.9408190    -0.0387940
  H       -3.4474850    -0.7394320     0.5291400
units angstrom
no_reorient  #important for SAPT in psi4, default
symmetry c1  #important for SAPT in psi4, default
}

set PROPERTIES_ORIGIN ["COM"]
properties('MP2/aug-cc-pvtz', properties = ['dipole'])
--------------------------------------------------------------------------

    Molecular point group: c1
  Charge       = 0
  Multiplicity = 1
  Basis Set: AUG-CC-PVTZ
    Blend: AUG-CC-PVTZ
  Basis Set: (AUG-CC-PVTZ AUX)
    Blend: AUG-CC-PVTZ-JKFIT

    Orbital Energies [Eh]
    ---------------------

    Doubly Occupied:

       1A    -92.190548     2A    -20.541425     3A    -20.535147
       4A    -15.593873     5A    -11.276380     6A    -11.276257
       7A    -11.275945     8A    -11.237264     9A    -11.228336
      10A    -11.215920    11A     -9.156351    12A     -6.841427
      13A     -6.840687    14A     -6.840589    15A     -1.443414
      16A     -1.325047    17A     -1.248900    18A     -1.079465
      19A     -1.045749    20A     -1.009372    21A     -0.916715
      22A     -0.870787    23A     -0.857340    24A     -0.774664
      25A     -0.720802    26A     -0.671044    27A     -0.667369
      28A     -0.651813    29A     -0.642090    30A     -0.611664
      31A     -0.600063    32A     -0.576580    33A     -0.572104
      34A     -0.549903    35A     -0.543171    36A     -0.540356
      37A     -0.527264    38A     -0.519275    39A     -0.512274
      40A     -0.500009    41A     -0.489402    42A     -0.484507
      43A     -0.459375    44A     -0.445851    45A     -0.395691

  @DF-RHF Final Energy:  -837.77615215551589

   => Energetics <=

    Nuclear Repulsion Energy =            743.5017875144480968
    One-Electron Energy =               -2625.9514620484087573
    Two-Electron Energy =                1044.6735223784446589
    Total Energy =                       -837.7761521555160016
  Basis Set: (AUG-CC-PVTZ AUX)
    Blend: AUG-CC-PVTZ-RI
    Molecular point group: c1

    Geometry (in Angstrom), charge = 0, multiplicity = 1:

       Center              X                  Y                   Z               Mass
    ------------   -----------------  -----------------  -----------------  -----------------
         S           -0.738274193528    -0.056734235549    -0.363662612004    31.972071174400
         O           -1.009609193528     0.928303264451    -1.399241012004    15.994914619570
         O           -0.965546193528    -1.499791735549    -0.596872012004    15.994914619570
         N            0.859939806472     0.080156264451     0.070097987996    14.003074004430
         C            1.371849806472     1.440438864451     0.268234287996    12.000000000000
         C            1.424201806472    -0.996466735549     0.904808987996    12.000000000000
         C           -1.696485193528     0.398434264451     1.077594987996    12.000000000000
         C            2.810194806472     1.550299264451    -0.242110012004    12.000000000000
         C            2.203560806472    -2.002884735549     0.075178987996    12.000000000000
         C           -3.187788193528     0.284725264451     0.790288987996    12.000000000000
         H            0.745288806472     2.120284264451    -0.288428012004     1.007825032230
         H            1.336330806472     1.712395264451     1.335784987996     1.007825032230
         H            2.064784806472    -0.522800735549     1.656678987996     1.007825032230
         H            0.625069806472    -1.513472735549     1.446412987996     1.007825032230
         H           -1.389046193528    -0.260797735549     1.893829987996     1.007825032230
         H           -1.408167193528     1.424200264451     1.324278987996     1.007825032230
         H            3.487238806472     0.880946264451     0.294206987996     1.007825032230
         H            2.840730806472     1.300590264451    -1.303911012004     1.007825032230
         H            3.174373806472     2.573204264451    -0.108055012004     1.007825032230
         H            1.533205806472    -2.470198735549    -0.647441012004     1.007825032230
         H            3.016184806472    -1.513164735549    -0.465105012004     1.007825032230
         H            2.628625806472    -2.779594735549     0.718890987996     1.007825032230
         H           -3.758995193528     0.577650264451     1.674588987996     1.007825032230
         H           -3.463344193528     0.937674264451    -0.038640012004     1.007825032230
         H           -3.446381193528    -0.742576735549     0.529293987996     1.007825032230

  Basis Set: AUG-CC-PVTZ
    Blend: AUG-CC-PVTZ
  Basis Set: (AUG-CC-PVTZ AUX)
    Blend: AUG-CC-PVTZ-JKFIT
	 Reference Energy          =    -837.7761521555158879 [Eh]
	 Singles Energy            =      -0.0000000000000000 [Eh]
	 Same-Spin Energy          =      -0.5167775070176508 [Eh]
	 Opposite-Spin Energy      =      -1.6697713284037110 [Eh]
	 Correlation Energy        =      -2.1865488354213616 [Eh]
	 Total Energy              =    -839.9627009909372646 [Eh]

	 ================> DF-SCS-MP2 Energies <==================
	-----------------------------------------------------------
	 SCS Same-Spin Scale       =       0.3333333333333333 [-]
	 SCS Opposite-Spin Scale   =       1.2000000000000000 [-]
	 SCS Same-Spin Energy      =      -0.1722591690058836 [Eh]
	 SCS Opposite-Spin Energy  =      -2.0037255940844529 [Eh]
	 SCS Correlation Energy    =      -2.1759847630903364 [Eh]
	 SCS Total Energy          =    -839.9521369186062429 [Eh]
	-----------------------------------------------------------

  Dipole Moment: [D]
     X:     1.5721      Y:     1.5575      Z:     4.3132     Total:     4.8478

*** Psi4 exiting successfully. Buy a developer a beer!
