                               Psi4 1.3.2 release

  ==> Input File <==

--------------------------------------------------------------------------
#psi4
#
memory 32 gb

molecule  {
0 1
  S       -0.7822307    -0.0006924    -0.4124130
  O       -1.0107130     0.9314480    -1.3993950
  O       -0.9666500    -1.4966470    -0.5970260
  N        0.8588360     0.0833010     0.0699440
  C        1.3822580     1.4387740     0.2709440
  C        1.4230980    -0.9933220     0.9046550
  C       -1.6975890     0.4015790     1.0774410
  C        2.8090910     1.5534440    -0.2422640
  C        2.2024570    -1.9997400     0.0750250
  C       -3.1888920     0.2878700     0.7901350
  H        0.7441850     2.1234290    -0.2885820
  H        1.3352270     1.7155400     1.3356310
  H        2.0636810    -0.5196560     1.6565250
  H        0.6239660    -1.5103280     1.4462590
  H       -1.4274687    -0.2305753     1.9275946
  H       -1.4092710     1.4273450     1.3241250
  H        3.4861350     0.8840910     0.2940530
  H        2.8396270     1.3037350    -1.3040650
  H        3.1732700     2.5763490    -0.1082090
  H        1.5321020    -2.4670540    -0.6475950
  H        3.0150810    -1.5100200    -0.4652590
  H        2.6275220    -2.7764500     0.7187370
  H       -3.7600990     0.5807950     1.6744350
  H       -3.4644480     0.9408190    -0.0387940
  H       -3.4474850    -0.7394320     0.5291400
units angstrom
no_reorient  #important for SAPT in psi4, default
symmetry c1  #important for SAPT in psi4, default
}

set PROPERTIES_ORIGIN ["COM"]
properties('MP2/aug-cc-pvtz', properties = ['dipole'])
--------------------------------------------------------------------------

    Molecular point group: c1
  Charge       = 0
  Multiplicity = 1
  Basis Set: AUG-CC-PVTZ
    Blend: AUG-CC-PVTZ
  Basis Set: (AUG-CC-PVTZ AUX)
    Blend: AUG-CC-PVTZ-JKFIT

    Orbital Energies [Eh]
    ---------------------

    Doubly Occupied:

       1A    -92.190876     2A    -20.563361     3A    -20.528070
       4A    -15.584826     5A    -11.276685     6A    -11.271974
       7A    -11.269425     8A    -11.238344     9A    -11.224777
      10A    -11.210604    11A     -9.157864    12A     -6.842991
      13A     -6.842452    14A     -6.841708    15A     -1.481270
      16A     -1.324907    17A     -1.232887    18A     -1.080649
      19A     -1.040600    20A     -1.000708    21A     -0.914558
      22A     -0.864380    23A     -0.849043    24A     -0.777030
      25A     -0.720764    26A     -0.684062    27A     -0.670018
      28A     -0.647323    29A     -0.637908    30A     -0.621472
      31A     -0.599093    32A     -0.577257    33A     -0.572765
      34A     -0.551400    35A     -0.540362    36A     -0.537696
      37A     -0.525913    38A     -0.519046    39A     -0.510389
      40A     -0.499200    41A     -0.498280    42A     -0.484614
      43A     -0.459727    44A     -0.438607    45A     -0.385416

  @DF-RHF Final Energy:  -837.76097834405812

   => Energetics <=

    Nuclear Repulsion Energy =            742.5900882377854941
    One-Electron Energy =               -2624.1195252260945381
    Two-Electron Energy =                1043.7684586442510408
    Total Energy =                       -837.7609783440580031
  Basis Set: (AUG-CC-PVTZ AUX)
    Blend: AUG-CC-PVTZ-RI
    Molecular point group: c1

    Geometry (in Angstrom), charge = 0, multiplicity = 1:

       Center              X                  Y                   Z               Mass
    ------------   -----------------  -----------------  -----------------  -----------------
         S           -0.773436451181    -0.013897594653    -0.403262416388    31.972071174400
         O           -1.001918751181     0.918242805347    -1.390244416388    15.994914619570
         O           -0.957855751181    -1.509852194653    -0.587875416388    15.994914619570
         N            0.867630248819     0.070095805347     0.079094583612    14.003074004430
         C            1.391052248819     1.425568805347     0.280094583612    12.000000000000
         C            1.431892248819    -1.006527194653     0.913805583612    12.000000000000
         C           -1.688794751181     0.388373805347     1.086591583612    12.000000000000
         C            2.817885248819     1.540238805347    -0.233113416388    12.000000000000
         C            2.211251248819    -2.012945194653     0.084175583612    12.000000000000
         C           -3.180097751181     0.274664805347     0.799285583612    12.000000000000
         H            0.752979248819     2.110223805347    -0.279431416388     1.007825032230
         H            1.344021248819     1.702334805347     1.344781583612     1.007825032230
         H            2.072475248819    -0.532861194653     1.665675583612     1.007825032230
         H            0.632760248819    -1.523533194653     1.455409583612     1.007825032230
         H           -1.418674451181    -0.243780494653     1.936745183612     1.007825032230
         H           -1.400476751181     1.414139805347     1.333275583612     1.007825032230
         H            3.494929248819     0.870885805347     0.303203583612     1.007825032230
         H            2.848421248819     1.290529805347    -1.294914416388     1.007825032230
         H            3.182064248819     2.563143805347    -0.099058416388     1.007825032230
         H            1.540896248819    -2.480259194653    -0.638444416388     1.007825032230
         H            3.023875248819    -1.523225194653    -0.456108416388     1.007825032230
         H            2.636316248819    -2.789655194653     0.727887583612     1.007825032230
         H           -3.751304751181     0.567589805347     1.683585583612     1.007825032230
         H           -3.455653751181     0.927613805347    -0.029643416388     1.007825032230
         H           -3.438690751181    -0.752637194653     0.538290583612     1.007825032230

  Basis Set: AUG-CC-PVTZ
    Blend: AUG-CC-PVTZ
  Basis Set: (AUG-CC-PVTZ AUX)
    Blend: AUG-CC-PVTZ-JKFIT
	 Reference Energy          =    -837.7609783440581168 [Eh]
	 Singles Energy            =      -0.0000000000000000 [Eh]
	 Same-Spin Energy          =      -0.5162896759812708 [Eh]
	 Opposite-Spin Energy      =      -1.6694537710984305 [Eh]
	 Correlation Energy        =      -2.1857434470797013 [Eh]
	 Total Energy              =    -839.9467217911378611 [Eh]

	 ================> DF-SCS-MP2 Energies <==================
	-----------------------------------------------------------
	 SCS Same-Spin Scale       =       0.3333333333333333 [-]
	 SCS Opposite-Spin Scale   =       1.2000000000000000 [-]
	 SCS Same-Spin Energy      =      -0.1720965586604236 [Eh]
	 SCS Opposite-Spin Energy  =      -2.0033445253181164 [Eh]
	 SCS Correlation Energy    =      -2.1754410839785399 [Eh]
	 SCS Total Energy          =    -839.9364194280366291 [Eh]
	-----------------------------------------------------------

  Dipole Moment: [D]
     X:     1.0328      Y:     2.0091      Z:     3.9040     Total:     4.5105

*** Psi4 exiting successfully. Buy a developer a beer!
