                               Psi4 1.3.2 release

  ==> Input File <==

--------------------------------------------------------------------------
#psi4
#
memory 32 gb

molecule  {
0 1
  S       -0.7380000    -0.0680220    -0.3640970
  O       -1.0107130     0.9314480    -1.3993950
  O       -0.9666500    -1.4966470    -0.5970260
  N        0.8963372     0.0653552     0.0998288
  C        1.3822580     1.4387740     0.2709440
  C        1.4230980    -0.9933220     0.9046550
  C       -1.6975890     0.4015790     1.0774410
  C        2.8090910     1.5534440    -0.2422640
  C        2.2024570    -1.9997400     0.0750250
  C       -3.1888920     0.2878700     0.7901350
  H        0.7658446     2.1523432    -0.2766073
  H        1.3352270     1.7155400     1.3356310
  H        2.0636810    -0.5196560     1.6565250
  H        0.6239660    -1.5103280     1.4462590
  H       -1.3901500    -0.2576530     1.8936760
  H       -1.4092710     1.4273450     1.3241250
  H        3.4861350     0.8840910     0.2940530
  H        2.8396270     1.3037350    -1.3040650
  H        3.1732700     2.5763490    -0.1082090
  H        1.5321020    -2.4670540    -0.6475950
  H        3.0150810    -1.5100200    -0.4652590
  H        2.6275220    -2.7764500     0.7187370
  H       -3.7600990     0.5807950     1.6744350
  H       -3.4644480     0.9408190    -0.0387940
  H       -3.4474850    -0.7394320     0.5291400
units angstrom
no_reorient  #important for SAPT in psi4, default
symmetry c1  #important for SAPT in psi4, default
}

set PROPERTIES_ORIGIN ["COM"]
properties('MP2/aug-cc-pvtz', properties = ['dipole'])
--------------------------------------------------------------------------

    Molecular point group: c1
  Charge       = 0
  Multiplicity = 1
  Basis Set: AUG-CC-PVTZ
    Blend: AUG-CC-PVTZ
  Basis Set: (AUG-CC-PVTZ AUX)
    Blend: AUG-CC-PVTZ-JKFIT

    Orbital Energies [Eh]
    ---------------------

    Doubly Occupied:

       1A    -92.192761     2A    -20.543175     3A    -20.540157
       4A    -15.592899     5A    -11.277539     6A    -11.275943
       7A    -11.271250     8A    -11.238357     9A    -11.226545
      10A    -11.213640    11A     -9.158330    12A     -6.843278
      13A     -6.842609    14A     -6.842557    15A     -1.443642
      16A     -1.329050    17A     -1.251813    18A     -1.079884
      19A     -1.048194    20A     -1.003882    21A     -0.917855
      22A     -0.871363    23A     -0.852711    24A     -0.776018
      25A     -0.722310    26A     -0.671357    27A     -0.667487
      28A     -0.652952    29A     -0.642486    30A     -0.613547
      31A     -0.600555    32A     -0.578894    33A     -0.572418
      34A     -0.550567    35A     -0.542660    36A     -0.540590
      37A     -0.527632    38A     -0.519744    39A     -0.511704
      40A     -0.501021    41A     -0.490338    42A     -0.484774
      43A     -0.462363    44A     -0.443735    45A     -0.389903

  @DF-RHF Final Energy:  -837.77226237784748

   => Energetics <=

    Nuclear Repulsion Energy =            742.7754679052651454
    One-Electron Energy =               -2624.4544830910508608
    Two-Electron Energy =                1043.9067528079383465
    Total Energy =                       -837.7722623778474826
  Basis Set: (AUG-CC-PVTZ AUX)
    Blend: AUG-CC-PVTZ-RI
    Molecular point group: c1

    Geometry (in Angstrom), charge = 0, multiplicity = 1:

       Center              X                  Y                   Z               Mass
    ------------   -----------------  -----------------  -----------------  -----------------
         S           -0.741313156822    -0.066676200803    -0.366704948092    31.972071174400
         O           -1.014026156822     0.932793799197    -1.402002948092    15.994914619570
         O           -0.969963156822    -1.495301200803    -0.599633948092    15.994914619570
         N            0.893024043178     0.066700999197     0.097220851908    14.003074004430
         C            1.378944843178     1.440119799197     0.268336051908    12.000000000000
         C            1.419784843178    -0.991976200803     0.902047051908    12.000000000000
         C           -1.700902156822     0.402924799197     1.074833051908    12.000000000000
         C            2.805777843178     1.554789799197    -0.244871948092    12.000000000000
         C            2.199143843178    -1.998394200803     0.072417051908    12.000000000000
         C           -3.192205156822     0.289215799197     0.787527051908    12.000000000000
         H            0.762531443178     2.153688999197    -0.279215248092     1.007825032230
         H            1.331913843178     1.716885799197     1.333023051908     1.007825032230
         H            2.060367843178    -0.518310200803     1.653917051908     1.007825032230
         H            0.620652843178    -1.508982200803     1.443651051908     1.007825032230
         H           -1.393463156822    -0.256307200803     1.891068051908     1.007825032230
         H           -1.412584156822     1.428690799197     1.321517051908     1.007825032230
         H            3.482821843178     0.885436799197     0.291445051908     1.007825032230
         H            2.836313843178     1.305080799197    -1.306672948092     1.007825032230
         H            3.169956843178     2.577694799197    -0.110816948092     1.007825032230
         H            1.528788843178    -2.465708200803    -0.650202948092     1.007825032230
         H            3.011767843178    -1.508674200803    -0.467866948092     1.007825032230
         H            2.624208843178    -2.775104200803     0.716129051908     1.007825032230
         H           -3.763412156822     0.582140799197     1.671827051908     1.007825032230
         H           -3.467761156822     0.942164799197    -0.041401948092     1.007825032230
         H           -3.450798156822    -0.738086200803     0.526532051908     1.007825032230

  Basis Set: AUG-CC-PVTZ
    Blend: AUG-CC-PVTZ
  Basis Set: (AUG-CC-PVTZ AUX)
    Blend: AUG-CC-PVTZ-JKFIT
	 Reference Energy          =    -837.7722623778474826 [Eh]
	 Singles Energy            =      -0.0000000000000000 [Eh]
	 Same-Spin Energy          =      -0.5173139798809741 [Eh]
	 Opposite-Spin Energy      =      -1.6706621722442649 [Eh]
	 Correlation Energy        =      -2.1879761521252390 [Eh]
	 Total Energy              =    -839.9602385299726848 [Eh]

	 ================> DF-SCS-MP2 Energies <==================
	-----------------------------------------------------------
	 SCS Same-Spin Scale       =       0.3333333333333333 [-]
	 SCS Opposite-Spin Scale   =       1.2000000000000000 [-]
	 SCS Same-Spin Energy      =      -0.1724379932936580 [Eh]
	 SCS Opposite-Spin Energy  =      -2.0047946066931179 [Eh]
	 SCS Correlation Energy    =      -2.1772325999867759 [Eh]
	 SCS Total Energy          =    -839.9494949778342061 [Eh]
	-----------------------------------------------------------

  Dipole Moment: [D]
     X:     1.3316      Y:     1.5333      Z:     4.2208     Total:     4.6840

*** Psi4 exiting successfully. Buy a developer a beer!
