                               Psi4 1.3.2 release

  ==> Input File <==

--------------------------------------------------------------------------
#psi4
#
memory 32 gb

molecule  {
0 1
  S       -0.7380000    -0.0680220    -0.3640970
  O       -1.0107130     0.9314480    -1.3993950
  O       -0.9666500    -1.4966470    -0.5970260
  N        0.8588360     0.0833010     0.0699440
  C        1.4179412     1.5311804     0.2846467
  C        1.4230980    -0.9933220     0.9046550
  C       -1.6975890     0.4015790     1.0774410
  C        2.8090910     1.5534440    -0.2422640
  C        2.2024570    -1.9997400     0.0750250
  C       -3.1888920     0.2878700     0.7901350
  H        0.7441850     2.1234290    -0.2885820
  H        1.3352270     1.7155400     1.3356310
  H        2.0636810    -0.5196560     1.6565250
  H        0.6239660    -1.5103280     1.4462590
  H       -1.3901500    -0.2576530     1.8936760
  H       -1.4092710     1.4273450     1.3241250
  H        3.4861350     0.8840910     0.2940530
  H        2.8396270     1.3037350    -1.3040650
  H        3.1732700     2.5763490    -0.1082090
  H        1.5321020    -2.4670540    -0.6475950
  H        3.0150810    -1.5100200    -0.4652590
  H        2.6275220    -2.7764500     0.7187370
  H       -3.7600990     0.5807950     1.6744350
  H       -3.4644480     0.9408190    -0.0387940
  H       -3.4474850    -0.7394320     0.5291400
units angstrom
no_reorient  #important for SAPT in psi4, default
symmetry c1  #important for SAPT in psi4, default
}

set PROPERTIES_ORIGIN ["COM"]
properties('MP2/aug-cc-pvtz', properties = ['dipole'])
--------------------------------------------------------------------------

    Molecular point group: c1
  Charge       = 0
  Multiplicity = 1
  Basis Set: AUG-CC-PVTZ
    Blend: AUG-CC-PVTZ
  Basis Set: (AUG-CC-PVTZ AUX)
    Blend: AUG-CC-PVTZ-JKFIT

    Orbital Energies [Eh]
    ---------------------

    Doubly Occupied:

       1A    -92.187156     2A    -20.536469     3A    -20.535457
       4A    -15.588341     5A    -11.280840     6A    -11.273401
       7A    -11.273114     8A    -11.235178     9A    -11.230638
      10A    -11.214201    11A     -9.152750    12A     -6.837795
      13A     -6.837142    14A     -6.837052    15A     -1.440143
      16A     -1.324294    17A     -1.229859    18A     -1.076261
      19A     -1.052327    20A     -1.010150    21A     -0.912160
      22A     -0.868792    23A     -0.855496    24A     -0.772319
      25A     -0.712438    26A     -0.668041    27A     -0.665304
      28A     -0.654401    29A     -0.641151    30A     -0.610346
      31A     -0.594288    32A     -0.577619    33A     -0.570541
      34A     -0.559547    35A     -0.546186    36A     -0.536815
      37A     -0.525210    38A     -0.521009    39A     -0.513603
      40A     -0.499918    41A     -0.486519    42A     -0.478010
      43A     -0.458642    44A     -0.441690    45A     -0.395004

  @DF-RHF Final Energy:  -837.76915581134722

   => Energetics <=

    Nuclear Repulsion Energy =            741.4829470199695152
    One-Electron Energy =               -2622.0689723491200311
    Two-Electron Energy =                1042.8168695178032976
    Total Energy =                       -837.7691558113472183
  Basis Set: (AUG-CC-PVTZ AUX)
    Blend: AUG-CC-PVTZ-RI
    Molecular point group: c1

    Geometry (in Angstrom), charge = 0, multiplicity = 1:

       Center              X                  Y                   Z               Mass
    ------------   -----------------  -----------------  -----------------  -----------------
         S           -0.740593741537    -0.074739041632    -0.365092934036    31.972071174400
         O           -1.013306741537     0.924730958368    -1.400390934036    15.994914619570
         O           -0.969243741537    -1.503364041632    -0.598021934036    15.994914619570
         N            0.856242258463     0.076583958368     0.068948065964    14.003074004430
         C            1.415347458463     1.524463358368     0.283650765964    12.000000000000
         C            1.420504258463    -1.000039041632     0.903659065964    12.000000000000
         C           -1.700182741537     0.394861958368     1.076445065964    12.000000000000
         C            2.806497258463     1.546726958368    -0.243259934036    12.000000000000
         C            2.199863258463    -2.006457041632     0.074029065964    12.000000000000
         C           -3.191485741537     0.281152958368     0.789139065964    12.000000000000
         H            0.741591258463     2.116711958368    -0.289577934036     1.007825032230
         H            1.332633258463     1.708822958368     1.334635065964     1.007825032230
         H            2.061087258463    -0.526373041632     1.655529065964     1.007825032230
         H            0.621372258463    -1.517045041632     1.445263065964     1.007825032230
         H           -1.392743741537    -0.264370041632     1.892680065964     1.007825032230
         H           -1.411864741537     1.420627958368     1.323129065964     1.007825032230
         H            3.483541258463     0.877373958368     0.293057065964     1.007825032230
         H            2.837033258463     1.297017958368    -1.305060934036     1.007825032230
         H            3.170676258463     2.569631958368    -0.109204934036     1.007825032230
         H            1.529508258463    -2.473771041632    -0.648590934036     1.007825032230
         H            3.012487258463    -1.516737041632    -0.466254934036     1.007825032230
         H            2.624928258463    -2.783167041632     0.717741065964     1.007825032230
         H           -3.762692741537     0.574077958368     1.673439065964     1.007825032230
         H           -3.467041741537     0.934101958368    -0.039789934036     1.007825032230
         H           -3.450078741537    -0.746149041632     0.528144065964     1.007825032230

  Basis Set: AUG-CC-PVTZ
    Blend: AUG-CC-PVTZ
  Basis Set: (AUG-CC-PVTZ AUX)
    Blend: AUG-CC-PVTZ-JKFIT
	 Reference Energy          =    -837.7691558113472183 [Eh]
	 Singles Energy            =      -0.0000000000000000 [Eh]
	 Same-Spin Energy          =      -0.5167211900078919 [Eh]
	 Opposite-Spin Energy      =      -1.6702702247759218 [Eh]
	 Correlation Energy        =      -2.1869914147838134 [Eh]
	 Total Energy              =    -839.9561472261310655 [Eh]

	 ================> DF-SCS-MP2 Energies <==================
	-----------------------------------------------------------
	 SCS Same-Spin Scale       =       0.3333333333333333 [-]
	 SCS Opposite-Spin Scale   =       1.2000000000000000 [-]
	 SCS Same-Spin Energy      =      -0.1722403966692973 [Eh]
	 SCS Opposite-Spin Energy  =      -2.0043242697311059 [Eh]
	 SCS Correlation Energy    =      -2.1765646664004032 [Eh]
	 SCS Total Energy          =    -839.9457204777476136 [Eh]
	-----------------------------------------------------------

  Dipole Moment: [D]
     X:     1.8167      Y:     1.6904      Z:     4.3603     Total:     5.0170

*** Psi4 exiting successfully. Buy a developer a beer!
