                               Psi4 1.3.2 release

  ==> Input File <==

--------------------------------------------------------------------------
#psi4
#
memory 32 gb

molecule  {
0 1
  S       -0.7380000    -0.0680220    -0.3640970
  O       -1.0107130     0.9314480    -1.3993950
  O       -0.9666500    -1.4966470    -0.5970260
  N        0.7627382     0.0741944     0.0438234
  C        1.3822580     1.4387740     0.2709440
  C        1.4230980    -0.9933220     0.9046550
  C       -1.6975890     0.4015790     1.0774410
  C        2.8090910     1.5534440    -0.2422640
  C        2.2024570    -1.9997400     0.0750250
  C       -3.1888920     0.2878700     0.7901350
  H        0.7441850     2.1234290    -0.2885820
  H        1.3352270     1.7155400     1.3356310
  H        2.0636810    -0.5196560     1.6565250
  H        0.6239660    -1.5103280     1.4462590
  H       -1.3901500    -0.2576530     1.8936760
  H       -1.4092710     1.4273450     1.3241250
  H        3.4861350     0.8840910     0.2940530
  H        2.8396270     1.3037350    -1.3040650
  H        3.1732700     2.5763490    -0.1082090
  H        1.5321020    -2.4670540    -0.6475950
  H        3.0150810    -1.5100200    -0.4652590
  H        2.6275220    -2.7764500     0.7187370
  H       -3.7600990     0.5807950     1.6744350
  H       -3.4644480     0.9408190    -0.0387940
  H       -3.4474850    -0.7394320     0.5291400
units angstrom
no_reorient  #important for SAPT in psi4, default
symmetry c1  #important for SAPT in psi4, default
}

set PROPERTIES_ORIGIN ["COM"]
properties('MP2/aug-cc-pvtz', properties = ['dipole'])
--------------------------------------------------------------------------

    Molecular point group: c1
  Charge       = 0
  Multiplicity = 1
  Basis Set: AUG-CC-PVTZ
    Blend: AUG-CC-PVTZ
  Basis Set: (AUG-CC-PVTZ AUX)
    Blend: AUG-CC-PVTZ-JKFIT

    Orbital Energies [Eh]
    ---------------------

    Doubly Occupied:

       1A    -92.183284     2A    -20.530910     3A    -20.530824
       4A    -15.593513     5A    -11.285030     6A    -11.284392
       7A    -11.268650     8A    -11.233807     9A    -11.231883
      10A    -11.220606    11A     -9.149853    12A     -6.835429
      13A     -6.834256    14A     -6.834062    15A     -1.445632
      16A     -1.321373    17A     -1.248780    18A     -1.073499
      19A     -1.045694    20A     -1.025398    21A     -0.911561
      22A     -0.868842    23A     -0.867441    24A     -0.769509
      25A     -0.715977    26A     -0.672303    27A     -0.667267
      28A     -0.648760    29A     -0.642607    30A     -0.609975
      31A     -0.595688    32A     -0.578930    33A     -0.571293
      34A     -0.548977    35A     -0.546966    36A     -0.538383
      37A     -0.525197    38A     -0.519636    39A     -0.513928
      40A     -0.496201    41A     -0.489990    42A     -0.478217
      43A     -0.454444    44A     -0.445968    45A     -0.405963

  @DF-RHF Final Energy:  -837.77045168608572

   => Energetics <=

    Nuclear Repulsion Energy =            745.3872915076404979
    One-Electron Energy =               -2629.7936912773357108
    Two-Electron Energy =                1046.6359480836097191
    Total Energy =                       -837.7704516860856074
  Basis Set: (AUG-CC-PVTZ AUX)
    Blend: AUG-CC-PVTZ-RI
    Molecular point group: c1

    Geometry (in Angstrom), charge = 0, multiplicity = 1:

       Center              X                  Y                   Z               Mass
    ------------   -----------------  -----------------  -----------------  -----------------
         S           -0.729848419543    -0.067249463282    -0.361881197015    31.972071174400
         O           -1.002561419543     0.932220536718    -1.397179197015    15.994914619570
         O           -0.958498419543    -1.495874463282    -0.594810197015    15.994914619570
         N            0.770889780457     0.074966936718     0.046039202985    14.003074004430
         C            1.390409580457     1.439546536718     0.273159802985    12.000000000000
         C            1.431249580457    -0.992549463282     0.906870802985    12.000000000000
         C           -1.689437419543     0.402351536718     1.079656802985    12.000000000000
         C            2.817242580457     1.554216536718    -0.240048197015    12.000000000000
         C            2.210608580457    -1.998967463282     0.077240802985    12.000000000000
         C           -3.180740419543     0.288642536718     0.792350802985    12.000000000000
         H            0.752336580457     2.124201536718    -0.286366197015     1.007825032230
         H            1.343378580457     1.716312536718     1.337846802985     1.007825032230
         H            2.071832580457    -0.518883463282     1.658740802985     1.007825032230
         H            0.632117580457    -1.509555463282     1.448474802985     1.007825032230
         H           -1.381998419543    -0.256880463282     1.895891802985     1.007825032230
         H           -1.401119419543     1.428117536718     1.326340802985     1.007825032230
         H            3.494286580457     0.884863536718     0.296268802985     1.007825032230
         H            2.847778580457     1.304507536718    -1.301849197015     1.007825032230
         H            3.181421580457     2.577121536718    -0.105993197015     1.007825032230
         H            1.540253580457    -2.466281463282    -0.645379197015     1.007825032230
         H            3.023232580457    -1.509247463282    -0.463043197015     1.007825032230
         H            2.635673580457    -2.775677463282     0.720952802985     1.007825032230
         H           -3.751947419543     0.581567536718     1.676650802985     1.007825032230
         H           -3.456296419543     0.941591536718    -0.036578197015     1.007825032230
         H           -3.439333419543    -0.738659463282     0.531355802985     1.007825032230

  Basis Set: AUG-CC-PVTZ
    Blend: AUG-CC-PVTZ
  Basis Set: (AUG-CC-PVTZ AUX)
    Blend: AUG-CC-PVTZ-JKFIT
	 Reference Energy          =    -837.7704516860857211 [Eh]
	 Singles Energy            =      -0.0000000000000000 [Eh]
	 Same-Spin Energy          =      -0.5159514609224725 [Eh]
	 Opposite-Spin Energy      =      -1.6682101739963016 [Eh]
	 Correlation Energy        =      -2.1841616349187740 [Eh]
	 Total Energy              =    -839.9546133210044445 [Eh]

	 ================> DF-SCS-MP2 Energies <==================
	-----------------------------------------------------------
	 SCS Same-Spin Scale       =       0.3333333333333333 [-]
	 SCS Opposite-Spin Scale   =       1.2000000000000000 [-]
	 SCS Same-Spin Energy      =      -0.1719838203074908 [Eh]
	 SCS Opposite-Spin Energy  =      -2.0018522087955617 [Eh]
	 SCS Correlation Energy    =      -2.1738360291030525 [Eh]
	 SCS Total Energy          =    -839.9442877151888069 [Eh]
	-----------------------------------------------------------

  Dipole Moment: [D]
     X:     2.3076      Y:     1.4719      Z:     4.4397     Total:     5.2155

*** Psi4 exiting successfully. Buy a developer a beer!
