                               Psi4 1.3.2 release

  ==> Input File <==

--------------------------------------------------------------------------
#psi4
#
memory 32 gb

molecule  {
0 1
  S       -0.6856782    -0.0565648    -0.3316398
  O       -1.0107130     0.9314480    -1.3993950
  O       -0.9666500    -1.4966470    -0.5970260
  N        0.8588360     0.0833010     0.0699440
  C        1.3822580     1.4387740     0.2709440
  C        1.4230980    -0.9933220     0.9046550
  C       -1.6975890     0.4015790     1.0774410
  C        2.8090910     1.5534440    -0.2422640
  C        2.2024570    -1.9997400     0.0750250
  C       -3.1987503     0.3043001     0.8397210
  H        0.7441850     2.1234290    -0.2885820
  H        1.3352270     1.7155400     1.3356310
  H        2.0636810    -0.5196560     1.6565250
  H        0.6239660    -1.5103280     1.4462590
  H       -1.3901500    -0.2576530     1.8936760
  H       -1.4092710     1.4273450     1.3241250
  H        3.4861350     0.8840910     0.2940530
  H        2.8396270     1.3037350    -1.3040650
  H        3.1732700     2.5763490    -0.1082090
  H        1.5321020    -2.4670540    -0.6475950
  H        3.0150810    -1.5100200    -0.4652590
  H        2.6275220    -2.7764500     0.7187370
  H       -3.7600990     0.5807950     1.6744350
  H       -3.4644480     0.9408190    -0.0387940
  H       -3.4474850    -0.7394320     0.5291400
units angstrom
no_reorient  #important for SAPT in psi4, default
symmetry c1  #important for SAPT in psi4, default
}

set PROPERTIES_ORIGIN ["COM"]
properties('MP2/aug-cc-pvtz', properties = ['dipole'])
--------------------------------------------------------------------------

    Molecular point group: c1
  Charge       = 0
  Multiplicity = 1
  Basis Set: AUG-CC-PVTZ
    Blend: AUG-CC-PVTZ
  Basis Set: (AUG-CC-PVTZ AUX)
    Blend: AUG-CC-PVTZ-JKFIT

    Orbital Energies [Eh]
    ---------------------

    Doubly Occupied:

       1A    -92.189826     2A    -20.530915     3A    -20.530835
       4A    -15.604439     5A    -11.283532     6A    -11.283234
       7A    -11.273768     8A    -11.234659     9A    -11.232821
      10A    -11.220421    11A     -9.155711    12A     -6.840879
      13A     -6.839965    14A     -6.839829    15A     -1.430144
      16A     -1.305490    17A     -1.266327    18A     -1.075459
      19A     -1.053204    20A     -1.021823    21A     -0.918521
      22A     -0.877147    23A     -0.867309    24A     -0.774287
      25A     -0.721993    26A     -0.674029    27A     -0.664122
      28A     -0.651315    29A     -0.646153    30A     -0.605801
      31A     -0.598167    32A     -0.588057    33A     -0.577628
      34A     -0.552338    35A     -0.546873    36A     -0.536043
      37A     -0.525869    38A     -0.515941    39A     -0.510240
      40A     -0.501523    41A     -0.485652    42A     -0.474764
      43A     -0.447285    44A     -0.444011    45A     -0.408777

  @DF-RHF Final Energy:  -837.76714631174571

   => Energetics <=

    Nuclear Repulsion Energy =            743.9679528978463168
    One-Electron Energy =               -2626.8159474805734135
    Two-Electron Energy =                1045.0808482709812779
    Total Energy =                       -837.7671463117458188
  Basis Set: (AUG-CC-PVTZ AUX)
    Blend: AUG-CC-PVTZ-RI
    Molecular point group: c1

    Geometry (in Angstrom), charge = 0, multiplicity = 1:

       Center              X                  Y                   Z               Mass
    ------------   -----------------  -----------------  -----------------  -----------------
         S           -0.695094829109    -0.059978004568    -0.341530225237    31.972071174400
         O           -1.020129629109     0.928034795432    -1.409285425237    15.994914619570
         O           -0.976066629109    -1.500060204568    -0.606916425237    15.994914619570
         N            0.849419370891     0.079887795432     0.060053574763    14.003074004430
         C            1.372841370891     1.435360795432     0.261053574763    12.000000000000
         C            1.413681370891    -0.996735204568     0.894764574763    12.000000000000
         C           -1.707005629109     0.398165795432     1.067550574763    12.000000000000
         C            2.799674370891     1.550030795432    -0.252154425237    12.000000000000
         C            2.193040370891    -2.003153204568     0.065134574763    12.000000000000
         C           -3.208166929109     0.300886895432     0.829830574763    12.000000000000
         H            0.734768370891     2.120015795432    -0.298472425237     1.007825032230
         H            1.325810370891     1.712126795432     1.325740574763     1.007825032230
         H            2.054264370891    -0.523069204568     1.646634574763     1.007825032230
         H            0.614549370891    -1.513741204568     1.436368574763     1.007825032230
         H           -1.399566629109    -0.261066204568     1.883785574763     1.007825032230
         H           -1.418687629109     1.423931795432     1.314234574763     1.007825032230
         H            3.476718370891     0.880677795432     0.284162574763     1.007825032230
         H            2.830210370891     1.300321795432    -1.313955425237     1.007825032230
         H            3.163853370891     2.572935795432    -0.118099425237     1.007825032230
         H            1.522685370891    -2.470467204568    -0.657485425237     1.007825032230
         H            3.005664370891    -1.513433204568    -0.475149425237     1.007825032230
         H            2.618105370891    -2.779863204568     0.708846574763     1.007825032230
         H           -3.769515629109     0.577381795432     1.664544574763     1.007825032230
         H           -3.473864629109     0.937405795432    -0.048684425237     1.007825032230
         H           -3.456901629109    -0.742845204568     0.519249574763     1.007825032230

  Basis Set: AUG-CC-PVTZ
    Blend: AUG-CC-PVTZ
  Basis Set: (AUG-CC-PVTZ AUX)
    Blend: AUG-CC-PVTZ-JKFIT
	 Reference Energy          =    -837.7671463117457051 [Eh]
	 Singles Energy            =      -0.0000000000000000 [Eh]
	 Same-Spin Energy          =      -0.5174226958868788 [Eh]
	 Opposite-Spin Energy      =      -1.6707521888850279 [Eh]
	 Correlation Energy        =      -2.1881748847719065 [Eh]
	 Total Energy              =    -839.9553211965176160 [Eh]

	 ================> DF-SCS-MP2 Energies <==================
	-----------------------------------------------------------
	 SCS Same-Spin Scale       =       0.3333333333333333 [-]
	 SCS Opposite-Spin Scale   =       1.2000000000000000 [-]
	 SCS Same-Spin Energy      =      -0.1724742319622929 [Eh]
	 SCS Opposite-Spin Energy  =      -2.0049026266620333 [Eh]
	 SCS Correlation Energy    =      -2.1773768586243261 [Eh]
	 SCS Total Energy          =    -839.9445231703700756 [Eh]
	-----------------------------------------------------------

  Dipole Moment: [D]
     X:     2.2738      Y:     1.5249      Z:     4.6032     Total:     5.3558

*** Psi4 exiting successfully. Buy a developer a beer!
