                               Psi4 1.3.2 release

  ==> Input File <==

--------------------------------------------------------------------------
#psi4
#
memory 32 gb

molecule  {
0 1
  S       -0.7380000    -0.0680220    -0.3640970
  O       -0.9631869     0.8932832    -1.4459185
  O       -0.9666500    -1.4966470    -0.5970260
  N        0.8588360     0.0833010     0.0699440
  C        1.3822580     1.4387740     0.2709440
  C        1.4230980    -0.9933220     0.9046550
  C       -1.6628033     0.3265437     1.1219800
  C        2.8090910     1.5534440    -0.2422640
  C        2.2024570    -1.9997400     0.0750250
  C       -3.1888920     0.2878700     0.7901350
  H        0.7441850     2.1234290    -0.2885820
  H        1.3352270     1.7155400     1.3356310
  H        2.0636810    -0.5196560     1.6565250
  H        0.6239660    -1.5103280     1.4462590
  H       -1.3901500    -0.2576530     1.8936760
  H       -1.4092710     1.4273450     1.3241250
  H        3.4861350     0.8840910     0.2940530
  H        2.8396270     1.3037350    -1.3040650
  H        3.1732700     2.5763490    -0.1082090
  H        1.5321020    -2.4670540    -0.6475950
  H        3.0150810    -1.5100200    -0.4652590
  H        2.6275220    -2.7764500     0.7187370
  H       -3.7600990     0.5807950     1.6744350
  H       -3.4644480     0.9408190    -0.0387940
  H       -3.4474850    -0.7394320     0.5291400
units angstrom
no_reorient  #important for SAPT in psi4, default
symmetry c1  #important for SAPT in psi4, default
}

set PROPERTIES_ORIGIN ["COM"]
properties('MP2/aug-cc-pvtz', properties = ['dipole'])
--------------------------------------------------------------------------

    Molecular point group: c1
  Charge       = 0
  Multiplicity = 1
  Basis Set: AUG-CC-PVTZ
    Blend: AUG-CC-PVTZ
  Basis Set: (AUG-CC-PVTZ AUX)
    Blend: AUG-CC-PVTZ-JKFIT

    Orbital Energies [Eh]
    ---------------------

    Doubly Occupied:

       1A    -92.191108     2A    -20.542802     3A    -20.533987
       4A    -15.589700     5A    -11.278637     6A    -11.275248
       7A    -11.274849     8A    -11.241866     9A    -11.226790
      10A    -11.215129    11A     -9.156818    12A     -6.841947
      13A     -6.841298    14A     -6.840904    15A     -1.444032
      16A     -1.325364    17A     -1.247001    18A     -1.077858
      19A     -1.045139    20A     -1.008272    21A     -0.917716
      22A     -0.868820    23A     -0.858825    24A     -0.778790
      25A     -0.721020    26A     -0.674803    27A     -0.667867
      28A     -0.650316    29A     -0.640464    30A     -0.611144
      31A     -0.598624    32A     -0.576530    33A     -0.569669
      34A     -0.555347    35A     -0.545360    36A     -0.539497
      37A     -0.523063    38A     -0.518189    39A     -0.510281
      40A     -0.498233    41A     -0.488022    42A     -0.485502
      43A     -0.459475    44A     -0.446624    45A     -0.393257

  @DF-RHF Final Energy:  -837.76557381964699

   => Energetics <=

    Nuclear Repulsion Energy =            743.4242810125510914
    One-Electron Energy =               -2625.7873388059920217
    Two-Electron Energy =                1044.5974839737939419
    Total Energy =                       -837.7655738196469883
  Basis Set: (AUG-CC-PVTZ AUX)
    Blend: AUG-CC-PVTZ-RI
    Molecular point group: c1

    Geometry (in Angstrom), charge = 0, multiplicity = 1:

       Center              X                  Y                   Z               Mass
    ------------   -----------------  -----------------  -----------------  -----------------
         S           -0.745133329882    -0.058869730836    -0.362826769237    31.972071174400
         O           -0.970320229882     0.902435469164    -1.444648269237    15.994914619570
         O           -0.973783329882    -1.487494730836    -0.595755769237    15.994914619570
         N            0.851702670118     0.092453269164     0.071214230763    14.003074004430
         C            1.375124670118     1.447926269164     0.272214230763    12.000000000000
         C            1.415964670118    -0.984169730836     0.905925230763    12.000000000000
         C           -1.669936629882     0.335695969164     1.123250230763    12.000000000000
         C            2.801957670118     1.562596269164    -0.240993769237    12.000000000000
         C            2.195323670118    -1.990587730836     0.076295230763    12.000000000000
         C           -3.196025329882     0.297022269164     0.791405230763    12.000000000000
         H            0.737051670118     2.132581269164    -0.287311769237     1.007825032230
         H            1.328093670118     1.724692269164     1.336901230763     1.007825032230
         H            2.056547670118    -0.510503730836     1.657795230763     1.007825032230
         H            0.616832670118    -1.501175730836     1.447529230763     1.007825032230
         H           -1.397283329882    -0.248500730836     1.894946230763     1.007825032230
         H           -1.416404329882     1.436497269164     1.325395230763     1.007825032230
         H            3.479001670118     0.893243269164     0.295323230763     1.007825032230
         H            2.832493670118     1.312887269164    -1.302794769237     1.007825032230
         H            3.166136670118     2.585501269164    -0.106938769237     1.007825032230
         H            1.524968670118    -2.457901730836    -0.646324769237     1.007825032230
         H            3.007947670118    -1.500867730836    -0.463988769237     1.007825032230
         H            2.620388670118    -2.767297730836     0.720007230763     1.007825032230
         H           -3.767232329882     0.589947269164     1.675705230763     1.007825032230
         H           -3.471581329882     0.949971269164    -0.037523769237     1.007825032230
         H           -3.454618329882    -0.730279730836     0.530410230763     1.007825032230

  Basis Set: AUG-CC-PVTZ
    Blend: AUG-CC-PVTZ
  Basis Set: (AUG-CC-PVTZ AUX)
    Blend: AUG-CC-PVTZ-JKFIT
	 Reference Energy          =    -837.7655738196469883 [Eh]
	 Singles Energy            =      -0.0000000000000000 [Eh]
	 Same-Spin Energy          =      -0.5166757228099847 [Eh]
	 Opposite-Spin Energy      =      -1.6699994229784845 [Eh]
	 Correlation Energy        =      -2.1866751457884694 [Eh]
	 Total Energy              =    -839.9522489654355013 [Eh]

	 ================> DF-SCS-MP2 Energies <==================
	-----------------------------------------------------------
	 SCS Same-Spin Scale       =       0.3333333333333333 [-]
	 SCS Opposite-Spin Scale   =       1.2000000000000000 [-]
	 SCS Same-Spin Energy      =      -0.1722252409366616 [Eh]
	 SCS Opposite-Spin Energy  =      -2.0039993075741811 [Eh]
	 SCS Correlation Energy    =      -2.1762245485108425 [Eh]
	 SCS Total Energy          =    -839.9417983681578335 [Eh]
	-----------------------------------------------------------

  Dipole Moment: [D]
     X:     1.3888      Y:     1.5433      Z:     4.3922     Total:     4.8582

*** Psi4 exiting successfully. Buy a developer a beer!
