                               Psi4 1.3.2 release

  ==> Input File <==

--------------------------------------------------------------------------
#psi4
#
memory 32 gb

molecule  {
0 1
  S       -0.7380000    -0.0680220    -0.3640970
  O       -1.0107130     0.9314480    -1.3993950
  O       -0.9666500    -1.4966470    -0.5970260
  N        0.8807006     0.0570703    -0.0100690
  C        1.3822580     1.4387740     0.2709440
  C        1.4230980    -0.9933220     0.9046550
  C       -1.7756190     0.3848517     1.0278872
  C        2.8090910     1.5534440    -0.2422640
  C        2.2024570    -1.9997400     0.0750250
  C       -3.1888920     0.2878700     0.7901350
  H        0.7441850     2.1234290    -0.2885820
  H        1.3352270     1.7155400     1.3356310
  H        2.0636810    -0.5196560     1.6565250
  H        0.6239660    -1.5103280     1.4462590
  H       -1.3901500    -0.2576530     1.8936760
  H       -1.4092710     1.4273450     1.3241250
  H        3.4861350     0.8840910     0.2940530
  H        2.8396270     1.3037350    -1.3040650
  H        3.1732700     2.5763490    -0.1082090
  H        1.5321020    -2.4670540    -0.6475950
  H        3.0150810    -1.5100200    -0.4652590
  H        2.6275220    -2.7764500     0.7187370
  H       -3.7600990     0.5807950     1.6744350
  H       -3.4644480     0.9408190    -0.0387940
  H       -3.4474850    -0.7394320     0.5291400
units angstrom
no_reorient  #important for SAPT in psi4, default
symmetry c1  #important for SAPT in psi4, default
}

set PROPERTIES_ORIGIN ["COM"]
properties('MP2/aug-cc-pvtz', properties = ['dipole'])
--------------------------------------------------------------------------

    Molecular point group: c1
  Charge       = 0
  Multiplicity = 1
  Basis Set: AUG-CC-PVTZ
    Blend: AUG-CC-PVTZ
  Basis Set: (AUG-CC-PVTZ AUX)
    Blend: AUG-CC-PVTZ-JKFIT

    Orbital Energies [Eh]
    ---------------------

    Doubly Occupied:

       1A    -92.187667     2A    -20.533854     3A    -20.533363
       4A    -15.602770     5A    -11.282602     6A    -11.279467
       7A    -11.278006     8A    -11.233048     9A    -11.228804
      10A    -11.216151    11A     -9.153913    12A     -6.838911
      13A     -6.838217    14A     -6.838101    15A     -1.441581
      16A     -1.323530    17A     -1.243701    18A     -1.091972
      19A     -1.045864    20A     -1.012236    21A     -0.915628
      22A     -0.865573    23A     -0.855483    24A     -0.772699
      25A     -0.719994    26A     -0.668183    27A     -0.664215
      28A     -0.650181    29A     -0.641911    30A     -0.610675
      31A     -0.599052    32A     -0.592889    33A     -0.573319
      34A     -0.551385    35A     -0.547503    36A     -0.539338
      37A     -0.523405    38A     -0.514584    39A     -0.506865
      40A     -0.493170    41A     -0.483919    42A     -0.480412
      43A     -0.454869    44A     -0.443065    45A     -0.407484

  @DF-RHF Final Energy:  -837.76212848769228

   => Energetics <=

    Nuclear Repulsion Energy =            743.2936549768329542
    One-Electron Energy =               -2625.5524414726378382
    Two-Electron Energy =                1044.4966580081127177
    Total Energy =                       -837.7621284876922800
  Basis Set: (AUG-CC-PVTZ AUX)
    Blend: AUG-CC-PVTZ-RI
    Molecular point group: c1

    Geometry (in Angstrom), charge = 0, multiplicity = 1:

       Center              X                  Y                   Z               Mass
    ------------   -----------------  -----------------  -----------------  -----------------
         S           -0.734182475955    -0.064580991215    -0.353707671097    31.972071174400
         O           -1.006895475955     0.934889008785    -1.389005671097    15.994914619570
         O           -0.962832475955    -1.493205991215    -0.586636671097    15.994914619570
         N            0.884518124045     0.060511308785     0.000320328903    14.003074004430
         C            1.386075524045     1.442215008785     0.281333328903    12.000000000000
         C            1.426915524045    -0.989880991215     0.915044328903    12.000000000000
         C           -1.771801475955     0.388292708785     1.038276528903    12.000000000000
         C            2.812908524045     1.556885008785    -0.231874671097    12.000000000000
         C            2.206274524045    -1.996298991215     0.085414328903    12.000000000000
         C           -3.185074475955     0.291311008785     0.800524328903    12.000000000000
         H            0.748002524045     2.126870008785    -0.278192671097     1.007825032230
         H            1.339044524045     1.718981008785     1.346020328903     1.007825032230
         H            2.067498524045    -0.516214991215     1.666914328903     1.007825032230
         H            0.627783524045    -1.506886991215     1.456648328903     1.007825032230
         H           -1.386332475955    -0.254211991215     1.904065328903     1.007825032230
         H           -1.405453475955     1.430786008785     1.334514328903     1.007825032230
         H            3.489952524045     0.887532008785     0.304442328903     1.007825032230
         H            2.843444524045     1.307176008785    -1.293675671097     1.007825032230
         H            3.177087524045     2.579790008785    -0.097819671097     1.007825032230
         H            1.535919524045    -2.463612991215    -0.637205671097     1.007825032230
         H            3.018898524045    -1.506578991215    -0.454869671097     1.007825032230
         H            2.631339524045    -2.773008991215     0.729126328903     1.007825032230
         H           -3.756281475955     0.584236008785     1.684824328903     1.007825032230
         H           -3.460630475955     0.944260008785    -0.028404671097     1.007825032230
         H           -3.443667475955    -0.735990991215     0.539529328903     1.007825032230

  Basis Set: AUG-CC-PVTZ
    Blend: AUG-CC-PVTZ
  Basis Set: (AUG-CC-PVTZ AUX)
    Blend: AUG-CC-PVTZ-JKFIT
	 Reference Energy          =    -837.7621284876922800 [Eh]
	 Singles Energy            =      -0.0000000000000000 [Eh]
	 Same-Spin Energy          =      -0.5177751334766405 [Eh]
	 Opposite-Spin Energy      =      -1.6716285361580967 [Eh]
	 Correlation Energy        =      -2.1894036696347374 [Eh]
	 Total Energy              =    -839.9515321573270512 [Eh]

	 ================> DF-SCS-MP2 Energies <==================
	-----------------------------------------------------------
	 SCS Same-Spin Scale       =       0.3333333333333333 [-]
	 SCS Opposite-Spin Scale   =       1.2000000000000000 [-]
	 SCS Same-Spin Energy      =      -0.1725917111588802 [Eh]
	 SCS Opposite-Spin Energy  =      -2.0059542433897160 [Eh]
	 SCS Correlation Energy    =      -2.1785459545485963 [Eh]
	 SCS Total Energy          =    -839.9406744422408337 [Eh]
	-----------------------------------------------------------

  Dipole Moment: [D]
     X:     1.6225      Y:     1.5134      Z:     4.5170     Total:     5.0326

*** Psi4 exiting successfully. Buy a developer a beer!
