                               Psi4 1.4a3.dev225

  ==> Input File <==

--------------------------------------------------------------------------
#psi4
#
memory 32 gb

molecule  {
0 1
  S        0.7616280     0.0424770    -0.4366460
  O        1.0024240    -1.0592090    -1.3727360
  O        0.9495440     1.4436620    -0.8249950
  N       -0.8076120    -0.0882160     0.0931460
  C       -1.3011720    -1.3779010     0.4169580
  C       -1.3686840     1.0652840     0.8208400
  C        1.8058710    -0.2545270     0.9952940
  C       -2.7505920    -1.6006810    -0.0558370
  C       -2.1814690     1.9714470    -0.0911900
  C        3.2787560    -0.1326200     0.6229570
  H       -0.6761480    -2.1530350    -0.0688350
  H       -1.2569730    -1.5943860     1.5141500
  H       -1.9866060     0.6632120     1.6319710
  H       -0.5646970     1.6429440     1.2905320
  H        1.5186250     0.4781900     1.7554980
  H        1.5601880    -1.2573080     1.3582850
  H       -3.4295210    -0.8918450     0.4253230
  H       -2.7963610    -1.4499180    -1.1363750
  H       -3.1014500    -2.6111540     0.1760480
  H       -1.5338360     2.3728670    -0.8718090
  H       -2.9953600     1.4152720    -0.5615490
  H       -2.6084920     2.8033720     0.4789350
  H        3.8991710    -0.3169240     1.5035790
  H        3.5375790    -0.8611900    -0.1476860
  H        3.4935140     0.8689240     0.2454810
units angstrom
no_reorient  #important for SAPT in psi4, default
symmetry c1  #important for SAPT in psi4, default
}

set PROPERTIES_ORIGIN ["COM"]
properties('MP2/aug-cc-pvtz', properties = ['dipole'])
--------------------------------------------------------------------------

    Molecular point group: c1
  Charge       = 0
  Multiplicity = 1
  Basis Set: AUG-CC-PVTZ
    Blend: AUG-CC-PVTZ
  Basis Set: (AUG-CC-PVTZ AUX)
    Blend: AUG-CC-PVTZ-JKFIT

    Orbital Energies [Eh]
    ---------------------

    Doubly Occupied:

       1A    -92.193003     2A    -20.540447     3A    -20.540364
       4A    -15.594915     5A    -11.277901     6A    -11.276573
       7A    -11.275754     8A    -11.237684     9A    -11.226772
      10A    -11.217207    11A     -9.158579    12A     -6.843707
      13A     -6.842903    14A     -6.842818    15A     -1.445312
      16A     -1.328401    17A     -1.259098    18A     -1.078218
      19A     -1.044384    20A     -1.007966    21A     -0.917853
      22A     -0.871448    23A     -0.858339    24A     -0.774227
      25A     -0.723677    26A     -0.672446    27A     -0.668501
      28A     -0.652324    29A     -0.637904    30A     -0.612588
      31A     -0.603060    32A     -0.576704    33A     -0.572463
      34A     -0.549813    35A     -0.542735    36A     -0.540560
      37A     -0.527384    38A     -0.518884    39A     -0.510516
      40A     -0.494350    41A     -0.490562    42A     -0.488091
      43A     -0.460883    44A     -0.446412    45A     -0.393070

  @DF-RHF Final Energy:  -837.77407967401848

   => Energetics <=

    Nuclear Repulsion Energy =            743.8770409768117133
    One-Electron Energy =               -2626.6286403391209205
    Two-Electron Energy =                1044.9775196882908403
    Total Energy =                       -837.7740796740183669
  Basis Set: (AUG-CC-PVTZ AUX)
    Blend: AUG-CC-PVTZ-RI
    Molecular point group: c1

    Geometry (in Angstrom), charge = 0, multiplicity = 1:

       Center              X                  Y                   Z               Mass
    ------------   -----------------  -----------------  -----------------  -----------------
         S            0.718854318074     0.033837987637    -0.390321031841    31.972071174400
         O            0.959650318074    -1.067848012363    -1.326411031841    15.994914619570
         O            0.906770318074     1.435022987637    -0.778670031841    15.994914619570
         N           -0.850385681926    -0.096855012363     0.139470968159    14.003074004430
         C           -1.343945681926    -1.386540012363     0.463282968159    12.000000000000
         C           -1.411457681926     1.056644987637     0.867164968159    12.000000000000
         C            1.763097318074    -0.263166012363     1.041618968159    12.000000000000
         C           -2.793365681926    -1.609320012363    -0.009512031841    12.000000000000
         C           -2.224242681926     1.962807987637    -0.044865031841    12.000000000000
         C            3.235982318074    -0.141259012363     0.669281968159    12.000000000000
         H           -0.718921681926    -2.161674012363    -0.022510031841     1.007825032230
         H           -1.299746681926    -1.603025012363     1.560474968159     1.007825032230
         H           -2.029379681926     0.654572987637     1.678295968159     1.007825032230
         H           -0.607470681926     1.634304987637     1.336856968159     1.007825032230
         H            1.475851318074     0.469550987637     1.801822968159     1.007825032230
         H            1.517414318074    -1.265947012363     1.404609968159     1.007825032230
         H           -3.472294681926    -0.900484012363     0.471647968159     1.007825032230
         H           -2.839134681926    -1.458557012363    -1.090050031841     1.007825032230
         H           -3.144223681926    -2.619793012363     0.222372968159     1.007825032230
         H           -1.576609681926     2.364227987637    -0.825484031841     1.007825032230
         H           -3.038133681926     1.406632987637    -0.515224031841     1.007825032230
         H           -2.651265681926     2.794732987637     0.525259968159     1.007825032230
         H            3.856397318074    -0.325563012363     1.549903968159     1.007825032230
         H            3.494805318074    -0.869829012363    -0.101361031841     1.007825032230
         H            3.450740318074     0.860284987637     0.291805968159     1.007825032230

  Basis Set: AUG-CC-PVTZ
    Blend: AUG-CC-PVTZ
  Basis Set: (AUG-CC-PVTZ AUX)
    Blend: AUG-CC-PVTZ-JKFIT
	 Reference Energy          =    -837.7740796740184805 [Eh]
	 Singles Energy            =      -0.0000000000000000 [Eh]
	 Same-Spin Energy          =      -0.5169989978081175 [Eh]
	 Opposite-Spin Energy      =      -1.6699519303695225 [Eh]
	 Correlation Energy        =      -2.1869509281776400 [Eh]
	 Total Energy              =    -839.9610306021961605 [Eh]

	 ================> DF-SCS-MP2 Energies <==================
	-----------------------------------------------------------
	 SCS Same-Spin Scale       =       0.3333333333333333 [-]
	 SCS Opposite-Spin Scale   =       1.2000000000000000 [-]
	 SCS Same-Spin Energy      =      -0.1723329992693725 [Eh]
	 SCS Opposite-Spin Energy  =      -2.0039423164434269 [Eh]
	 SCS Correlation Energy    =      -2.1762753157127994 [Eh]
	 SCS Total Energy          =    -839.9503549897312951 [Eh]
	-----------------------------------------------------------

  Dipole Moment: [D]
     X:    -1.2654      Y:    -0.8614      Z:     4.4037     Total:     4.6621

*** Psi4 exiting successfully. Buy a developer a beer!
