                               Psi4 1.3.2 release

  ==> Input File <==

--------------------------------------------------------------------------
#psi4
#
memory 32 gb

molecule  {
0 1
  S       -0.7380000    -0.0680220    -0.3640970
  O       -1.0107130     0.9314480    -1.3993950
  O       -0.9666500    -1.4966470    -0.5970260
  N        0.8588360     0.0833010     0.0699440
  C        1.3664013     1.4473509     0.2527664
  C        1.4075567    -1.0101990     0.8929960
  C       -1.6975890     0.4015790     1.0774410
  C        2.8090910     1.5534440    -0.2422640
  C        2.2024570    -1.9997400     0.0750250
  C       -3.1888920     0.2878700     0.7901350
  H        0.7441850     2.1234290    -0.2885820
  H        1.3352270     1.7155400     1.3356310
  H        2.0636810    -0.5196560     1.6565250
  H        0.6239660    -1.5103280     1.4462590
  H       -1.3901500    -0.2576530     1.8936760
  H       -1.4092710     1.4273450     1.3241250
  H        3.4861350     0.8840910     0.2940530
  H        2.8396270     1.3037350    -1.3040650
  H        3.1732700     2.5763490    -0.1082090
  H        1.5321020    -2.4670540    -0.6475950
  H        3.0150810    -1.5100200    -0.4652590
  H        2.6275220    -2.7764500     0.7187370
  H       -3.7600990     0.5807950     1.6744350
  H       -3.4644480     0.9408190    -0.0387940
  H       -3.4474850    -0.7394320     0.5291400
units angstrom
no_reorient  #important for SAPT in psi4, default
symmetry c1  #important for SAPT in psi4, default
}

set PROPERTIES_ORIGIN ["COM"]
properties('MP2/aug-cc-pvtz', properties = ['dipole'])
--------------------------------------------------------------------------

    Molecular point group: c1
  Charge       = 0
  Multiplicity = 1
  Basis Set: AUG-CC-PVTZ
    Blend: AUG-CC-PVTZ
  Basis Set: (AUG-CC-PVTZ AUX)
    Blend: AUG-CC-PVTZ-JKFIT

    Orbital Energies [Eh]
    ---------------------

    Doubly Occupied:

       1A    -92.190122     2A    -20.538588     3A    -20.538399
       4A    -15.593949     5A    -11.277377     6A    -11.276888
       7A    -11.275451     8A    -11.236824     9A    -11.228184
      10A    -11.216249    11A     -9.155924    12A     -6.840994
      13A     -6.840274    14A     -6.840176    15A     -1.443918
      16A     -1.326994    17A     -1.248973    18A     -1.078226
      19A     -1.047667    20A     -1.009993    21A     -0.915713
      22A     -0.871761    23A     -0.855804    24A     -0.774411
      25A     -0.722315    26A     -0.670079    27A     -0.666980
      28A     -0.650645    29A     -0.641675    30A     -0.611245
      31A     -0.602147    32A     -0.576913    33A     -0.572030
      34A     -0.550037    35A     -0.545225    36A     -0.541956
      37A     -0.527026    38A     -0.517200    39A     -0.513165
      40A     -0.501177    41A     -0.488277    42A     -0.485442
      43A     -0.460334    44A     -0.444525    45A     -0.395416

  @DF-RHF Final Energy:  -837.77536660465978

   => Energetics <=

    Nuclear Repulsion Energy =            743.7352523648518172
    One-Electron Energy =               -2626.4079016646510354
    Two-Electron Energy =                1044.8972826951394381
    Total Energy =                       -837.7753666046596663
  Basis Set: (AUG-CC-PVTZ AUX)
    Blend: AUG-CC-PVTZ-RI
    Molecular point group: c1

    Geometry (in Angstrom), charge = 0, multiplicity = 1:

       Center              X                  Y                   Z               Mass
    ------------   -----------------  -----------------  -----------------  -----------------
         S           -0.735717542473    -0.067418586110    -0.361928019069    31.972071174400
         O           -1.008430542473     0.932051413890    -1.397226019069    15.994914619570
         O           -0.964367542473    -1.496043586110    -0.594857019069    15.994914619570
         N            0.861118457527     0.083904413890     0.072112980931    14.003074004430
         C            1.368683757527     1.447954313890     0.254935380931    12.000000000000
         C            1.409839157527    -1.009595586110     0.895164980931    12.000000000000
         C           -1.695306542473     0.402182413890     1.079609980931    12.000000000000
         C            2.811373457527     1.554047413890    -0.240095019069    12.000000000000
         C            2.204739457527    -1.999136586110     0.077193980931    12.000000000000
         C           -3.186609542473     0.288473413890     0.792303980931    12.000000000000
         H            0.746467457527     2.124032413890    -0.286413019069     1.007825032230
         H            1.337509457527     1.716143413890     1.337799980931     1.007825032230
         H            2.065963457527    -0.519052586110     1.658693980931     1.007825032230
         H            0.626248457527    -1.509724586110     1.448427980931     1.007825032230
         H           -1.387867542473    -0.257049586110     1.895844980931     1.007825032230
         H           -1.406988542473     1.427948413890     1.326293980931     1.007825032230
         H            3.488417457527     0.884694413890     0.296221980931     1.007825032230
         H            2.841909457527     1.304338413890    -1.301896019069     1.007825032230
         H            3.175552457527     2.576952413890    -0.106040019069     1.007825032230
         H            1.534384457527    -2.466450586110    -0.645426019069     1.007825032230
         H            3.017363457527    -1.509416586110    -0.463090019069     1.007825032230
         H            2.629804457527    -2.775846586110     0.720905980931     1.007825032230
         H           -3.757816542473     0.581398413890     1.676603980931     1.007825032230
         H           -3.462165542473     0.941422413890    -0.036625019069     1.007825032230
         H           -3.445202542473    -0.738828586110     0.531308980931     1.007825032230

  Basis Set: AUG-CC-PVTZ
    Blend: AUG-CC-PVTZ
  Basis Set: (AUG-CC-PVTZ AUX)
    Blend: AUG-CC-PVTZ-JKFIT
	 Reference Energy          =    -837.7753666046597800 [Eh]
	 Singles Energy            =      -0.0000000000000000 [Eh]
	 Same-Spin Energy          =      -0.5167667519969534 [Eh]
	 Opposite-Spin Energy      =      -1.6697023883529682 [Eh]
	 Correlation Energy        =      -2.1864691403499217 [Eh]
	 Total Energy              =    -839.9618357450096937 [Eh]

	 ================> DF-SCS-MP2 Energies <==================
	-----------------------------------------------------------
	 SCS Same-Spin Scale       =       0.3333333333333333 [-]
	 SCS Opposite-Spin Scale   =       1.2000000000000000 [-]
	 SCS Same-Spin Energy      =      -0.1722555839989845 [Eh]
	 SCS Opposite-Spin Energy  =      -2.0036428660235619 [Eh]
	 SCS Correlation Energy    =      -2.1758984500225464 [Eh]
	 SCS Total Energy          =    -839.9512650546823807 [Eh]
	-----------------------------------------------------------

  Dipole Moment: [D]
     X:     1.5950      Y:     1.4184      Z:     4.2915     Total:     4.7930

*** Psi4 exiting successfully. Buy a developer a beer!
