                               Psi4 1.3.2 release

  ==> Input File <==

--------------------------------------------------------------------------
#psi4
#
memory 32 gb

molecule  {
0 1
  S       -0.7380000    -0.0680220    -0.3640970
  O       -0.9920931     0.8632078    -1.3287086
  O       -0.9666500    -1.4966470    -0.5970260
  N        0.8588360     0.0833010     0.0699440
  C        1.3822580     1.4387740     0.2709440
  C        1.4230980    -0.9933220     0.9046550
  C       -1.6975890     0.4015790     1.0774410
  C        2.8090910     1.5534440    -0.2422640
  C        2.2024570    -1.9997400     0.0750250
  C       -3.1888920     0.2878700     0.7901350
  H        0.7441850     2.1234290    -0.2885820
  H        1.3352270     1.7155400     1.3356310
  H        2.0636810    -0.5196560     1.6565250
  H        0.6239660    -1.5103280     1.4462590
  H       -1.3901500    -0.2576530     1.8936760
  H       -1.4092710     1.4273450     1.3241250
  H        3.4861350     0.8840910     0.2940530
  H        2.8396270     1.3037350    -1.3040650
  H        3.1732700     2.5763490    -0.1082090
  H        1.5321020    -2.4670540    -0.6475950
  H        3.0150810    -1.5100200    -0.4652590
  H        2.6275220    -2.7764500     0.7187370
  H       -3.7600990     0.5807950     1.6744350
  H       -3.4644480     0.9408190    -0.0387940
  H       -3.4474850    -0.7394320     0.5291400
units angstrom
no_reorient  #important for SAPT in psi4, default
symmetry c1  #important for SAPT in psi4, default
}

set PROPERTIES_ORIGIN ["COM"]
properties('MP2/aug-cc-pvtz', properties = ['dipole'])
--------------------------------------------------------------------------

    Molecular point group: c1
  Charge       = 0
  Multiplicity = 1
  Basis Set: AUG-CC-PVTZ
    Blend: AUG-CC-PVTZ
  Basis Set: (AUG-CC-PVTZ AUX)
    Blend: AUG-CC-PVTZ-JKFIT

    Orbital Energies [Eh]
    ---------------------

    Doubly Occupied:

       1A    -92.179138     2A    -20.541185     3A    -20.530369
       4A    -15.587268     5A    -11.275581     6A    -11.272248
       7A    -11.268808     8A    -11.235091     9A    -11.227275
      10A    -11.213797    11A     -9.147663    12A     -6.833231
      13A     -6.832264    14A     -6.831537    15A     -1.486328
      16A     -1.344206    17A     -1.246306    18A     -1.074342
      19A     -1.044454    20A     -1.007243    21A     -0.911784
      22A     -0.868004    23A     -0.854836    24A     -0.770616
      25A     -0.724432    26A     -0.681600    27A     -0.670472
      28A     -0.649696    29A     -0.640763    30A     -0.620805
      31A     -0.601060    32A     -0.578568    33A     -0.573505
      34A     -0.550213    35A     -0.542930    36A     -0.538683
      37A     -0.525493    38A     -0.520548    39A     -0.512152
      40A     -0.499506    41A     -0.497923    42A     -0.488449
      43A     -0.466293    44A     -0.444091    45A     -0.392359

  @DF-RHF Final Energy:  -837.77490820654521

   => Energetics <=

    Nuclear Repulsion Energy =            748.7749774026559635
    One-Electron Energy =               -2636.4935414026408580
    Two-Electron Energy =                1049.9436557934395751
    Total Energy =                       -837.7749082065452058
  Basis Set: (AUG-CC-PVTZ AUX)
    Blend: AUG-CC-PVTZ-RI
    Molecular point group: c1

    Geometry (in Angstrom), charge = 0, multiplicity = 1:

       Center              X                  Y                   Z               Mass
    ------------   -----------------  -----------------  -----------------  -----------------
         S           -0.739803986064    -0.061410100204    -0.370945713170    31.972071174400
         O           -0.993897086064     0.869819699796    -1.335557313170    15.994914619570
         O           -0.968453986064    -1.490035100204    -0.603874713170    15.994914619570
         N            0.857032013936     0.089912899796     0.063095286830    14.003074004430
         C            1.380454013936     1.445385899796     0.264095286830    12.000000000000
         C            1.421294013936    -0.986710100204     0.897806286830    12.000000000000
         C           -1.699392986064     0.408190899796     1.070592286830    12.000000000000
         C            2.807287013936     1.560055899796    -0.249112713170    12.000000000000
         C            2.200653013936    -1.993128100204     0.068176286830    12.000000000000
         C           -3.190695986064     0.294481899796     0.783286286830    12.000000000000
         H            0.742381013936     2.130040899796    -0.295430713170     1.007825032230
         H            1.333423013936     1.722151899796     1.328782286830     1.007825032230
         H            2.061877013936    -0.513044100204     1.649676286830     1.007825032230
         H            0.622162013936    -1.503716100204     1.439410286830     1.007825032230
         H           -1.391953986064    -0.251041100204     1.886827286830     1.007825032230
         H           -1.411074986064     1.433956899796     1.317276286830     1.007825032230
         H            3.484331013936     0.890702899796     0.287204286830     1.007825032230
         H            2.837823013936     1.310346899796    -1.310913713170     1.007825032230
         H            3.171466013936     2.582960899796    -0.115057713170     1.007825032230
         H            1.530298013936    -2.460442100204    -0.654443713170     1.007825032230
         H            3.013277013936    -1.503408100204    -0.472107713170     1.007825032230
         H            2.625718013936    -2.769838100204     0.711888286830     1.007825032230
         H           -3.761902986064     0.587406899796     1.667586286830     1.007825032230
         H           -3.466251986064     0.947430899796    -0.045642713170     1.007825032230
         H           -3.449288986064    -0.732820100204     0.522291286830     1.007825032230

  Basis Set: AUG-CC-PVTZ
    Blend: AUG-CC-PVTZ
  Basis Set: (AUG-CC-PVTZ AUX)
    Blend: AUG-CC-PVTZ-JKFIT
	 Reference Energy          =    -837.7749082065452058 [Eh]
	 Singles Energy            =      -0.0000000000000000 [Eh]
	 Same-Spin Energy          =      -0.5145051455029890 [Eh]
	 Opposite-Spin Energy      =      -1.6643481308011960 [Eh]
	 Correlation Energy        =      -2.1788532763041850 [Eh]
	 Total Energy              =    -839.9537614828493588 [Eh]

	 ================> DF-SCS-MP2 Energies <==================
	-----------------------------------------------------------
	 SCS Same-Spin Scale       =       0.3333333333333333 [-]
	 SCS Opposite-Spin Scale   =       1.2000000000000000 [-]
	 SCS Same-Spin Energy      =      -0.1715017151676630 [Eh]
	 SCS Opposite-Spin Energy  =      -1.9972177569614351 [Eh]
	 SCS Correlation Energy    =      -2.1687194721290979 [Eh]
	 SCS Total Energy          =    -839.9436276786742610 [Eh]
	-----------------------------------------------------------

  Dipole Moment: [D]
     X:     1.4657      Y:     1.7740      Z:     3.9004     Total:     4.5286

*** Psi4 exiting successfully. Buy a developer a beer!
