                               Psi4 1.3.2 release

  ==> Input File <==

--------------------------------------------------------------------------
#psi4
#
memory 32 gb

molecule  {
0 1
  S       -0.7380000    -0.0680220    -0.3640970
  O       -1.0107130     0.9314480    -1.3993950
  O       -0.9666500    -1.4966470    -0.5970260
  N        0.9261959     0.0641380     0.0384318
  C        1.3822580     1.4387740     0.2709440
  C        1.4230980    -0.9933220     0.9046550
  C       -1.6975890     0.4015790     1.0774410
  C        2.8053726     1.4768199    -0.2635478
  C        2.2024570    -1.9997400     0.0750250
  C       -3.1888920     0.2878700     0.7901350
  H        0.7441850     2.1234290    -0.2885820
  H        1.3352270     1.7155400     1.3356310
  H        2.0636810    -0.5196560     1.6565250
  H        0.6239660    -1.5103280     1.4462590
  H       -1.3901500    -0.2576530     1.8936760
  H       -1.4092710     1.4273450     1.3241250
  H        3.4861350     0.8840910     0.2940530
  H        2.8396270     1.3037350    -1.3040650
  H        3.1732700     2.5763490    -0.1082090
  H        1.5321020    -2.4670540    -0.6475950
  H        3.0150810    -1.5100200    -0.4652590
  H        2.6275220    -2.7764500     0.7187370
  H       -3.7600990     0.5807950     1.6744350
  H       -3.4644480     0.9408190    -0.0387940
  H       -3.4474850    -0.7394320     0.5291400
units angstrom
no_reorient  #important for SAPT in psi4, default
symmetry c1  #important for SAPT in psi4, default
}

set PROPERTIES_ORIGIN ["COM"]
properties('MP2/aug-cc-pvtz', properties = ['dipole'])
--------------------------------------------------------------------------

    Molecular point group: c1
  Charge       = 0
  Multiplicity = 1
  Basis Set: AUG-CC-PVTZ
    Blend: AUG-CC-PVTZ
  Basis Set: (AUG-CC-PVTZ AUX)
    Blend: AUG-CC-PVTZ-JKFIT

    Orbital Energies [Eh]
    ---------------------

    Doubly Occupied:

       1A    -92.190788     2A    -20.541323     3A    -20.539424
       4A    -15.594914     5A    -11.279831     6A    -11.275490
       7A    -11.272417     8A    -11.239954     9A    -11.226842
      10A    -11.213629    11A     -9.156770    12A     -6.841608
      13A     -6.841001    14A     -6.840962    15A     -1.442368
      16A     -1.328082    17A     -1.247671    18A     -1.081123
      19A     -1.047130    20A     -1.001725    21A     -0.917287
      22A     -0.868487    23A     -0.851691    24A     -0.779003
      25A     -0.721201    26A     -0.670103    27A     -0.667297
      28A     -0.655563    29A     -0.644320    30A     -0.613131
      31A     -0.600536    32A     -0.579433    33A     -0.569114
      34A     -0.549635    35A     -0.546066    36A     -0.535939
      37A     -0.527893    38A     -0.519853    39A     -0.511029
      40A     -0.499554    41A     -0.489275    42A     -0.479444
      43A     -0.461594    44A     -0.444099    45A     -0.393569

  @DF-RHF Final Energy:  -837.76349928740092

   => Energetics <=

    Nuclear Repulsion Energy =            742.9952447451146327
    One-Electron Energy =               -2624.9211498704598853
    Two-Electron Energy =                1044.1624058379443341
    Total Energy =                       -837.7634992874009185
  Basis Set: (AUG-CC-PVTZ AUX)
    Blend: AUG-CC-PVTZ-RI
    Molecular point group: c1

    Geometry (in Angstrom), charge = 0, multiplicity = 1:

       Center              X                  Y                   Z               Mass
    ------------   -----------------  -----------------  -----------------  -----------------
         S           -0.743443388788    -0.060826549421    -0.359876715167    31.972071174400
         O           -1.016156388788     0.938643450579    -1.395174715167    15.994914619570
         O           -0.972093388788    -1.489451549421    -0.592805715167    15.994914619570
         N            0.920752511212     0.071333450579     0.042652084833    14.003074004430
         C            1.376814611212     1.445969450579     0.275164284833    12.000000000000
         C            1.417654611212    -0.986126549421     0.908875284833    12.000000000000
         C           -1.703032388788     0.408774450579     1.081661284833    12.000000000000
         C            2.799929211212     1.484015350579    -0.259327515167    12.000000000000
         C            2.197013611212    -1.992544549421     0.079245284833    12.000000000000
         C           -3.194335388788     0.295065450579     0.794355284833    12.000000000000
         H            0.738741611212     2.130624450579    -0.284361715167     1.007825032230
         H            1.329783611212     1.722735450579     1.339851284833     1.007825032230
         H            2.058237611212    -0.512460549421     1.660745284833     1.007825032230
         H            0.618522611212    -1.503132549421     1.450479284833     1.007825032230
         H           -1.395593388788    -0.250457549421     1.897896284833     1.007825032230
         H           -1.414714388788     1.434540450579     1.328345284833     1.007825032230
         H            3.480691611212     0.891286450579     0.298273284833     1.007825032230
         H            2.834183611212     1.310930450579    -1.299844715167     1.007825032230
         H            3.167826611212     2.583544450579    -0.103988715167     1.007825032230
         H            1.526658611212    -2.459858549421    -0.643374715167     1.007825032230
         H            3.009637611212    -1.502824549421    -0.461038715167     1.007825032230
         H            2.622078611212    -2.769254549421     0.722957284833     1.007825032230
         H           -3.765542388788     0.587990450579     1.678655284833     1.007825032230
         H           -3.469891388788     0.948014450579    -0.034573715167     1.007825032230
         H           -3.452928388788    -0.732236549421     0.533360284833     1.007825032230

  Basis Set: AUG-CC-PVTZ
    Blend: AUG-CC-PVTZ
  Basis Set: (AUG-CC-PVTZ AUX)
    Blend: AUG-CC-PVTZ-JKFIT
	 Reference Energy          =    -837.7634992874009185 [Eh]
	 Singles Energy            =      -0.0000000000000000 [Eh]
	 Same-Spin Energy          =      -0.5177606570281821 [Eh]
	 Opposite-Spin Energy      =      -1.6720077467716128 [Eh]
	 Correlation Energy        =      -2.1897684037997949 [Eh]
	 Total Energy              =    -839.9532676912007219 [Eh]

	 ================> DF-SCS-MP2 Energies <==================
	-----------------------------------------------------------
	 SCS Same-Spin Scale       =       0.3333333333333333 [-]
	 SCS Opposite-Spin Scale   =       1.2000000000000000 [-]
	 SCS Same-Spin Energy      =      -0.1725868856760607 [Eh]
	 SCS Opposite-Spin Energy  =      -2.0064092961259354 [Eh]
	 SCS Correlation Energy    =      -2.1789961818019963 [Eh]
	 SCS Total Energy          =    -839.9424954692028678 [Eh]
	-----------------------------------------------------------

  Dipole Moment: [D]
     X:     1.2259      Y:     1.4637      Z:     4.3554     Total:     4.7555

*** Psi4 exiting successfully. Buy a developer a beer!
