                               Psi4 1.3.2 release

  ==> Input File <==

--------------------------------------------------------------------------
#psi4
#
memory 32 gb

molecule  {
0 1
  S       -0.7380000    -0.0680220    -0.3640970
  O       -1.0107130     0.9314480    -1.3993950
  O       -0.9666500    -1.4966470    -0.5970260
  N        0.8681533     0.0786588     0.0773936
  C        1.3822580     1.4387740     0.2709440
  C        1.4230980    -0.9933220     0.9046550
  C       -1.6975890     0.4015790     1.0774410
  C        2.8090910     1.5534440    -0.2422640
  C        2.2024570    -1.9997400     0.0750250
  C       -3.1888920     0.2878700     0.7901350
  H        0.7495280     2.1307372    -0.2856517
  H        1.3352270     1.7155400     1.3356310
  H        2.0636810    -0.5196560     1.6565250
  H        0.6239660    -1.5103280     1.4462590
  H       -1.3901500    -0.2576530     1.8936760
  H       -1.4092710     1.4273450     1.3241250
  H        3.4861350     0.8840910     0.2940530
  H        2.8396270     1.3037350    -1.3040650
  H        3.1732700     2.5763490    -0.1082090
  H        1.5321020    -2.4670540    -0.6475950
  H        3.0150810    -1.5100200    -0.4652590
  H        2.6275220    -2.7764500     0.7187370
  H       -3.7600990     0.5807950     1.6744350
  H       -3.4644480     0.9408190    -0.0387940
  H       -3.4474850    -0.7394320     0.5291400
units angstrom
no_reorient  #important for SAPT in psi4, default
symmetry c1  #important for SAPT in psi4, default
}

set PROPERTIES_ORIGIN ["COM"]
properties('MP2/aug-cc-pvtz', properties = ['dipole'])
--------------------------------------------------------------------------

    Molecular point group: c1
  Charge       = 0
  Multiplicity = 1
  Basis Set: AUG-CC-PVTZ
    Blend: AUG-CC-PVTZ
  Basis Set: (AUG-CC-PVTZ AUX)
    Blend: AUG-CC-PVTZ-JKFIT

    Orbital Energies [Eh]
    ---------------------

    Doubly Occupied:

       1A    -92.191359     2A    -20.540021     3A    -20.539085
       4A    -15.593374     5A    -11.276275     6A    -11.275998
       7A    -11.274865     8A    -11.237223     9A    -11.227558
      10A    -11.215603    11A     -9.157007    12A     -6.842061
      13A     -6.841339    14A     -6.841260    15A     -1.443855
      16A     -1.327607    17A     -1.249566    18A     -1.078703
      19A     -1.046825    20A     -1.008529    21A     -0.916473
      22A     -0.870292    23A     -0.856214    24A     -0.774762
      25A     -0.720936    26A     -0.671102    27A     -0.667395
      28A     -0.651877    29A     -0.641594    30A     -0.612305
      31A     -0.600149    32A     -0.577775    33A     -0.572317
      34A     -0.550050    35A     -0.543699    36A     -0.540757
      37A     -0.527089    38A     -0.519555    39A     -0.511988
      40A     -0.498690    41A     -0.489359    42A     -0.485840
      43A     -0.460920    44A     -0.445654    45A     -0.394326

  @DF-RHF Final Energy:  -837.77628242197682

   => Energetics <=

    Nuclear Repulsion Energy =            743.3220994988058692
    One-Electron Energy =               -2625.5783010050699886
    Two-Electron Energy =                1044.4799190842873031
    Total Energy =                       -837.7762824219767026
  Basis Set: (AUG-CC-PVTZ AUX)
    Blend: AUG-CC-PVTZ-RI
    Molecular point group: c1

    Geometry (in Angstrom), charge = 0, multiplicity = 1:

       Center              X                  Y                   Z               Mass
    ------------   -----------------  -----------------  -----------------  -----------------
         S           -0.738822851132    -0.067672771471    -0.364746671276    31.972071174400
         O           -1.011535851132     0.931797228529    -1.400044671276    15.994914619570
         O           -0.967472851132    -1.496297771471    -0.597675671276    15.994914619570
         N            0.867330448868     0.079008028529     0.076743928724    14.003074004430
         C            1.381435148868     1.439123228529     0.270294328724    12.000000000000
         C            1.422275148868    -0.992972771471     0.904005328724    12.000000000000
         C           -1.698411851132     0.401928228529     1.076791328724    12.000000000000
         C            2.808268148868     1.553793228529    -0.242913671276    12.000000000000
         C            2.201634148868    -1.999390771471     0.074375328724    12.000000000000
         C           -3.189714851132     0.288219228529     0.789485328724    12.000000000000
         H            0.748705148868     2.131086428529    -0.286301371276     1.007825032230
         H            1.334404148868     1.715889228529     1.334981328724     1.007825032230
         H            2.062858148868    -0.519306771471     1.655875328724     1.007825032230
         H            0.623143148868    -1.509978771471     1.445609328724     1.007825032230
         H           -1.390972851132    -0.257303771471     1.893026328724     1.007825032230
         H           -1.410093851132     1.427694228529     1.323475328724     1.007825032230
         H            3.485312148868     0.884440228529     0.293403328724     1.007825032230
         H            2.838804148868     1.304084228529    -1.304714671276     1.007825032230
         H            3.172447148868     2.576698228529    -0.108858671276     1.007825032230
         H            1.531279148868    -2.466704771471    -0.648244671276     1.007825032230
         H            3.014258148868    -1.509670771471    -0.465908671276     1.007825032230
         H            2.626699148868    -2.776100771471     0.718087328724     1.007825032230
         H           -3.760921851132     0.581144228529     1.673785328724     1.007825032230
         H           -3.465270851132     0.941168228529    -0.039443671276     1.007825032230
         H           -3.448307851132    -0.739082771471     0.528490328724     1.007825032230

  Basis Set: AUG-CC-PVTZ
    Blend: AUG-CC-PVTZ
  Basis Set: (AUG-CC-PVTZ AUX)
    Blend: AUG-CC-PVTZ-JKFIT
	 Reference Energy          =    -837.7762824219768163 [Eh]
	 Singles Energy            =      -0.0000000000000000 [Eh]
	 Same-Spin Energy          =      -0.5168833912636965 [Eh]
	 Opposite-Spin Energy      =      -1.6699178872681668 [Eh]
	 Correlation Energy        =      -2.1868012785318633 [Eh]
	 Total Energy              =    -839.9630837005087187 [Eh]

	 ================> DF-SCS-MP2 Energies <==================
	-----------------------------------------------------------
	 SCS Same-Spin Scale       =       0.3333333333333333 [-]
	 SCS Opposite-Spin Scale   =       1.2000000000000000 [-]
	 SCS Same-Spin Energy      =      -0.1722944637545655 [Eh]
	 SCS Opposite-Spin Energy  =      -2.0039014647218001 [Eh]
	 SCS Correlation Energy    =      -2.1761959284763654 [Eh]
	 SCS Total Energy          =    -839.9524783504531342 [Eh]
	-----------------------------------------------------------

  Dipole Moment: [D]
     X:     1.5256      Y:     1.4644      Z:     4.2900     Total:     4.7828

*** Psi4 exiting successfully. Buy a developer a beer!
