                               Psi4 1.3.2 release

  ==> Input File <==

--------------------------------------------------------------------------
#psi4
#
memory 32 gb

molecule  {
0 1
  S       -0.7444409     0.0187073    -0.3619199
  O       -1.0107130     0.9314480    -1.3993950
  O       -0.9666500    -1.4966470    -0.5970260
  N        0.8588360     0.0833010     0.0699440
  C        1.3126191     1.4660708     0.2535396
  C        1.4230980    -0.9933220     0.9046550
  C       -1.6975890     0.4015790     1.0774410
  C        2.8090910     1.5534440    -0.2422640
  C        2.2024570    -1.9997400     0.0750250
  C       -3.1888920     0.2878700     0.7901350
  H        0.7441850     2.1234290    -0.2885820
  H        1.3352270     1.7155400     1.3356310
  H        2.0636810    -0.5196560     1.6565250
  H        0.6239660    -1.5103280     1.4462590
  H       -1.3901500    -0.2576530     1.8936760
  H       -1.4092710     1.4273450     1.3241250
  H        3.4861350     0.8840910     0.2940530
  H        2.8396270     1.3037350    -1.3040650
  H        3.1732700     2.5763490    -0.1082090
  H        1.5321020    -2.4670540    -0.6475950
  H        3.0150810    -1.5100200    -0.4652590
  H        2.6275220    -2.7764500     0.7187370
  H       -3.7600990     0.5807950     1.6744350
  H       -3.4644480     0.9408190    -0.0387940
  H       -3.4474850    -0.7394320     0.5291400
units angstrom
no_reorient  #important for SAPT in psi4, default
symmetry c1  #important for SAPT in psi4, default
}

set PROPERTIES_ORIGIN ["COM"]
properties('MP2/aug-cc-pvtz', properties = ['dipole'])
--------------------------------------------------------------------------

    Molecular point group: c1
  Charge       = 0
  Multiplicity = 1
  Basis Set: AUG-CC-PVTZ
    Blend: AUG-CC-PVTZ
  Basis Set: (AUG-CC-PVTZ AUX)
    Blend: AUG-CC-PVTZ-JKFIT

    Orbital Energies [Eh]
    ---------------------

    Doubly Occupied:

       1A    -92.187655     2A    -20.553594     3A    -20.517258
       4A    -15.596064     5A    -11.278279     6A    -11.277285
       7A    -11.276816     8A    -11.239267     9A    -11.230573
      10A    -11.214455    11A     -9.154925    12A     -6.839863
      13A     -6.839367    14A     -6.838793    15A     -1.458019
      16A     -1.304100    17A     -1.244807    18A     -1.084925
      19A     -1.043737    20A     -1.005392    21A     -0.920168
      22A     -0.875562    23A     -0.857397    24A     -0.777186
      25A     -0.724669    26A     -0.673826    27A     -0.670532
      28A     -0.651373    29A     -0.647475    30A     -0.612308
      31A     -0.601987    32A     -0.576692    33A     -0.568941
      34A     -0.551661    35A     -0.542937    36A     -0.535606
      37A     -0.528831    38A     -0.522267    39A     -0.514046
      40A     -0.505158    41A     -0.491194    42A     -0.479902
      43A     -0.444791    44A     -0.435424    45A     -0.394475

  @DF-RHF Final Energy:  -837.75610721735984

   => Energetics <=

    Nuclear Repulsion Energy =            743.6032550247307427
    One-Electron Energy =               -2626.1395596341676537
    Two-Electron Energy =                1044.7801973920770706
    Total Energy =                       -837.7561072173598404
  Basis Set: (AUG-CC-PVTZ AUX)
    Blend: AUG-CC-PVTZ-RI
    Molecular point group: c1

    Geometry (in Angstrom), charge = 0, multiplicity = 1:

       Center              X                  Y                   Z               Mass
    ------------   -----------------  -----------------  -----------------  -----------------
         S           -0.738131242027    -0.000074024420    -0.361076274544    31.972071174400
         O           -1.004403342027     0.912666675580    -1.398551374544    15.994914619570
         O           -0.960340342027    -1.515428324420    -0.596182374544    15.994914619570
         N            0.865145657973     0.064519675580     0.070787625456    14.003074004430
         C            1.318928757973     1.447289475580     0.254383225456    12.000000000000
         C            1.429407657973    -1.012103324420     0.905498625456    12.000000000000
         C           -1.691279342027     0.382797675580     1.078284625456    12.000000000000
         C            2.815400657973     1.534662675580    -0.241420374544    12.000000000000
         C            2.208766657973    -2.018521324420     0.075868625456    12.000000000000
         C           -3.182582342027     0.269088675580     0.790978625456    12.000000000000
         H            0.750494657973     2.104647675580    -0.287738374544     1.007825032230
         H            1.341536657973     1.696758675580     1.336474625456     1.007825032230
         H            2.069990657973    -0.538437324420     1.657368625456     1.007825032230
         H            0.630275657973    -1.529109324420     1.447102625456     1.007825032230
         H           -1.383840342027    -0.276434324420     1.894519625456     1.007825032230
         H           -1.402961342027     1.408563675580     1.324968625456     1.007825032230
         H            3.492444657973     0.865309675580     0.294896625456     1.007825032230
         H            2.845936657973     1.284953675580    -1.303221374544     1.007825032230
         H            3.179579657973     2.557567675580    -0.107365374544     1.007825032230
         H            1.538411657973    -2.485835324420    -0.646751374544     1.007825032230
         H            3.021390657973    -1.528801324420    -0.464415374544     1.007825032230
         H            2.633831657973    -2.795231324420     0.719580625456     1.007825032230
         H           -3.753789342027     0.562013675580     1.675278625456     1.007825032230
         H           -3.458138342027     0.922037675580    -0.037950374544     1.007825032230
         H           -3.441175342027    -0.758213324420     0.529983625456     1.007825032230

  Basis Set: AUG-CC-PVTZ
    Blend: AUG-CC-PVTZ
  Basis Set: (AUG-CC-PVTZ AUX)
    Blend: AUG-CC-PVTZ-JKFIT
	 Reference Energy          =    -837.7561072173598404 [Eh]
	 Singles Energy            =      -0.0000000000000000 [Eh]
	 Same-Spin Energy          =      -0.5168957842621253 [Eh]
	 Opposite-Spin Energy      =      -1.6704282351057027 [Eh]
	 Correlation Energy        =      -2.1873240193678281 [Eh]
	 Total Energy              =    -839.9434312367276334 [Eh]

	 ================> DF-SCS-MP2 Energies <==================
	-----------------------------------------------------------
	 SCS Same-Spin Scale       =       0.3333333333333333 [-]
	 SCS Opposite-Spin Scale   =       1.2000000000000000 [-]
	 SCS Same-Spin Energy      =      -0.1722985947540418 [Eh]
	 SCS Opposite-Spin Energy  =      -2.0045138821268433 [Eh]
	 SCS Correlation Energy    =      -2.1768124768808850 [Eh]
	 SCS Total Energy          =    -839.9329196942406952 [Eh]
	-----------------------------------------------------------

  Dipole Moment: [D]
     X:     1.5047      Y:     2.1370      Z:     4.3261     Total:     5.0543

*** Psi4 exiting successfully. Buy a developer a beer!
