                               Psi4 1.3.2 release

  ==> Input File <==

--------------------------------------------------------------------------
#psi4
#
memory 32 gb

molecule  {
0 1
  S       -0.7380000    -0.0680220    -0.3640970
  O       -1.0107130     0.9314480    -1.3993950
  O       -0.9666500    -1.4966470    -0.5970260
  N        0.8666137     0.0746000     0.0433944
  C        1.3822580     1.4387740     0.2709440
  C        1.4230980    -0.9933220     0.9046550
  C       -1.7239020     0.3961441     1.0613556
  C        2.8090910     1.5534440    -0.2422640
  C        2.2024570    -1.9997400     0.0750250
  C       -3.1888920     0.2878700     0.7901350
  H        0.7441850     2.1234290    -0.2885820
  H        1.3352270     1.7155400     1.3356310
  H        2.0636810    -0.5196560     1.6565250
  H        0.6239660    -1.5103280     1.4462590
  H       -1.3901500    -0.2576530     1.8936760
  H       -1.4092710     1.4273450     1.3241250
  H        3.4861350     0.8840910     0.2940530
  H        2.8396270     1.3037350    -1.3040650
  H        3.1732700     2.5763490    -0.1082090
  H        1.5321020    -2.4670540    -0.6475950
  H        3.0150810    -1.5100200    -0.4652590
  H        2.6275220    -2.7764500     0.7187370
  H       -3.7600990     0.5807950     1.6744350
  H       -3.4644480     0.9408190    -0.0387940
  H       -3.4474850    -0.7394320     0.5291400
units angstrom
no_reorient  #important for SAPT in psi4, default
symmetry c1  #important for SAPT in psi4, default
}

set PROPERTIES_ORIGIN ["COM"]
properties('MP2/aug-cc-pvtz', properties = ['dipole'])
--------------------------------------------------------------------------

    Molecular point group: c1
  Charge       = 0
  Multiplicity = 1
  Basis Set: AUG-CC-PVTZ
    Blend: AUG-CC-PVTZ
  Basis Set: (AUG-CC-PVTZ AUX)
    Blend: AUG-CC-PVTZ-JKFIT

    Orbital Energies [Eh]
    ---------------------

    Doubly Occupied:

       1A    -92.189745     2A    -20.537255     3A    -20.536956
       4A    -15.596455     5A    -11.277703     6A    -11.277402
       7A    -11.276666     8A    -11.235639     9A    -11.228188
      10A    -11.216184    11A     -9.155622    12A     -6.840676
      13A     -6.839925    14A     -6.839894    15A     -1.443158
      16A     -1.325921    17A     -1.247391    18A     -1.082294
      19A     -1.046272    20A     -1.010858    21A     -0.915935
      22A     -0.868508    23A     -0.856645    24A     -0.773935
      25A     -0.720404    26A     -0.669923    27A     -0.666117
      28A     -0.651136    29A     -0.641410    30A     -0.611376
      31A     -0.599665    32A     -0.579434    33A     -0.574964
      34A     -0.550340    35A     -0.545397    36A     -0.541396
      37A     -0.524374    38A     -0.518528    39A     -0.511130
      40A     -0.496562    41A     -0.487601    42A     -0.484253
      43A     -0.458722    44A     -0.445153    45A     -0.399708

  @DF-RHF Final Energy:  -837.77481661190950

   => Energetics <=

    Nuclear Repulsion Energy =            743.4392536245491101
    One-Electron Energy =               -2625.8344999286141501
    Two-Electron Energy =                1044.6204296921555397
    Total Energy =                       -837.7748166119095004
  Basis Set: (AUG-CC-PVTZ AUX)
    Blend: AUG-CC-PVTZ-RI
    Molecular point group: c1

    Geometry (in Angstrom), charge = 0, multiplicity = 1:

       Center              X                  Y                   Z               Mass
    ------------   -----------------  -----------------  -----------------  -----------------
         S           -0.736746917865    -0.066888799933    -0.360675543479    31.972071174400
         O           -1.009459917865     0.932581200067    -1.395973543479    15.994914619570
         O           -0.965396917865    -1.495513799933    -0.593604543479    15.994914619570
         N            0.867866782135     0.075733200067     0.046815856521    14.003074004430
         C            1.383511082135     1.439907200067     0.274365456521    12.000000000000
         C            1.424351082135    -0.992188799933     0.908076456521    12.000000000000
         C           -1.722648917865     0.397277300067     1.064777056521    12.000000000000
         C            2.810344082135     1.554577200067    -0.238842543479    12.000000000000
         C            2.203710082135    -1.998606799933     0.078446456521    12.000000000000
         C           -3.187638917865     0.289003200067     0.793556456521    12.000000000000
         H            0.745438082135     2.124562200067    -0.285160543479     1.007825032230
         H            1.336480082135     1.716673200067     1.339052456521     1.007825032230
         H            2.064934082135    -0.518522799933     1.659946456521     1.007825032230
         H            0.625219082135    -1.509194799933     1.449680456521     1.007825032230
         H           -1.388896917865    -0.256519799933     1.897097456521     1.007825032230
         H           -1.408017917865     1.428478200067     1.327546456521     1.007825032230
         H            3.487388082135     0.885224200067     0.297474456521     1.007825032230
         H            2.840880082135     1.304868200067    -1.300643543479     1.007825032230
         H            3.174523082135     2.577482200067    -0.104787543479     1.007825032230
         H            1.533355082135    -2.465920799933    -0.644173543479     1.007825032230
         H            3.016334082135    -1.508886799933    -0.461837543479     1.007825032230
         H            2.628775082135    -2.775316799933     0.722158456521     1.007825032230
         H           -3.758845917865     0.581928200067     1.677856456521     1.007825032230
         H           -3.463194917865     0.941952200067    -0.035372543479     1.007825032230
         H           -3.446231917865    -0.738298799933     0.532561456521     1.007825032230

  Basis Set: AUG-CC-PVTZ
    Blend: AUG-CC-PVTZ
  Basis Set: (AUG-CC-PVTZ AUX)
    Blend: AUG-CC-PVTZ-JKFIT
	 Reference Energy          =    -837.7748166119095004 [Eh]
	 Singles Energy            =      -0.0000000000000000 [Eh]
	 Same-Spin Energy          =      -0.5169971285920303 [Eh]
	 Opposite-Spin Energy      =      -1.6701221741289167 [Eh]
	 Correlation Energy        =      -2.1871193027209470 [Eh]
	 Total Energy              =    -839.9619359146304305 [Eh]

	 ================> DF-SCS-MP2 Energies <==================
	-----------------------------------------------------------
	 SCS Same-Spin Scale       =       0.3333333333333333 [-]
	 SCS Opposite-Spin Scale   =       1.2000000000000000 [-]
	 SCS Same-Spin Energy      =      -0.1723323761973434 [Eh]
	 SCS Opposite-Spin Energy  =      -2.0041466089547000 [Eh]
	 SCS Correlation Energy    =      -2.1764789851520434 [Eh]
	 SCS Total Energy          =    -839.9512955970615167 [Eh]
	-----------------------------------------------------------

  Dipole Moment: [D]
     X:     1.5998      Y:     1.4670      Z:     4.3844     Total:     4.8923

*** Psi4 exiting successfully. Buy a developer a beer!
