                               Psi4 1.3.2 release

  ==> Input File <==

--------------------------------------------------------------------------
#psi4
#
memory 32 gb

molecule  {
0 1
  S       -0.7308808    -0.0791234    -0.3556565
  O       -1.0107130     0.9314480    -1.3993950
  O       -0.9666500    -1.4966470    -0.5970260
  N        0.8588360     0.0833010     0.0699440
  C        1.3822580     1.4387740     0.2709440
  C        1.4230980    -0.9933220     0.9046550
  C       -1.6975890     0.4015790     1.0774410
  C        2.8090910     1.5534440    -0.2422640
  C        2.2024570    -1.9997400     0.0750250
  C       -3.1888920     0.2878700     0.7901350
  H        0.7441850     2.1234290    -0.2885820
  H        1.3352270     1.7155400     1.3356310
  H        2.0636810    -0.5196560     1.6565250
  H        0.6239660    -1.5103280     1.4462590
  H       -1.3840094    -0.2619922     1.8878028
  H       -1.4092710     1.4273450     1.3241250
  H        3.4861350     0.8840910     0.2940530
  H        2.8396270     1.3037350    -1.3040650
  H        3.1732700     2.5763490    -0.1082090
  H        1.5321020    -2.4670540    -0.6475950
  H        3.0150810    -1.5100200    -0.4652590
  H        2.6275220    -2.7764500     0.7187370
  H       -3.7600990     0.5807950     1.6744350
  H       -3.4644480     0.9408190    -0.0387940
  H       -3.4474850    -0.7394320     0.5291400
units angstrom
no_reorient  #important for SAPT in psi4, default
symmetry c1  #important for SAPT in psi4, default
}

set PROPERTIES_ORIGIN ["COM"]
properties('MP2/aug-cc-pvtz', properties = ['dipole'])
--------------------------------------------------------------------------

    Molecular point group: c1
  Charge       = 0
  Multiplicity = 1
  Basis Set: AUG-CC-PVTZ
    Blend: AUG-CC-PVTZ
  Basis Set: (AUG-CC-PVTZ AUX)
    Blend: AUG-CC-PVTZ-JKFIT

    Orbital Energies [Eh]
    ---------------------

    Doubly Occupied:

       1A    -92.190364     2A    -20.540484     3A    -20.534769
       4A    -15.594853     5A    -11.277203     6A    -11.277171
       7A    -11.275368     8A    -11.236626     9A    -11.228422
      10A    -11.217198    11A     -9.156120    12A     -6.841220
      13A     -6.840474    14A     -6.840330    15A     -1.442596
      16A     -1.323595    17A     -1.251304    18A     -1.077996
      19A     -1.047407    20A     -1.011615    21A     -0.916364
      22A     -0.870917    23A     -0.858757    24A     -0.774133
      25A     -0.720769    26A     -0.670966    27A     -0.667012
      28A     -0.652388    29A     -0.641663    30A     -0.610445
      31A     -0.600604    32A     -0.577815    33A     -0.572183
      34A     -0.549940    35A     -0.544971    36A     -0.541164
      37A     -0.527063    38A     -0.520101    39A     -0.512831
      40A     -0.498030    41A     -0.487991    42A     -0.485196
      43A     -0.458226    44A     -0.445481    45A     -0.397290

  @DF-RHF Final Energy:  -837.77628348779365

   => Energetics <=

    Nuclear Repulsion Energy =            743.6823798222259256
    One-Electron Energy =               -2626.3024948427387244
    Two-Electron Energy =                1044.8438315327193777
    Total Energy =                       -837.7762834877935347
  Basis Set: (AUG-CC-PVTZ AUX)
    Blend: AUG-CC-PVTZ-RI
    Molecular point group: c1

    Geometry (in Angstrom), charge = 0, multiplicity = 1:

       Center              X                  Y                   Z               Mass
    ------------   -----------------  -----------------  -----------------  -----------------
         S           -0.732296982696    -0.076946791244    -0.357255216277    31.972071174400
         O           -1.012129182696     0.933624608756    -1.400993716277    15.994914619570
         O           -0.968066182696    -1.494470391244    -0.598624716277    15.994914619570
         N            0.857419817304     0.085477608756     0.068345283723    14.003074004430
         C            1.380841817304     1.440950608756     0.269345283723    12.000000000000
         C            1.421681817304    -0.991145391244     0.903056283723    12.000000000000
         C           -1.699005182696     0.403755608756     1.075842283723    12.000000000000
         C            2.807674817304     1.555620608756    -0.243862716277    12.000000000000
         C            2.201040817304    -1.997563391244     0.073426283723    12.000000000000
         C           -3.190308182696     0.290046608756     0.788536283723    12.000000000000
         H            0.742768817304     2.125605608756    -0.290180716277     1.007825032230
         H            1.333810817304     1.717716608756     1.334032283723     1.007825032230
         H            2.062264817304    -0.517479391244     1.654926283723     1.007825032230
         H            0.622549817304    -1.508151391244     1.444660283723     1.007825032230
         H           -1.385425582696    -0.259815591244     1.886204083723     1.007825032230
         H           -1.410687182696     1.429521608756     1.322526283723     1.007825032230
         H            3.484718817304     0.886267608756     0.292454283723     1.007825032230
         H            2.838210817304     1.305911608756    -1.305663716277     1.007825032230
         H            3.171853817304     2.578525608756    -0.109807716277     1.007825032230
         H            1.530685817304    -2.464877391244    -0.649193716277     1.007825032230
         H            3.013664817304    -1.507843391244    -0.466857716277     1.007825032230
         H            2.626105817304    -2.774273391244     0.717138283723     1.007825032230
         H           -3.761515182696     0.582971608756     1.672836283723     1.007825032230
         H           -3.465864182696     0.942995608756    -0.040392716277     1.007825032230
         H           -3.448901182696    -0.737255391244     0.527541283723     1.007825032230

  Basis Set: AUG-CC-PVTZ
    Blend: AUG-CC-PVTZ
  Basis Set: (AUG-CC-PVTZ AUX)
    Blend: AUG-CC-PVTZ-JKFIT
	 Reference Energy          =    -837.7762834877936484 [Eh]
	 Singles Energy            =      -0.0000000000000000 [Eh]
	 Same-Spin Energy          =      -0.5168448566237975 [Eh]
	 Opposite-Spin Energy      =      -1.6698021077716678 [Eh]
	 Correlation Energy        =      -2.1866469643954654 [Eh]
	 Total Energy              =    -839.9629304521890845 [Eh]

	 ================> DF-SCS-MP2 Energies <==================
	-----------------------------------------------------------
	 SCS Same-Spin Scale       =       0.3333333333333333 [-]
	 SCS Opposite-Spin Scale   =       1.2000000000000000 [-]
	 SCS Same-Spin Energy      =      -0.1722816188745992 [Eh]
	 SCS Opposite-Spin Energy  =      -2.0037625293260013 [Eh]
	 SCS Correlation Energy    =      -2.1760441482006003 [Eh]
	 SCS Total Energy          =    -839.9523276359942656 [Eh]
	-----------------------------------------------------------

  Dipole Moment: [D]
     X:     1.6818      Y:     1.3468      Z:     4.3866     Total:     4.8871

*** Psi4 exiting successfully. Buy a developer a beer!
