                               Psi4 1.3.2 release

  ==> Input File <==

--------------------------------------------------------------------------
#psi4
#
memory 32 gb

molecule  {
0 1
  S       -0.7380000    -0.0680220    -0.3640970
  O       -1.0107130     0.9314480    -1.3993950
  O       -0.9666500    -1.4966470    -0.5970260
  N        0.8588360     0.0833010     0.0699440
  C        1.3822580     1.4387740     0.2709440
  C        1.4230980    -0.9933220     0.9046550
  C       -1.6975890     0.4015790     1.0774410
  C        2.8090910     1.5534440    -0.2422640
  C        2.2024570    -1.9997400     0.0750250
  C       -3.1888920     0.2878700     0.7901350
  H        0.7441850     2.1234290    -0.2885820
  H        1.3352270     1.7155400     1.3356310
  H        2.0636810    -0.5196560     1.6565250
  H        0.6239660    -1.5103280     1.4462590
  H       -1.3901500    -0.2576530     1.8936760
  H       -1.4092710     1.4273450     1.3241250
  H        3.4861350     0.8840910     0.2940530
  H        2.8396270     1.3037350    -1.3040650
  H        3.1732700     2.5763490    -0.1082090
  H        1.5321020    -2.4670540    -0.6475950
  H        3.0150810    -1.5100200    -0.4652590
  H        2.6275220    -2.7764500     0.7187370
  H       -3.7600990     0.5807950     1.6744350
  H       -3.4644480     0.9408190    -0.0387940
  H       -3.4474850    -0.7394320     0.5291400
units angstrom
no_reorient  #important for SAPT in psi4, default
symmetry c1  #important for SAPT in psi4, default
}

set PROPERTIES_ORIGIN ["COM"]
properties('MP2/aug-cc-pvtz', properties = ['dipole'])
--------------------------------------------------------------------------

    Molecular point group: c1
  Charge       = 0
  Multiplicity = 1
  Basis Set: AUG-CC-PVTZ
    Blend: AUG-CC-PVTZ
  Basis Set: (AUG-CC-PVTZ AUX)
    Blend: AUG-CC-PVTZ-JKFIT

    Orbital Energies [Eh]
    ---------------------

    Doubly Occupied:

       1A    -92.190809     2A    -20.538923     3A    -20.538717
       4A    -15.593502     5A    -11.276445     6A    -11.276099
       7A    -11.275469     8A    -11.236834     9A    -11.227919
      10A    -11.216261    11A     -9.156503    12A     -6.841595
      13A     -6.840849    14A     -6.840761    15A     -1.443957
      16A     -1.327106    17A     -1.249031    18A     -1.078301
      19A     -1.046437    20A     -1.010094    21A     -0.916027
      22A     -0.869976    23A     -0.857363    24A     -0.774311
      25A     -0.720460    26A     -0.671042    27A     -0.667413
      28A     -0.651779    29A     -0.641198    30A     -0.611944
      31A     -0.599972    32A     -0.577430    33A     -0.572271
      34A     -0.549893    35A     -0.544229    36A     -0.540668
      37A     -0.526922    38A     -0.519543    39A     -0.512060
      40A     -0.497821    41A     -0.489201    42A     -0.485905
      43A     -0.460406    44A     -0.446077    45A     -0.395756

  @DF-RHF Final Energy:  -837.77684614223085

   => Energetics <=

    Nuclear Repulsion Energy =            743.5091608046160445
    One-Electron Energy =               -2625.9614601315106484
    Two-Electron Energy =                1044.6754531846638656
    Total Energy =                       -837.7768461422308519
  Basis Set: (AUG-CC-PVTZ AUX)
    Blend: AUG-CC-PVTZ-RI
    Molecular point group: c1

    Geometry (in Angstrom), charge = 0, multiplicity = 1:

       Center              X                  Y                   Z               Mass
    ------------   -----------------  -----------------  -----------------  -----------------
         S           -0.737999894282    -0.068021928623    -0.364096871162    31.972071174400
         O           -1.010712894282     0.931448071377    -1.399394871162    15.994914619570
         O           -0.966649894282    -1.496646928623    -0.597025871162    15.994914619570
         N            0.858836105718     0.083301071377     0.069944128838    14.003074004430
         C            1.382258105718     1.438774071377     0.270944128838    12.000000000000
         C            1.423098105718    -0.993321928623     0.904655128838    12.000000000000
         C           -1.697588894282     0.401579071377     1.077441128838    12.000000000000
         C            2.809091105718     1.553444071377    -0.242263871162    12.000000000000
         C            2.202457105718    -1.999739928623     0.075025128838    12.000000000000
         C           -3.188891894282     0.287870071377     0.790135128838    12.000000000000
         H            0.744185105718     2.123429071377    -0.288581871162     1.007825032230
         H            1.335227105718     1.715540071377     1.335631128838     1.007825032230
         H            2.063681105718    -0.519655928623     1.656525128838     1.007825032230
         H            0.623966105718    -1.510327928623     1.446259128838     1.007825032230
         H           -1.390149894282    -0.257652928623     1.893676128838     1.007825032230
         H           -1.409270894282     1.427345071377     1.324125128838     1.007825032230
         H            3.486135105718     0.884091071377     0.294053128838     1.007825032230
         H            2.839627105718     1.303735071377    -1.304064871162     1.007825032230
         H            3.173270105718     2.576349071377    -0.108208871162     1.007825032230
         H            1.532102105718    -2.467053928623    -0.647594871162     1.007825032230
         H            3.015081105718    -1.510019928623    -0.465258871162     1.007825032230
         H            2.627522105718    -2.776449928623     0.718737128838     1.007825032230
         H           -3.760098894282     0.580795071377     1.674435128838     1.007825032230
         H           -3.464447894282     0.940819071377    -0.038793871162     1.007825032230
         H           -3.447484894282    -0.739431928623     0.529140128838     1.007825032230

  Basis Set: AUG-CC-PVTZ
    Blend: AUG-CC-PVTZ
  Basis Set: (AUG-CC-PVTZ AUX)
    Blend: AUG-CC-PVTZ-JKFIT
	 Reference Energy          =    -837.7768461422308519 [Eh]
	 Singles Energy            =      -0.0000000000000000 [Eh]
	 Same-Spin Energy          =      -0.5167729583162566 [Eh]
	 Opposite-Spin Energy      =      -1.6697259083988345 [Eh]
	 Correlation Energy        =      -2.1864988667150911 [Eh]
	 Total Energy              =    -839.9633450089459075 [Eh]

	 ================> DF-SCS-MP2 Energies <==================
	-----------------------------------------------------------
	 SCS Same-Spin Scale       =       0.3333333333333333 [-]
	 SCS Opposite-Spin Scale   =       1.2000000000000000 [-]
	 SCS Same-Spin Energy      =      -0.1722576527720855 [Eh]
	 SCS Opposite-Spin Energy  =      -2.0036710900786012 [Eh]
	 SCS Correlation Energy    =      -2.1759287428506866 [Eh]
	 SCS Total Energy          =    -839.9527748850815669 [Eh]
	-----------------------------------------------------------

  Dipole Moment: [D]
     X:     1.5909      Y:     1.4415      Z:     4.3129     Total:     4.8177

*** Psi4 exiting successfully. Buy a developer a beer!
