                               Psi4 1.3.2 release

  ==> Input File <==

--------------------------------------------------------------------------
#psi4
#
memory 32 gb

molecule  {
0 1
  S       -0.7380000    -0.0680220    -0.3640970
  O       -1.0574916     0.9668733    -1.3500338
  O       -0.9666500    -1.4966470    -0.5970260
  N        0.8588360     0.0833010     0.0699440
  C        1.3822580     1.4387740     0.2709440
  C        1.4230980    -0.9933220     0.9046550
  C       -1.7297446     0.4753271     1.0289509
  C        2.8090910     1.5534440    -0.2422640
  C        2.2024570    -1.9997400     0.0750250
  C       -3.1888920     0.2878700     0.7901350
  H        0.7441850     2.1234290    -0.2885820
  H        1.3352270     1.7155400     1.3356310
  H        2.0636810    -0.5196560     1.6565250
  H        0.6239660    -1.5103280     1.4462590
  H       -1.3901500    -0.2576530     1.8936760
  H       -1.4092710     1.4273450     1.3241250
  H        3.4861350     0.8840910     0.2940530
  H        2.8396270     1.3037350    -1.3040650
  H        3.1732700     2.5763490    -0.1082090
  H        1.5321020    -2.4670540    -0.6475950
  H        3.0150810    -1.5100200    -0.4652590
  H        2.6275220    -2.7764500     0.7187370
  H       -3.7600990     0.5807950     1.6744350
  H       -3.4644480     0.9408190    -0.0387940
  H       -3.4474850    -0.7394320     0.5291400
units angstrom
no_reorient  #important for SAPT in psi4, default
symmetry c1  #important for SAPT in psi4, default
}

set PROPERTIES_ORIGIN ["COM"]
properties('MP2/aug-cc-pvtz', properties = ['dipole'])
--------------------------------------------------------------------------

    Molecular point group: c1
  Charge       = 0
  Multiplicity = 1
  Basis Set: AUG-CC-PVTZ
    Blend: AUG-CC-PVTZ
  Basis Set: (AUG-CC-PVTZ AUX)
    Blend: AUG-CC-PVTZ-JKFIT

    Orbital Energies [Eh]
    ---------------------

    Doubly Occupied:

       1A    -92.191542     2A    -20.543740     3A    -20.535865
       4A    -15.597291     5A    -11.277674     6A    -11.277203
       7A    -11.274016     8A    -11.232993     9A    -11.229069
      10A    -11.217345    11A     -9.157130    12A     -6.842207
      13A     -6.841592    14A     -6.841298    15A     -1.444740
      16A     -1.329523    17A     -1.251145    18A     -1.079228
      19A     -1.047710    20A     -1.011918    21A     -0.915003
      22A     -0.871177    23A     -0.857553    24A     -0.774223
      25A     -0.722051    26A     -0.673617    27A     -0.664935
      28A     -0.649019    29A     -0.640539    30A     -0.612130
      31A     -0.601267    32A     -0.580112    33A     -0.576686
      34A     -0.552169    35A     -0.547382    36A     -0.544212
      37A     -0.522368    38A     -0.515831    39A     -0.510189
      40A     -0.495711    41A     -0.490337    42A     -0.485318
      43A     -0.461809    44A     -0.441232    45A     -0.397649

  @DF-RHF Final Energy:  -837.76525826019815

   => Energetics <=

    Nuclear Repulsion Energy =            743.6923300093009175
    One-Electron Energy =               -2626.2636866237612594
    Two-Electron Energy =                1044.8060983542623035
    Total Energy =                       -837.7652582601981521
  Basis Set: (AUG-CC-PVTZ AUX)
    Blend: AUG-CC-PVTZ-RI
    Molecular point group: c1

    Geometry (in Angstrom), charge = 0, multiplicity = 1:

       Center              X                  Y                   Z               Mass
    ------------   -----------------  -----------------  -----------------  -----------------
         S           -0.731130068927    -0.076815126986    -0.365354709929    31.972071174400
         O           -1.050621668927     0.958080173014    -1.351291509929    15.994914619570
         O           -0.959780068927    -1.505440126986    -0.598283709929    15.994914619570
         N            0.865705931073     0.074507873014     0.068686290071    14.003074004430
         C            1.389127931073     1.429980873014     0.269686290071    12.000000000000
         C            1.429967931073    -1.002115126986     0.903397290071    12.000000000000
         C           -1.722874668927     0.466533973014     1.027693190071    12.000000000000
         C            2.815960931073     1.544650873014    -0.243521709929    12.000000000000
         C            2.209326931073    -2.008533126986     0.073767290071    12.000000000000
         C           -3.182022068927     0.279076873014     0.788877290071    12.000000000000
         H            0.751054931073     2.114635873014    -0.289839709929     1.007825032230
         H            1.342096931073     1.706746873014     1.334373290071     1.007825032230
         H            2.070550931073    -0.528449126986     1.655267290071     1.007825032230
         H            0.630835931073    -1.519121126986     1.445001290071     1.007825032230
         H           -1.383280068927    -0.266446126986     1.892418290071     1.007825032230
         H           -1.402401068927     1.418551873014     1.322867290071     1.007825032230
         H            3.493004931073     0.875297873014     0.292795290071     1.007825032230
         H            2.846496931073     1.294941873014    -1.305322709929     1.007825032230
         H            3.180139931073     2.567555873014    -0.109466709929     1.007825032230
         H            1.538971931073    -2.475847126986    -0.648852709929     1.007825032230
         H            3.021950931073    -1.518813126986    -0.466516709929     1.007825032230
         H            2.634391931073    -2.785243126986     0.717479290071     1.007825032230
         H           -3.753229068927     0.572001873014     1.673177290071     1.007825032230
         H           -3.457578068927     0.932025873014    -0.040051709929     1.007825032230
         H           -3.440615068927    -0.748225126986     0.527882290071     1.007825032230

  Basis Set: AUG-CC-PVTZ
    Blend: AUG-CC-PVTZ
  Basis Set: (AUG-CC-PVTZ AUX)
    Blend: AUG-CC-PVTZ-JKFIT
	 Reference Energy          =    -837.7652582601981521 [Eh]
	 Singles Energy            =      -0.0000000000000000 [Eh]
	 Same-Spin Energy          =      -0.5174033494860057 [Eh]
	 Opposite-Spin Energy      =      -1.6708513553097974 [Eh]
	 Correlation Energy        =      -2.1882547047958032 [Eh]
	 Total Energy              =    -839.9535129649939336 [Eh]

	 ================> DF-SCS-MP2 Energies <==================
	-----------------------------------------------------------
	 SCS Same-Spin Scale       =       0.3333333333333333 [-]
	 SCS Opposite-Spin Scale   =       1.2000000000000000 [-]
	 SCS Same-Spin Energy      =      -0.1724677831620019 [Eh]
	 SCS Opposite-Spin Energy  =      -2.0050216263717568 [Eh]
	 SCS Correlation Energy    =      -2.1774894095337589 [Eh]
	 SCS Total Energy          =    -839.9427476697319435 [Eh]
	-----------------------------------------------------------

  Dipole Moment: [D]
     X:     1.7850      Y:     1.3512      Z:     4.1684     Total:     4.7315

*** Psi4 exiting successfully. Buy a developer a beer!
