                               Psi4 1.3.2 release

  ==> Input File <==

--------------------------------------------------------------------------
#psi4
#
memory 32 gb

molecule  {
0 1
  S       -0.7380000    -0.0680220    -0.3640970
  O       -1.0107130     0.9314480    -1.3993950
  O       -0.9666500    -1.4966470    -0.5970260
  N        0.8588360     0.0833010     0.0699440
  C        1.3822580     1.4387740     0.2709440
  C        1.4230980    -0.9933220     0.9046550
  C       -1.8045511     0.4539238     1.2381243
  C        2.8090910     1.5534440    -0.2422640
  C        2.2024570    -1.9997400     0.0750250
  C       -3.1888920     0.2878700     0.7901350
  H        0.7441850     2.1234290    -0.2885820
  H        1.3352270     1.7155400     1.3356310
  H        2.0636810    -0.5196560     1.6565250
  H        0.6239660    -1.5103280     1.4462590
  H       -1.3901500    -0.2576530     1.8936760
  H       -1.4092710     1.4273450     1.3241250
  H        3.4861350     0.8840910     0.2940530
  H        2.8396270     1.3037350    -1.3040650
  H        3.1732700     2.5763490    -0.1082090
  H        1.5321020    -2.4670540    -0.6475950
  H        3.0150810    -1.5100200    -0.4652590
  H        2.6275220    -2.7764500     0.7187370
  H       -3.7600990     0.5807950     1.6744350
  H       -3.4644480     0.9408190    -0.0387940
  H       -3.4474850    -0.7394320     0.5291400
units angstrom
no_reorient  #important for SAPT in psi4, default
symmetry c1  #important for SAPT in psi4, default
}

set PROPERTIES_ORIGIN ["COM"]
properties('MP2/aug-cc-pvtz', properties = ['dipole'])
--------------------------------------------------------------------------

    Molecular point group: c1
  Charge       = 0
  Multiplicity = 1
  Basis Set: AUG-CC-PVTZ
    Blend: AUG-CC-PVTZ
  Basis Set: (AUG-CC-PVTZ AUX)
    Blend: AUG-CC-PVTZ-JKFIT

    Orbital Energies [Eh]
    ---------------------

    Doubly Occupied:

       1A    -92.179889     2A    -20.536795     3A    -20.536467
       4A    -15.590893     5A    -11.282761     6A    -11.275519
       7A    -11.275253     8A    -11.235440     9A    -11.227163
      10A    -11.215437    11A     -9.145963    12A     -6.830781
      13A     -6.830116    14A     -6.829669    15A     -1.436455
      16A     -1.323035    17A     -1.246071    18A     -1.081721
      19A     -1.045426    20A     -1.009011    21A     -0.903357
      22A     -0.868860    23A     -0.859394    24A     -0.774523
      25A     -0.711671    26A     -0.675246    27A     -0.663239
      28A     -0.657241    29A     -0.638095    30A     -0.612306
      31A     -0.598882    32A     -0.581947    33A     -0.575867
      34A     -0.565568    35A     -0.544852    36A     -0.542399
      37A     -0.533616    38A     -0.519357    39A     -0.511593
      40A     -0.497576    41A     -0.486087    42A     -0.480798
      43A     -0.459303    44A     -0.425302    45A     -0.376266

  @DF-RHF Final Energy:  -837.75213136794332

   => Energetics <=

    Nuclear Repulsion Energy =            739.0267818037700636
    One-Electron Energy =               -2617.1634062667335456
    Two-Electron Energy =                1040.3844930950201615
    Total Energy =                       -837.7521313679433206
  Basis Set: (AUG-CC-PVTZ AUX)
    Blend: AUG-CC-PVTZ-RI
    Molecular point group: c1

    Geometry (in Angstrom), charge = 0, multiplicity = 1:

       Center              X                  Y                   Z               Mass
    ------------   -----------------  -----------------  -----------------  -----------------
         S           -0.730224712982    -0.071826924133    -0.375777099855    31.972071174400
         O           -1.002937712982     0.927643075867    -1.411075099855    15.994914619570
         O           -0.958874712982    -1.500451924133    -0.608706099855    15.994914619570
         N            0.866611287018     0.079496075867     0.058263900145    14.003074004430
         C            1.390033287018     1.434969075867     0.259263900145    12.000000000000
         C            1.430873287018    -0.997126924133     0.892974900145    12.000000000000
         C           -1.796775812982     0.450118875867     1.226444200145    12.000000000000
         C            2.816866287018     1.549639075867    -0.253944099855    12.000000000000
         C            2.210232287018    -2.003544924133     0.063344900145    12.000000000000
         C           -3.181116712982     0.284065075867     0.778454900145    12.000000000000
         H            0.751960287018     2.119624075867    -0.300262099855     1.007825032230
         H            1.343002287018     1.711735075867     1.323950900145     1.007825032230
         H            2.071456287018    -0.523460924133     1.644844900145     1.007825032230
         H            0.631741287018    -1.514132924133     1.434578900145     1.007825032230
         H           -1.382374712982    -0.261457924133     1.881995900145     1.007825032230
         H           -1.401495712982     1.423540075867     1.312444900145     1.007825032230
         H            3.493910287018     0.880286075867     0.282372900145     1.007825032230
         H            2.847402287018     1.299930075867    -1.315745099855     1.007825032230
         H            3.181045287018     2.572544075867    -0.119889099855     1.007825032230
         H            1.539877287018    -2.470858924133    -0.659275099855     1.007825032230
         H            3.022856287018    -1.513824924133    -0.476939099855     1.007825032230
         H            2.635297287018    -2.780254924133     0.707056900145     1.007825032230
         H           -3.752323712982     0.576990075867     1.662754900145     1.007825032230
         H           -3.456672712982     0.937014075867    -0.050474099855     1.007825032230
         H           -3.439709712982    -0.743236924133     0.517459900145     1.007825032230

  Basis Set: AUG-CC-PVTZ
    Blend: AUG-CC-PVTZ
  Basis Set: (AUG-CC-PVTZ AUX)
    Blend: AUG-CC-PVTZ-JKFIT
	 Reference Energy          =    -837.7521313679433206 [Eh]
	 Singles Energy            =      -0.0000000000000000 [Eh]
	 Same-Spin Energy          =      -0.5180090874547371 [Eh]
	 Opposite-Spin Energy      =      -1.6725628174921279 [Eh]
	 Correlation Energy        =      -2.1905719049468648 [Eh]
	 Total Energy              =    -839.9427032728901850 [Eh]

	 ================> DF-SCS-MP2 Energies <==================
	-----------------------------------------------------------
	 SCS Same-Spin Scale       =       0.3333333333333333 [-]
	 SCS Opposite-Spin Scale   =       1.2000000000000000 [-]
	 SCS Same-Spin Energy      =      -0.1726696958182457 [Eh]
	 SCS Opposite-Spin Energy  =      -2.0070753809905533 [Eh]
	 SCS Correlation Energy    =      -2.1797450768087989 [Eh]
	 SCS Total Energy          =    -839.9318764447521062 [Eh]
	-----------------------------------------------------------

  Dipole Moment: [D]
     X:     1.6233      Y:     1.4048      Z:     4.2047     Total:     4.7210

*** Psi4 exiting successfully. Buy a developer a beer!
