                               Psi4 1.3.2 release

  ==> Input File <==

--------------------------------------------------------------------------
#psi4
#
memory 32 gb

molecule  {
0 1
  S       -0.7512656    -0.0707974    -0.3719384
  O       -1.0107130     0.9314480    -1.3993950
  O       -0.9666500    -1.4966470    -0.5970260
  N        0.8588360     0.0833010     0.0699440
  C        1.3822580     1.4387740     0.2709440
  C        1.4230980    -0.9933220     0.9046550
  C       -1.6975890     0.4015790     1.0774410
  C        2.8090910     1.5534440    -0.2422640
  C        2.2024570    -1.9997400     0.0750250
  C       -3.1861430     0.2837833     0.7777908
  H        0.7441850     2.1234290    -0.2885820
  H        1.3352270     1.7155400     1.3356310
  H        2.0636810    -0.5196560     1.6565250
  H        0.6239660    -1.5103280     1.4462590
  H       -1.3901500    -0.2576530     1.8936760
  H       -1.4092710     1.4273450     1.3241250
  H        3.4861350     0.8840910     0.2940530
  H        2.8396270     1.3037350    -1.3040650
  H        3.1732700     2.5763490    -0.1082090
  H        1.5321020    -2.4670540    -0.6475950
  H        3.0150810    -1.5100200    -0.4652590
  H        2.6275220    -2.7764500     0.7187370
  H       -3.7600990     0.5807950     1.6744350
  H       -3.4644480     0.9408190    -0.0387940
  H       -3.4474850    -0.7394320     0.5291400
units angstrom
no_reorient  #important for SAPT in psi4, default
symmetry c1  #important for SAPT in psi4, default
}

set PROPERTIES_ORIGIN ["COM"]
properties('MP2/aug-cc-pvtz', properties = ['dipole'])
--------------------------------------------------------------------------

    Molecular point group: c1
  Charge       = 0
  Multiplicity = 1
  Basis Set: AUG-CC-PVTZ
    Blend: AUG-CC-PVTZ
  Basis Set: (AUG-CC-PVTZ AUX)
    Blend: AUG-CC-PVTZ-JKFIT

    Orbital Energies [Eh]
    ---------------------

    Doubly Occupied:

       1A    -92.190976     2A    -20.540956     3A    -20.540715
       4A    -15.590647     5A    -11.276038     6A    -11.274692
       7A    -11.274337     8A    -11.237547     9A    -11.226699
      10A    -11.215228    11A     -9.156709    12A     -6.841784
      13A     -6.841103    14A     -6.840955    15A     -1.447768
      16A     -1.332373    17A     -1.244574    18A     -1.079201
      19A     -1.044779    20A     -1.007200    21A     -0.915576
      22A     -0.868227    23A     -0.854935    24A     -0.774589
      25A     -0.719890    26A     -0.671934    27A     -0.668110
      28A     -0.651477    29A     -0.639672    30A     -0.614601
      31A     -0.599316    32A     -0.576492    33A     -0.569614
      34A     -0.550180    35A     -0.543667    36A     -0.540726
      37A     -0.529464    38A     -0.519014    39A     -0.511540
      40A     -0.496755    41A     -0.491280    42A     -0.487005
      43A     -0.463558    44A     -0.445939    45A     -0.392367

  @DF-RHF Final Energy:  -837.77666781302491

   => Energetics <=

    Nuclear Repulsion Energy =            743.4008246469809364
    One-Electron Energy =               -2625.7545672795631617
    Two-Electron Energy =                1044.5770748195573105
    Total Energy =                       -837.7766678130249147
  Basis Set: (AUG-CC-PVTZ AUX)
    Blend: AUG-CC-PVTZ-RI
    Molecular point group: c1

    Geometry (in Angstrom), charge = 0, multiplicity = 1:

       Center              X                  Y                   Z               Mass
    ------------   -----------------  -----------------  -----------------  -----------------
         S           -0.748896127069    -0.069962740998    -0.369522287871    31.972071174400
         O           -1.008343527069     0.932282659002    -1.396978887871    15.994914619570
         O           -0.964280527069    -1.495812340998    -0.594609887871    15.994914619570
         N            0.861205472931     0.084135659002     0.072360112129    14.003074004430
         C            1.384627472931     1.439608659002     0.273360112129    12.000000000000
         C            1.425467472931    -0.992487340998     0.907071112129    12.000000000000
         C           -1.695219527069     0.402413659002     1.079857112129    12.000000000000
         C            2.811460472931     1.554278659002    -0.239847887871    12.000000000000
         C            2.204826472931    -1.998905340998     0.077441112129    12.000000000000
         C           -3.183773527069     0.284617959002     0.780206912129    12.000000000000
         H            0.746554472931     2.124263659002    -0.286165887871     1.007825032230
         H            1.337596472931     1.716374659002     1.338047112129     1.007825032230
         H            2.066050472931    -0.518821340998     1.658941112129     1.007825032230
         H            0.626335472931    -1.509493340998     1.448675112129     1.007825032230
         H           -1.387780527069    -0.256818340998     1.896092112129     1.007825032230
         H           -1.406901527069     1.428179659002     1.326541112129     1.007825032230
         H            3.488504472931     0.884925659002     0.296469112129     1.007825032230
         H            2.841996472931     1.304569659002    -1.301648887871     1.007825032230
         H            3.175639472931     2.577183659002    -0.105792887871     1.007825032230
         H            1.534471472931    -2.466219340998    -0.645178887871     1.007825032230
         H            3.017450472931    -1.509185340998    -0.462842887871     1.007825032230
         H            2.629891472931    -2.775615340998     0.721153112129     1.007825032230
         H           -3.757729527069     0.581629659002     1.676851112129     1.007825032230
         H           -3.462078527069     0.941653659002    -0.036377887871     1.007825032230
         H           -3.445115527069    -0.738597340998     0.531556112129     1.007825032230

  Basis Set: AUG-CC-PVTZ
    Blend: AUG-CC-PVTZ
  Basis Set: (AUG-CC-PVTZ AUX)
    Blend: AUG-CC-PVTZ-JKFIT
	 Reference Energy          =    -837.7766678130249147 [Eh]
	 Singles Energy            =      -0.0000000000000000 [Eh]
	 Same-Spin Energy          =      -0.5166825354456976 [Eh]
	 Opposite-Spin Energy      =      -1.6696324296094538 [Eh]
	 Correlation Energy        =      -2.1863149650551517 [Eh]
	 Total Energy              =    -839.9629827780801179 [Eh]

	 ================> DF-SCS-MP2 Energies <==================
	-----------------------------------------------------------
	 SCS Same-Spin Scale       =       0.3333333333333333 [-]
	 SCS Opposite-Spin Scale   =       1.2000000000000000 [-]
	 SCS Same-Spin Energy      =      -0.1722275118152325 [Eh]
	 SCS Opposite-Spin Energy  =      -2.0035589155313445 [Eh]
	 SCS Correlation Energy    =      -2.1757864273465772 [Eh]
	 SCS Total Energy          =    -839.9524542403714804 [Eh]
	-----------------------------------------------------------

  Dipole Moment: [D]
     X:     1.4196      Y:     1.4206      Z:     4.2407     Total:     4.6922

*** Psi4 exiting successfully. Buy a developer a beer!
