                               Psi4 1.3.2 release

  ==> Input File <==

--------------------------------------------------------------------------
#psi4
#
memory 32 gb

molecule  {
0 1
  S       -0.7380000    -0.0680220    -0.3640970
  O       -1.0107130     0.9314480    -1.3993950
  O       -0.9666500    -1.4966470    -0.5970260
  N        0.8588360     0.0833010     0.0699440
  C        1.3743493     1.4431142     0.2618625
  C        1.4153485    -1.0018018     0.8988570
  C       -1.6975890     0.4015790     1.0774410
  C        2.8090910     1.5534440    -0.2422640
  C        2.2024570    -1.9997400     0.0750250
  C       -3.1888920     0.2878700     0.7901350
  H        0.7441850     2.1234290    -0.2885820
  H        1.3352270     1.7155400     1.3356310
  H        2.0636810    -0.5196560     1.6565250
  H        0.6239660    -1.5103280     1.4462590
  H       -1.3901500    -0.2576530     1.8936760
  H       -1.4092710     1.4273450     1.3241250
  H        3.4861350     0.8840910     0.2940530
  H        2.8396270     1.3037350    -1.3040650
  H        3.1732700     2.5763490    -0.1082090
  H        1.5321020    -2.4670540    -0.6475950
  H        3.0150810    -1.5100200    -0.4652590
  H        2.6275220    -2.7764500     0.7187370
  H       -3.7600990     0.5807950     1.6744350
  H       -3.4644480     0.9408190    -0.0387940
  H       -3.4474850    -0.7394320     0.5291400
units angstrom
no_reorient  #important for SAPT in psi4, default
symmetry c1  #important for SAPT in psi4, default
}

set PROPERTIES_ORIGIN ["COM"]
properties('MP2/aug-cc-pvtz', properties = ['dipole'])
--------------------------------------------------------------------------

    Molecular point group: c1
  Charge       = 0
  Multiplicity = 1
  Basis Set: AUG-CC-PVTZ
    Blend: AUG-CC-PVTZ
  Basis Set: (AUG-CC-PVTZ AUX)
    Blend: AUG-CC-PVTZ-JKFIT

    Orbital Energies [Eh]
    ---------------------

    Doubly Occupied:

       1A    -92.190461     2A    -20.538750     3A    -20.538551
       4A    -15.593706     5A    -11.276706     6A    -11.276637
       7A    -11.275458     8A    -11.236827     9A    -11.228037
      10A    -11.216237    11A     -9.156208    12A     -6.841289
      13A     -6.840556    14A     -6.840463    15A     -1.443930
      16A     -1.327043    17A     -1.248984    18A     -1.078260
      19A     -1.047026    20A     -1.010049    21A     -0.915865
      22A     -0.870832    23A     -0.856564    24A     -0.774293
      25A     -0.721371    26A     -0.670503    27A     -0.667197
      28A     -0.651222    29A     -0.641392    30A     -0.611598
      31A     -0.601073    32A     -0.577135    33A     -0.572144
      34A     -0.549923    35A     -0.544682    36A     -0.541316
      37A     -0.526970    38A     -0.518218    39A     -0.512651
      40A     -0.499762    41A     -0.488736    42A     -0.485727
      43A     -0.460384    44A     -0.445321    45A     -0.395621

  @DF-RHF Final Energy:  -837.77651807663665

   => Energetics <=

    Nuclear Repulsion Energy =            743.6209462145609450
    One-Electron Energy =               -2626.1835713121886329
    Two-Electron Energy =                1044.7861070209910395
    Total Energy =                       -837.7765180766366484
  Basis Set: (AUG-CC-PVTZ AUX)
    Blend: AUG-CC-PVTZ-RI
    Molecular point group: c1

    Geometry (in Angstrom), charge = 0, multiplicity = 1:

       Center              X                  Y                   Z               Mass
    ------------   -----------------  -----------------  -----------------  -----------------
         S           -0.736861684170    -0.067721016987    -0.363015265526    31.972071174400
         O           -1.009574684170     0.931748983013    -1.398313265526    15.994914619570
         O           -0.965511684170    -1.496346016987    -0.595944265526    15.994914619570
         N            0.859974315830     0.083601983013     0.071025734474    14.003074004430
         C            1.375487615830     1.443415183013     0.262944234474    12.000000000000
         C            1.416486815830    -1.001500816987     0.899938734474    12.000000000000
         C           -1.696450684170     0.401879983013     1.078522734474    12.000000000000
         C            2.810229315830     1.553744983013    -0.241182265526    12.000000000000
         C            2.203595315830    -1.999439016987     0.076106734474    12.000000000000
         C           -3.187753684170     0.288170983013     0.791216734474    12.000000000000
         H            0.745323315830     2.123729983013    -0.287500265526     1.007825032230
         H            1.336365315830     1.715840983013     1.336712734474     1.007825032230
         H            2.064819315830    -0.519355016987     1.657606734474     1.007825032230
         H            0.625104315830    -1.510027016987     1.447340734474     1.007825032230
         H           -1.389011684170    -0.257352016987     1.894757734474     1.007825032230
         H           -1.408132684170     1.427645983013     1.325206734474     1.007825032230
         H            3.487273315830     0.884391983013     0.295134734474     1.007825032230
         H            2.840765315830     1.304035983013    -1.302983265526     1.007825032230
         H            3.174408315830     2.576649983013    -0.107127265526     1.007825032230
         H            1.533240315830    -2.466753016987    -0.646513265526     1.007825032230
         H            3.016219315830    -1.509719016987    -0.464177265526     1.007825032230
         H            2.628660315830    -2.776149016987     0.719818734474     1.007825032230
         H           -3.758960684170     0.581095983013     1.675516734474     1.007825032230
         H           -3.463309684170     0.941119983013    -0.037712265526     1.007825032230
         H           -3.446346684170    -0.739131016987     0.530221734474     1.007825032230

  Basis Set: AUG-CC-PVTZ
    Blend: AUG-CC-PVTZ
  Basis Set: (AUG-CC-PVTZ AUX)
    Blend: AUG-CC-PVTZ-JKFIT
	 Reference Energy          =    -837.7765180766366484 [Eh]
	 Singles Energy            =      -0.0000000000000000 [Eh]
	 Same-Spin Energy          =      -0.5167602817146127 [Eh]
	 Opposite-Spin Energy      =      -1.6696898779856419 [Eh]
	 Correlation Energy        =      -2.1864501597002546 [Eh]
	 Total Energy              =    -839.9629682363369056 [Eh]

	 ================> DF-SCS-MP2 Energies <==================
	-----------------------------------------------------------
	 SCS Same-Spin Scale       =       0.3333333333333333 [-]
	 SCS Opposite-Spin Scale   =       1.2000000000000000 [-]
	 SCS Same-Spin Energy      =      -0.1722534272382042 [Eh]
	 SCS Opposite-Spin Energy  =      -2.0036278535827701 [Eh]
	 SCS Correlation Energy    =      -2.1758812808209744 [Eh]
	 SCS Total Energy          =    -839.9523993574575798 [Eh]
	-----------------------------------------------------------

  Dipole Moment: [D]
     X:     1.5931      Y:     1.4303      Z:     4.3027     Total:     4.8060

*** Psi4 exiting successfully. Buy a developer a beer!
