                               Psi4 1.3.2 release

  ==> Input File <==

--------------------------------------------------------------------------
#psi4
#
memory 32 gb

molecule  {
0 1
  S       -0.7380000    -0.0680220    -0.3640970
  O       -1.0107130     0.9314480    -1.3993950
  O       -0.9666500    -1.4966470    -0.5970260
  N        0.8811389     0.0764977     0.0593744
  C        1.3822580     1.4387740     0.2709440
  C        1.4230980    -0.9933220     0.9046550
  C       -1.6975890     0.4015790     1.0774410
  C        2.8082858     1.5279272    -0.2495178
  C        2.2024570    -1.9997400     0.0750250
  C       -3.1888920     0.2878700     0.7901350
  H        0.7441850     2.1234290    -0.2885820
  H        1.3352270     1.7155400     1.3356310
  H        2.0636810    -0.5196560     1.6565250
  H        0.6239660    -1.5103280     1.4462590
  H       -1.3901500    -0.2576530     1.8936760
  H       -1.4092710     1.4273450     1.3241250
  H        3.4861350     0.8840910     0.2940530
  H        2.8396270     1.3037350    -1.3040650
  H        3.1732700     2.5763490    -0.1082090
  H        1.5321020    -2.4670540    -0.6475950
  H        3.0150810    -1.5100200    -0.4652590
  H        2.6275220    -2.7764500     0.7187370
  H       -3.7600990     0.5807950     1.6744350
  H       -3.4644480     0.9408190    -0.0387940
  H       -3.4474850    -0.7394320     0.5291400
units angstrom
no_reorient  #important for SAPT in psi4, default
symmetry c1  #important for SAPT in psi4, default
}

set PROPERTIES_ORIGIN ["COM"]
properties('MP2/aug-cc-pvtz', properties = ['dipole'])
--------------------------------------------------------------------------

    Molecular point group: c1
  Charge       = 0
  Multiplicity = 1
  Basis Set: AUG-CC-PVTZ
    Blend: AUG-CC-PVTZ
  Basis Set: (AUG-CC-PVTZ AUX)
    Blend: AUG-CC-PVTZ-JKFIT

    Orbital Energies [Eh]
    ---------------------

    Doubly Occupied:

       1A    -92.190949     2A    -20.539786     3A    -20.538969
       4A    -15.593772     5A    -11.276978     6A    -11.275983
       7A    -11.274727     8A    -11.237915     9A    -11.227231
      10A    -11.215269    11A     -9.156706    12A     -6.841712
      13A     -6.841009    14A     -6.840958    15A     -1.443406
      16A     -1.327467    17A     -1.248364    18A     -1.079262
      19A     -1.046515    20A     -1.007243    21A     -0.916372
      22A     -0.869361    23A     -0.855410    24A     -0.775840
      25A     -0.720744    26A     -0.670634    27A     -0.667331
      28A     -0.652952    29A     -0.642142    30A     -0.612279
      31A     -0.599982    32A     -0.577202    33A     -0.570377
      34A     -0.549816    35A     -0.544784    36A     -0.538896
      37A     -0.527177    38A     -0.519395    39A     -0.513464
      40A     -0.498914    41A     -0.488937    42A     -0.484317
      43A     -0.460854    44A     -0.445650    45A     -0.395099

  @DF-RHF Final Energy:  -837.77464799419647

   => Energetics <=

    Nuclear Repulsion Energy =            743.3351854769178999
    One-Electron Energy =               -2625.6153723843831358
    Two-Electron Energy =                1044.5055389132685377
    Total Energy =                       -837.7746479941965845
  Basis Set: (AUG-CC-PVTZ AUX)
    Blend: AUG-CC-PVTZ-RI
    Molecular point group: c1

    Geometry (in Angstrom), charge = 0, multiplicity = 1:

       Center              X                  Y                   Z               Mass
    ------------   -----------------  -----------------  -----------------  -----------------
         S           -0.739833202079    -0.065589998659    -0.362673021240    31.972071174400
         O           -1.012546202079     0.933880001341    -1.397971021240    15.994914619570
         O           -0.968483202079    -1.494214998659    -0.595602021240    15.994914619570
         N            0.879305697921     0.078929701341     0.060798378760    14.003074004430
         C            1.380424797921     1.441206001341     0.272367978760    12.000000000000
         C            1.421264797921    -0.990889998659     0.906078978760    12.000000000000
         C           -1.699422202079     0.404011001341     1.078864978760    12.000000000000
         C            2.806452597921     1.530359201341    -0.248093821240    12.000000000000
         C            2.200623797921    -1.997307998659     0.076448978760    12.000000000000
         C           -3.190725202079     0.290302001341     0.791558978760    12.000000000000
         H            0.742351797921     2.125861001341    -0.287158021240     1.007825032230
         H            1.333393797921     1.717972001341     1.337054978760     1.007825032230
         H            2.061847797921    -0.517223998659     1.657948978760     1.007825032230
         H            0.622132797921    -1.507895998659     1.447682978760     1.007825032230
         H           -1.391983202079    -0.255220998659     1.895099978760     1.007825032230
         H           -1.411104202079     1.429777001341     1.325548978760     1.007825032230
         H            3.484301797921     0.886523001341     0.295476978760     1.007825032230
         H            2.837793797921     1.306167001341    -1.302641021240     1.007825032230
         H            3.171436797921     2.578781001341    -0.106785021240     1.007825032230
         H            1.530268797921    -2.464621998659    -0.646171021240     1.007825032230
         H            3.013247797921    -1.507587998659    -0.463835021240     1.007825032230
         H            2.625688797921    -2.774017998659     0.720160978760     1.007825032230
         H           -3.761932202079     0.583227001341     1.675858978760     1.007825032230
         H           -3.466281202079     0.943251001341    -0.037370021240     1.007825032230
         H           -3.449318202079    -0.736999998659     0.530563978760     1.007825032230

  Basis Set: AUG-CC-PVTZ
    Blend: AUG-CC-PVTZ
  Basis Set: (AUG-CC-PVTZ AUX)
    Blend: AUG-CC-PVTZ-JKFIT
	 Reference Energy          =    -837.7746479941964708 [Eh]
	 Singles Energy            =      -0.0000000000000000 [Eh]
	 Same-Spin Energy          =      -0.5170370651868081 [Eh]
	 Opposite-Spin Energy      =      -1.6703304701430670 [Eh]
	 Correlation Energy        =      -2.1873675353298752 [Eh]
	 Total Energy              =    -839.9620155295262975 [Eh]

	 ================> DF-SCS-MP2 Energies <==================
	-----------------------------------------------------------
	 SCS Same-Spin Scale       =       0.3333333333333333 [-]
	 SCS Opposite-Spin Scale   =       1.2000000000000000 [-]
	 SCS Same-Spin Energy      =      -0.1723456883956027 [Eh]
	 SCS Opposite-Spin Energy  =      -2.0043965641716803 [Eh]
	 SCS Correlation Energy    =      -2.1767422525672830 [Eh]
	 SCS Total Energy          =    -839.9513902467637081 [Eh]
	-----------------------------------------------------------

  Dipole Moment: [D]
     X:     1.4684      Y:     1.4549      Z:     4.3265     Total:     4.7950

*** Psi4 exiting successfully. Buy a developer a beer!
