                               Psi4 1.4a3.dev225

  ==> Input File <==

--------------------------------------------------------------------------
#psi4
#
memory 32 gb

molecule  {
0 1
  S        0.7616280     0.0424770    -0.4366460
  O        1.0024240    -1.0592090    -1.3727360
  O        0.9495440     1.4436620    -0.8249950
  N       -0.8076120    -0.0882160     0.0931460
  C       -1.3185710    -1.4233650     0.4283730
  C       -1.3686840     1.0652840     0.8208400
  C        1.8058710    -0.2545270     0.9952940
  C       -2.7505920    -1.6006810    -0.0558370
  C       -2.1814690     1.9714470    -0.0911900
  C        3.3270758    -0.1286207     0.6107420
  H       -0.6761480    -2.1530350    -0.0688350
  H       -1.2569730    -1.5943860     1.5141500
  H       -1.9866060     0.6632120     1.6319710
  H       -0.5646970     1.6429440     1.2905320
  H        1.5186250     0.4781900     1.7554980
  H        1.5601880    -1.2573080     1.3582850
  H       -3.4295210    -0.8918450     0.4253230
  H       -2.7963610    -1.4499180    -1.1363750
  H       -3.1014500    -2.6111540     0.1760480
  H       -1.5338360     2.3728670    -0.8718090
  H       -2.9953600     1.4152720    -0.5615490
  H       -2.6084920     2.8033720     0.4789350
  H        3.8991710    -0.3169240     1.5035790
  H        3.5375790    -0.8611900    -0.1476860
  H        3.4935140     0.8689240     0.2454810
units angstrom
no_reorient  #important for SAPT in psi4, default
symmetry c1  #important for SAPT in psi4, default
}

set PROPERTIES_ORIGIN ["COM"]
properties('MP2/aug-cc-pvtz', properties = ['dipole'])
--------------------------------------------------------------------------

    Molecular point group: c1
  Charge       = 0
  Multiplicity = 1
  Basis Set: AUG-CC-PVTZ
    Blend: AUG-CC-PVTZ
  Basis Set: (AUG-CC-PVTZ AUX)
    Blend: AUG-CC-PVTZ-JKFIT

    Orbital Energies [Eh]
    ---------------------

    Doubly Occupied:

       1A    -92.191004     2A    -20.538723     3A    -20.538512
       4A    -15.592671     5A    -11.276530     6A    -11.276516
       7A    -11.276177     8A    -11.236642     9A    -11.227655
      10A    -11.215952    11A     -9.156426    12A     -6.841539
      13A     -6.840794    14A     -6.840693    15A     -1.442841
      16A     -1.326667    17A     -1.247206    18A     -1.069537
      19A     -1.045313    20A     -1.008582    21A     -0.918500
      22A     -0.869359    23A     -0.858310    24A     -0.772912
      25A     -0.718650    26A     -0.669619    27A     -0.665824
      28A     -0.649694    29A     -0.638876    30A     -0.611857
      31A     -0.599438    32A     -0.578012    33A     -0.573187
      34A     -0.549981    35A     -0.543731    36A     -0.534753
      37A     -0.530253    38A     -0.519559    39A     -0.512333
      40A     -0.497433    41A     -0.489270    42A     -0.485682
      43A     -0.460341    44A     -0.445189    45A     -0.393932

  @DF-RHF Final Energy:  -837.77497737203055

   => Energetics <=

    Nuclear Repulsion Energy =            741.8630325517156052
    One-Electron Energy =               -2622.7226693600237013
    Two-Electron Energy =                1043.0846594362776614
    Total Energy =                       -837.7749773720304347
  Basis Set: (AUG-CC-PVTZ AUX)
    Blend: AUG-CC-PVTZ-RI
    Molecular point group: c1

    Geometry (in Angstrom), charge = 0, multiplicity = 1:

       Center              X                  Y                   Z               Mass
    ------------   -----------------  -----------------  -----------------  -----------------
         S            0.716606654407     0.036852097869    -0.390262879047    31.972071174400
         O            0.957402654407    -1.064833902131    -1.326352879047    15.994914619570
         O            0.904522654407     1.438037097869    -0.778611879047    15.994914619570
         N           -0.852633345593    -0.093840902131     0.139529120953    14.003074004430
         C           -1.363592345593    -1.428989902131     0.474756120953    12.000000000000
         C           -1.413705345593     1.059659097869     0.867223120953    12.000000000000
         C            1.760849654407    -0.260151902131     1.041677120953    12.000000000000
         C           -2.795613345593    -1.606305902131    -0.009453879047    12.000000000000
         C           -2.226490345593     1.965822097869    -0.044806879047    12.000000000000
         C            3.282054454407    -0.134245602131     0.657125120953    12.000000000000
         H           -0.721169345593    -2.158659902131    -0.022451879047     1.007825032230
         H           -1.301994345593    -1.600010902131     1.560533120953     1.007825032230
         H           -2.031627345593     0.657587097869     1.678354120953     1.007825032230
         H           -0.609718345593     1.637319097869     1.336915120953     1.007825032230
         H            1.473603654407     0.472565097869     1.801881120953     1.007825032230
         H            1.515166654407    -1.262932902131     1.404668120953     1.007825032230
         H           -3.474542345593    -0.897469902131     0.471706120953     1.007825032230
         H           -2.841382345593    -1.455542902131    -1.089991879047     1.007825032230
         H           -3.146471345593    -2.616778902131     0.222431120953     1.007825032230
         H           -1.578857345593     2.367242097869    -0.825425879047     1.007825032230
         H           -3.040381345593     1.409647097869    -0.515165879047     1.007825032230
         H           -2.653513345593     2.797747097869     0.525318120953     1.007825032230
         H            3.854149654407    -0.322548902131     1.549962120953     1.007825032230
         H            3.492557654407    -0.866814902131    -0.101302879047     1.007825032230
         H            3.448492654407     0.863299097869     0.291864120953     1.007825032230

  Basis Set: AUG-CC-PVTZ
    Blend: AUG-CC-PVTZ
  Basis Set: (AUG-CC-PVTZ AUX)
    Blend: AUG-CC-PVTZ-JKFIT
	 Reference Energy          =    -837.7749773720305484 [Eh]
	 Singles Energy            =      -0.0000000000000000 [Eh]
	 Same-Spin Energy          =      -0.5163887794328792 [Eh]
	 Opposite-Spin Energy      =      -1.6695787395189186 [Eh]
	 Correlation Energy        =      -2.1859675189517978 [Eh]
	 Total Energy              =    -839.9609448909823186 [Eh]

	 ================> DF-SCS-MP2 Energies <==================
	-----------------------------------------------------------
	 SCS Same-Spin Scale       =       0.3333333333333333 [-]
	 SCS Opposite-Spin Scale   =       1.2000000000000000 [-]
	 SCS Same-Spin Energy      =      -0.1721295931442930 [Eh]
	 SCS Opposite-Spin Energy  =      -2.0034944874227021 [Eh]
	 SCS Correlation Energy    =      -2.1756240805669953 [Eh]
	 SCS Total Energy          =    -839.9506014525975388 [Eh]
	-----------------------------------------------------------

  Dipole Moment: [D]
     X:    -1.3602      Y:    -0.9939      Z:     4.4609     Total:     4.7684

*** Psi4 exiting successfully. Buy a developer a beer!
