                               Psi4 1.3.2 release

  ==> Input File <==

--------------------------------------------------------------------------
#psi4
#
memory 32 gb

molecule  {
0 1
  S       -0.7380000    -0.0680220    -0.3640970
  O       -1.0107130     0.9314480    -1.3993950
  O       -0.9666500    -1.4966470    -0.5970260
  N        0.8495586     0.0880464     0.0625097
  C        1.3822580     1.4387740     0.2709440
  C        1.4230980    -0.9933220     0.9046550
  C       -1.6975890     0.4015790     1.0774410
  C        2.8090910     1.5534440    -0.2422640
  C        2.2024570    -1.9997400     0.0750250
  C       -3.1888920     0.2878700     0.7901350
  H        0.7388906     2.1160687    -0.2914697
  H        1.3352270     1.7155400     1.3356310
  H        2.0636810    -0.5196560     1.6565250
  H        0.6239660    -1.5103280     1.4462590
  H       -1.3901500    -0.2576530     1.8936760
  H       -1.4092710     1.4273450     1.3241250
  H        3.4861350     0.8840910     0.2940530
  H        2.8396270     1.3037350    -1.3040650
  H        3.1732700     2.5763490    -0.1082090
  H        1.5321020    -2.4670540    -0.6475950
  H        3.0150810    -1.5100200    -0.4652590
  H        2.6275220    -2.7764500     0.7187370
  H       -3.7600990     0.5807950     1.6744350
  H       -3.4644480     0.9408190    -0.0387940
  H       -3.4474850    -0.7394320     0.5291400
units angstrom
no_reorient  #important for SAPT in psi4, default
symmetry c1  #important for SAPT in psi4, default
}

set PROPERTIES_ORIGIN ["COM"]
properties('MP2/aug-cc-pvtz', properties = ['dipole'])
--------------------------------------------------------------------------

    Molecular point group: c1
  Charge       = 0
  Multiplicity = 1
  Basis Set: AUG-CC-PVTZ
    Blend: AUG-CC-PVTZ
  Basis Set: (AUG-CC-PVTZ AUX)
    Blend: AUG-CC-PVTZ-JKFIT

    Orbital Energies [Eh]
    ---------------------

    Doubly Occupied:

       1A    -92.190220     2A    -20.538345     3A    -20.537803
       4A    -15.593612     5A    -11.277346     6A    -11.276641
       7A    -11.274932     8A    -11.236441     9A    -11.228290
      10A    -11.216920    11A     -9.155969    12A     -6.841102
      13A     -6.840327    14A     -6.840231    15A     -1.444076
      16A     -1.326597    17A     -1.248598    18A     -1.077896
      19A     -1.046082    20A     -1.011663    21A     -0.915591
      22A     -0.869691    23A     -0.858492    24A     -0.773843
      25A     -0.719974    26A     -0.670998    27A     -0.667457
      28A     -0.651781    29A     -0.640778    30A     -0.611615
      31A     -0.599771    32A     -0.577100    33A     -0.572221
      34A     -0.549748    35A     -0.544802    36A     -0.540545
      37A     -0.526769    38A     -0.519555    39A     -0.512123
      40A     -0.496918    41A     -0.489207    42A     -0.485720
      43A     -0.459875    44A     -0.446402    45A     -0.397160

  @DF-RHF Final Energy:  -837.77702204928573

   => Energetics <=

    Nuclear Repulsion Energy =            743.6985863997847446
    One-Electron Energy =               -2626.3487598675701520
    Two-Electron Energy =                1044.8731514184996740
    Total Energy =                       -837.7770220492857334
  Basis Set: (AUG-CC-PVTZ AUX)
    Blend: AUG-CC-PVTZ-RI
    Molecular point group: c1

    Geometry (in Angstrom), charge = 0, multiplicity = 1:

       Center              X                  Y                   Z               Mass
    ------------   -----------------  -----------------  -----------------  -----------------
         S           -0.737180618644    -0.068379521624    -0.363448628939    31.972071174400
         O           -1.009893618644     0.931090478376    -1.398746628939    15.994914619570
         O           -0.965830618644    -1.497004521624    -0.596377628939    15.994914619570
         N            0.850377981356     0.087688878376     0.063158071061    14.003074004430
         C            1.383077381356     1.438416478376     0.271592371061    12.000000000000
         C            1.423917381356    -0.993679521624     0.905303371061    12.000000000000
         C           -1.696769618644     0.401221478376     1.078089371061    12.000000000000
         C            2.809910381356     1.553086478376    -0.241615628939    12.000000000000
         C            2.203276381356    -2.000097521624     0.075673371061    12.000000000000
         C           -3.188072618644     0.287512478376     0.790783371061    12.000000000000
         H            0.739709981356     2.115711178376    -0.290821328939     1.007825032230
         H            1.336046381356     1.715182478376     1.336279371061     1.007825032230
         H            2.064500381356    -0.520013521624     1.657173371061     1.007825032230
         H            0.624785381356    -1.510685521624     1.446907371061     1.007825032230
         H           -1.389330618644    -0.258010521624     1.894324371061     1.007825032230
         H           -1.408451618644     1.426987478376     1.324773371061     1.007825032230
         H            3.486954381356     0.883733478376     0.294701371061     1.007825032230
         H            2.840446381356     1.303377478376    -1.303416628939     1.007825032230
         H            3.174089381356     2.575991478376    -0.107560628939     1.007825032230
         H            1.532921381356    -2.467411521624    -0.646946628939     1.007825032230
         H            3.015900381356    -1.510377521624    -0.464610628939     1.007825032230
         H            2.628341381356    -2.776807521624     0.719385371061     1.007825032230
         H           -3.759279618644     0.580437478376     1.675083371061     1.007825032230
         H           -3.463628618644     0.940461478376    -0.038145628939     1.007825032230
         H           -3.446665618644    -0.739789521624     0.529788371061     1.007825032230

  Basis Set: AUG-CC-PVTZ
    Blend: AUG-CC-PVTZ
  Basis Set: (AUG-CC-PVTZ AUX)
    Blend: AUG-CC-PVTZ-JKFIT
	 Reference Energy          =    -837.7770220492857334 [Eh]
	 Singles Energy            =      -0.0000000000000000 [Eh]
	 Same-Spin Energy          =      -0.5166792480674054 [Eh]
	 Opposite-Spin Energy      =      -1.6695625524445779 [Eh]
	 Correlation Energy        =      -2.1862418005119832 [Eh]
	 Total Energy              =    -839.9632638497977268 [Eh]

	 ================> DF-SCS-MP2 Energies <==================
	-----------------------------------------------------------
	 SCS Same-Spin Scale       =       0.3333333333333333 [-]
	 SCS Opposite-Spin Scale   =       1.2000000000000000 [-]
	 SCS Same-Spin Energy      =      -0.1722264160224685 [Eh]
	 SCS Opposite-Spin Energy  =      -2.0034750629334934 [Eh]
	 SCS Correlation Energy    =      -2.1757014789559621 [Eh]
	 SCS Total Energy          =    -839.9527235282416768 [Eh]
	-----------------------------------------------------------

  Dipole Moment: [D]
     X:     1.6563      Y:     1.4186      Z:     4.3358     Total:     4.8533

*** Psi4 exiting successfully. Buy a developer a beer!
