                               Psi4 1.4a3.dev225

  ==> Input File <==

--------------------------------------------------------------------------
#psi4
#
memory 32 gb

molecule  {
0 1
  S        0.7616280     0.0424770    -0.4366460
  O        0.9942090    -1.0216240    -1.3408004
  O        0.9495440     1.4436620    -0.8249950
  N       -0.8076120    -0.0882160     0.0931460
  C       -1.3185710    -1.4233650     0.4283730
  C       -1.3686840     1.0652840     0.8208400
  C        1.8058710    -0.2545270     0.9952940
  C       -2.7505920    -1.6006810    -0.0558370
  C       -2.1814690     1.9714470    -0.0911900
  C        3.2787560    -0.1326200     0.6229570
  H       -0.6761480    -2.1530350    -0.0688350
  H       -1.2569730    -1.5943860     1.5141500
  H       -1.9866060     0.6632120     1.6319710
  H       -0.5646970     1.6429440     1.2905320
  H        1.5186250     0.4781900     1.7554980
  H        1.5601880    -1.2573080     1.3582850
  H       -3.4295210    -0.8918450     0.4253230
  H       -2.7963610    -1.4499180    -1.1363750
  H       -3.1014500    -2.6111540     0.1760480
  H       -1.5338360     2.3728670    -0.8718090
  H       -2.9953600     1.4152720    -0.5615490
  H       -2.6084920     2.8033720     0.4789350
  H        3.8991710    -0.3169240     1.5035790
  H        3.5375790    -0.8611900    -0.1476860
  H        3.4935140     0.8689240     0.2454810
units angstrom
no_reorient  #important for SAPT in psi4, default
symmetry c1  #important for SAPT in psi4, default
}

set PROPERTIES_ORIGIN ["COM"]
properties('MP2/aug-cc-pvtz', properties = ['dipole'])
--------------------------------------------------------------------------

    Molecular point group: c1
  Charge       = 0
  Multiplicity = 1
  Basis Set: AUG-CC-PVTZ
    Blend: AUG-CC-PVTZ
  Basis Set: (AUG-CC-PVTZ AUX)
    Blend: AUG-CC-PVTZ-JKFIT

    Orbital Energies [Eh]
    ---------------------

    Doubly Occupied:

       1A    -92.186206     2A    -20.540240     3A    -20.534867
       4A    -15.589972     5A    -11.276343     6A    -11.274549
       7A    -11.272291     8A    -11.235953     9A    -11.227542
      10A    -11.214933    11A     -9.152736    12A     -6.837878
      13A     -6.837408    14A     -6.836904    15A     -1.461213
      16A     -1.337636    17A     -1.246320    18A     -1.075135
      19A     -1.044582    20A     -1.007914    21A     -0.913493
      22A     -0.868596    23A     -0.855949    24A     -0.771819
      25A     -0.720945    26A     -0.674515    27A     -0.668415
      28A     -0.649653    29A     -0.639217    30A     -0.616289
      31A     -0.599817    32A     -0.578202    33A     -0.572244
      34A     -0.549397    35A     -0.543290    36A     -0.539210
      37A     -0.525564    38A     -0.519364    39A     -0.512008
      40A     -0.497880    41A     -0.494554    42A     -0.487299
      43A     -0.464212    44A     -0.444499    45A     -0.392907

  @DF-RHF Final Energy:  -837.77922128972853

   => Energetics <=

    Nuclear Repulsion Energy =            745.3830737429996134
    One-Electron Energy =               -2629.7446666138139335
    Two-Electron Energy =                1046.5823715810856811
    Total Energy =                       -837.7792212897286390
  Basis Set: (AUG-CC-PVTZ AUX)
    Blend: AUG-CC-PVTZ-RI
    Molecular point group: c1

    Geometry (in Angstrom), charge = 0, multiplicity = 1:

       Center              X                  Y                   Z               Mass
    ------------   -----------------  -----------------  -----------------  -----------------
         S            0.720915024284     0.033501180789    -0.394245056401    31.972071174400
         O            0.953496024284    -1.030599819211    -1.298399456401    15.994914619570
         O            0.908831024284     1.434686180789    -0.782594056401    15.994914619570
         N           -0.848324975716    -0.097191819211     0.135546943599    14.003074004430
         C           -1.359283975716    -1.432340819211     0.470773943599    12.000000000000
         C           -1.409396975716     1.056308180789     0.863240943599    12.000000000000
         C            1.765158024284    -0.263502819211     1.037694943599    12.000000000000
         C           -2.791304975716    -1.609656819211    -0.013436056401    12.000000000000
         C           -2.222181975716     1.962471180789    -0.048789056401    12.000000000000
         C            3.238043024284    -0.141595819211     0.665357943599    12.000000000000
         H           -0.716860975716    -2.162010819211    -0.026434056401     1.007825032230
         H           -1.297685975716    -1.603361819211     1.556550943599     1.007825032230
         H           -2.027318975716     0.654236180789     1.674371943599     1.007825032230
         H           -0.605409975716     1.633968180789     1.332932943599     1.007825032230
         H            1.477912024284     0.469214180789     1.797898943599     1.007825032230
         H            1.519475024284    -1.266283819211     1.400685943599     1.007825032230
         H           -3.470233975716    -0.900820819211     0.467723943599     1.007825032230
         H           -2.837073975716    -1.458893819211    -1.093974056401     1.007825032230
         H           -3.142162975716    -2.620129819211     0.218448943599     1.007825032230
         H           -1.574548975716     2.363891180789    -0.829408056401     1.007825032230
         H           -3.036072975716     1.406296180789    -0.519148056401     1.007825032230
         H           -2.649204975716     2.794396180789     0.521335943599     1.007825032230
         H            3.858458024284    -0.325899819211     1.545979943599     1.007825032230
         H            3.496866024284    -0.870165819211    -0.105285056401     1.007825032230
         H            3.452801024284     0.859948180789     0.287881943599     1.007825032230

  Basis Set: AUG-CC-PVTZ
    Blend: AUG-CC-PVTZ
  Basis Set: (AUG-CC-PVTZ AUX)
    Blend: AUG-CC-PVTZ-JKFIT
	 Reference Energy          =    -837.7792212897285253 [Eh]
	 Singles Energy            =      -0.0000000000000000 [Eh]
	 Same-Spin Energy          =      -0.5155811923886917 [Eh]
	 Opposite-Spin Energy      =      -1.6671198651301562 [Eh]
	 Correlation Energy        =      -2.1827010575188481 [Eh]
	 Total Energy              =    -839.9619223472474232 [Eh]

	 ================> DF-SCS-MP2 Energies <==================
	-----------------------------------------------------------
	 SCS Same-Spin Scale       =       0.3333333333333333 [-]
	 SCS Opposite-Spin Scale   =       1.2000000000000000 [-]
	 SCS Same-Spin Energy      =      -0.1718603974628972 [Eh]
	 SCS Opposite-Spin Energy  =      -2.0005438381561875 [Eh]
	 SCS Correlation Energy    =      -2.1724042356190849 [Eh]
	 SCS Total Energy          =    -839.9516255253475947 [Eh]
	-----------------------------------------------------------

  Dipole Moment: [D]
     X:    -1.3259      Y:    -1.1785      Z:     4.2622     Total:     4.6166

*** Psi4 exiting successfully. Buy a developer a beer!
