                               Psi4 1.3.2 release

  ==> Input File <==

--------------------------------------------------------------------------
#psi4
#
memory 32 gb

molecule  {
0 1
  S       -0.7380000    -0.0680220    -0.3640970
  O       -1.0107130     0.9314480    -1.3993950
  O       -0.9666500    -1.4966470    -0.5970260
  N        0.8739026     0.0658556     0.0167207
  C        1.3822580     1.4387740     0.2709440
  C        1.4230980    -0.9933220     0.9046550
  C       -1.7499146     0.3905677     1.0448360
  C        2.8090910     1.5534440    -0.2422640
  C        2.2024570    -1.9997400     0.0750250
  C       -3.1888920     0.2878700     0.7901350
  H        0.7441850     2.1234290    -0.2885820
  H        1.3352270     1.7155400     1.3356310
  H        2.0636810    -0.5196560     1.6565250
  H        0.6239660    -1.5103280     1.4462590
  H       -1.3901500    -0.2576530     1.8936760
  H       -1.4092710     1.4273450     1.3241250
  H        3.4861350     0.8840910     0.2940530
  H        2.8396270     1.3037350    -1.3040650
  H        3.1732700     2.5763490    -0.1082090
  H        1.5321020    -2.4670540    -0.6475950
  H        3.0150810    -1.5100200    -0.4652590
  H        2.6275220    -2.7764500     0.7187370
  H       -3.7600990     0.5807950     1.6744350
  H       -3.4644480     0.9408190    -0.0387940
  H       -3.4474850    -0.7394320     0.5291400
units angstrom
no_reorient  #important for SAPT in psi4, default
symmetry c1  #important for SAPT in psi4, default
}

set PROPERTIES_ORIGIN ["COM"]
properties('MP2/aug-cc-pvtz', properties = ['dipole'])
--------------------------------------------------------------------------

    Molecular point group: c1
  Charge       = 0
  Multiplicity = 1
  Basis Set: AUG-CC-PVTZ
    Blend: AUG-CC-PVTZ
  Basis Set: (AUG-CC-PVTZ AUX)
    Blend: AUG-CC-PVTZ-JKFIT

    Orbital Energies [Eh]
    ---------------------

    Doubly Occupied:

       1A    -92.188692     2A    -20.535563     3A    -20.535169
       4A    -15.599553     5A    -11.280087     6A    -11.278410
       7A    -11.277303     8A    -11.234369     9A    -11.228485
      10A    -11.216149    11A     -9.154754    12A     -6.839776
      13A     -6.839054    14A     -6.838994    15A     -1.442365
      16A     -1.324727    17A     -1.245616    18A     -1.086843
      19A     -1.046081    20A     -1.011573    21A     -0.915801
      22A     -0.867038    23A     -0.856015    24A     -0.773397
      25A     -0.720249    26A     -0.668973    27A     -0.665072
      28A     -0.650572    29A     -0.641634    30A     -0.610942
      31A     -0.599360    32A     -0.585726    33A     -0.574351
      34A     -0.550900    35A     -0.546824    36A     -0.540418
      37A     -0.523446    38A     -0.516418    39A     -0.509510
      40A     -0.495048    41A     -0.485853    42A     -0.482442
      43A     -0.456890    44A     -0.444128    45A     -0.403646

  @DF-RHF Final Energy:  -837.76995859868532

   => Energetics <=

    Nuclear Repulsion Energy =            743.3671459471624985
    One-Electron Energy =               -2625.6977757838121761
    Two-Electron Energy =                1044.5606712379642431
    Total Energy =                       -837.7699585986854345
  Basis Set: (AUG-CC-PVTZ AUX)
    Blend: AUG-CC-PVTZ-RI
    Molecular point group: c1

    Geometry (in Angstrom), charge = 0, multiplicity = 1:

       Center              X                  Y                   Z               Mass
    ------------   -----------------  -----------------  -----------------  -----------------
         S           -0.735474315470    -0.065741704072    -0.357212126612    31.972071174400
         O           -1.008187315470     0.933728295928    -1.392510126612    15.994914619570
         O           -0.964124315470    -1.494366704072    -0.590141126612    15.994914619570
         N            0.876428284530     0.068135895928     0.023605573388    14.003074004430
         C            1.384783684530     1.441054295928     0.277828873388    12.000000000000
         C            1.425623684530    -0.991041704072     0.911539873388    12.000000000000
         C           -1.747388915470     0.392847995928     1.051720873388    12.000000000000
         C            2.811616684530     1.555724295928    -0.235379126612    12.000000000000
         C            2.204982684530    -1.997459704072     0.081909873388    12.000000000000
         C           -3.186366315470     0.290150295928     0.797019873388    12.000000000000
         H            0.746710684530     2.125709295928    -0.281697126612     1.007825032230
         H            1.337752684530     1.717820295928     1.342515873388     1.007825032230
         H            2.066206684530    -0.517375704072     1.663409873388     1.007825032230
         H            0.626491684530    -1.508047704072     1.453143873388     1.007825032230
         H           -1.387624315470    -0.255372704072     1.900560873388     1.007825032230
         H           -1.406745315470     1.429625295928     1.331009873388     1.007825032230
         H            3.488660684530     0.886371295928     0.300937873388     1.007825032230
         H            2.842152684530     1.306015295928    -1.297180126612     1.007825032230
         H            3.175795684530     2.578629295928    -0.101324126612     1.007825032230
         H            1.534627684530    -2.464773704072    -0.640710126612     1.007825032230
         H            3.017606684530    -1.507739704072    -0.458374126612     1.007825032230
         H            2.630047684530    -2.774169704072     0.725621873388     1.007825032230
         H           -3.757573315470     0.583075295928     1.681319873388     1.007825032230
         H           -3.461922315470     0.943099295928    -0.031909126612     1.007825032230
         H           -3.444959315470    -0.737151704072     0.536024873388     1.007825032230

  Basis Set: AUG-CC-PVTZ
    Blend: AUG-CC-PVTZ
  Basis Set: (AUG-CC-PVTZ AUX)
    Blend: AUG-CC-PVTZ-JKFIT
	 Reference Energy          =    -837.7699585986853208 [Eh]
	 Singles Energy            =      -0.0000000000000000 [Eh]
	 Same-Spin Energy          =      -0.5173301914399643 [Eh]
	 Opposite-Spin Energy      =      -1.6707545104107822 [Eh]
	 Correlation Energy        =      -2.1880847018507463 [Eh]
	 Total Energy              =    -839.9580433005360192 [Eh]

	 ================> DF-SCS-MP2 Energies <==================
	-----------------------------------------------------------
	 SCS Same-Spin Scale       =       0.3333333333333333 [-]
	 SCS Opposite-Spin Scale   =       1.2000000000000000 [-]
	 SCS Same-Spin Energy      =      -0.1724433971466547 [Eh]
	 SCS Opposite-Spin Energy  =      -2.0049054124929384 [Eh]
	 SCS Correlation Energy    =      -2.1773488096395930 [Eh]
	 SCS Total Energy          =    -839.9473074083249458 [Eh]
	-----------------------------------------------------------

  Dipole Moment: [D]
     X:     1.6107      Y:     1.4911      Z:     4.4527     Total:     4.9643

*** Psi4 exiting successfully. Buy a developer a beer!
