                               Psi4 1.4a3.dev225

  ==> Input File <==

--------------------------------------------------------------------------
#psi4
#
memory 32 gb

molecule  {
0 1
  S        0.7616280     0.0424770    -0.4366460
  O        1.0024240    -1.0592090    -1.3727360
  O        0.9495440     1.4436620    -0.8249950
  N       -0.8076120    -0.0882160     0.0931460
  C       -1.3185710    -1.4233650     0.4283730
  C       -1.3686840     1.0652840     0.8208400
  C        1.8058710    -0.2545270     0.9952940
  C       -2.7505920    -1.6006810    -0.0558370
  C       -2.1814690     1.9714470    -0.0911900
  C        3.2304362    -0.1366193     0.6351720
  H       -0.6761480    -2.1530350    -0.0688350
  H       -1.2569730    -1.5943860     1.5141500
  H       -1.9866060     0.6632120     1.6319710
  H       -0.5646970     1.6429440     1.2905320
  H        1.5186250     0.4781900     1.7554980
  H        1.5601880    -1.2573080     1.3582850
  H       -3.4295210    -0.8918450     0.4253230
  H       -2.7963610    -1.4499180    -1.1363750
  H       -3.1014500    -2.6111540     0.1760480
  H       -1.5338360     2.3728670    -0.8718090
  H       -2.9953600     1.4152720    -0.5615490
  H       -2.6084920     2.8033720     0.4789350
  H        3.8991710    -0.3169240     1.5035790
  H        3.5375790    -0.8611900    -0.1476860
  H        3.4935140     0.8689240     0.2454810
units angstrom
no_reorient  #important for SAPT in psi4, default
symmetry c1  #important for SAPT in psi4, default
}

set PROPERTIES_ORIGIN ["COM"]
properties('MP2/aug-cc-pvtz', properties = ['dipole'])
--------------------------------------------------------------------------

    Molecular point group: c1
  Charge       = 0
  Multiplicity = 1
  Basis Set: AUG-CC-PVTZ
    Blend: AUG-CC-PVTZ
  Basis Set: (AUG-CC-PVTZ AUX)
    Blend: AUG-CC-PVTZ-JKFIT

    Orbital Energies [Eh]
    ---------------------

    Doubly Occupied:

       1A    -92.191496     2A    -20.539484     3A    -20.539270
       4A    -15.593288     5A    -11.276982     6A    -11.276639
       7A    -11.274134     8A    -11.237869     9A    -11.228002
      10A    -11.216295    11A     -9.157080    12A     -6.842176
      13A     -6.841416    14A     -6.841341    15A     -1.443740
      16A     -1.327347    17A     -1.247791    18A     -1.086035
      19A     -1.045749    20A     -1.010053    21A     -0.912897
      22A     -0.869772    23A     -0.855768    24A     -0.774511
      25A     -0.720215    26A     -0.671945    27A     -0.668189
      28A     -0.651917    29A     -0.640287    30A     -0.611953
      31A     -0.599585    32A     -0.579729    33A     -0.576634
      34A     -0.546421    35A     -0.545638    36A     -0.542230
      37A     -0.521250    38A     -0.516267    39A     -0.510706
      40A     -0.497244    41A     -0.489152    42A     -0.485337
      43A     -0.460683    44A     -0.444852    45A     -0.394811

  @DF-RHF Final Energy:  -837.77349175996187

   => Energetics <=

    Nuclear Repulsion Energy =            743.8061911022479080
    One-Electron Energy =               -2626.5510086365929965
    Two-Electron Energy =                1044.9713257743833310
    Total Energy =                       -837.7734917599618711
  Basis Set: (AUG-CC-PVTZ AUX)
    Blend: AUG-CC-PVTZ-RI
    Molecular point group: c1

    Geometry (in Angstrom), charge = 0, multiplicity = 1:

       Center              X                  Y                   Z               Mass
    ------------   -----------------  -----------------  -----------------  -----------------
         S            0.723631482929     0.037433524048    -0.392038720014    31.972071174400
         O            0.964427482929    -1.064252475952    -1.328128720014    15.994914619570
         O            0.911547482929     1.438618524048    -0.780387720014    15.994914619570
         N           -0.845608517071    -0.093259475952     0.137753279986    14.003074004430
         C           -1.356567517071    -1.428408475952     0.472980279986    12.000000000000
         C           -1.406680517071     1.060240524048     0.865447279986    12.000000000000
         C            1.767874482929    -0.259570475952     1.039901279986    12.000000000000
         C           -2.788588517071    -1.605724475952    -0.011229720014    12.000000000000
         C           -2.219465517071     1.966403524048    -0.046582720014    12.000000000000
         C            3.192439682929    -0.141662775952     0.679779279986    12.000000000000
         H           -0.714144517071    -2.158078475952    -0.024227720014     1.007825032230
         H           -1.294969517071    -1.599429475952     1.558757279986     1.007825032230
         H           -2.024602517071     0.658168524048     1.676578279986     1.007825032230
         H           -0.602693517071     1.637900524048     1.335139279986     1.007825032230
         H            1.480628482929     0.473146524048     1.800105279986     1.007825032230
         H            1.522191482929    -1.262351475952     1.402892279986     1.007825032230
         H           -3.467517517071    -0.896888475952     0.469930279986     1.007825032230
         H           -2.834357517071    -1.454961475952    -1.091767720014     1.007825032230
         H           -3.139446517071    -2.616197475952     0.220655279986     1.007825032230
         H           -1.571832517071     2.367823524048    -0.827201720014     1.007825032230
         H           -3.033356517071     1.410228524048    -0.516941720014     1.007825032230
         H           -2.646488517071     2.798328524048     0.523542279986     1.007825032230
         H            3.861174482929    -0.321967475952     1.548186279986     1.007825032230
         H            3.499582482929    -0.866233475952    -0.103078720014     1.007825032230
         H            3.455517482929     0.863880524048     0.290088279986     1.007825032230

  Basis Set: AUG-CC-PVTZ
    Blend: AUG-CC-PVTZ
  Basis Set: (AUG-CC-PVTZ AUX)
    Blend: AUG-CC-PVTZ-JKFIT
	 Reference Energy          =    -837.7734917599618711 [Eh]
	 Singles Energy            =      -0.0000000000000000 [Eh]
	 Same-Spin Energy          =      -0.5171311109708789 [Eh]
	 Opposite-Spin Energy      =      -1.6702548558980848 [Eh]
	 Correlation Energy        =      -2.1873859668689635 [Eh]
	 Total Energy              =    -839.9608777268308586 [Eh]

	 ================> DF-SCS-MP2 Energies <==================
	-----------------------------------------------------------
	 SCS Same-Spin Scale       =       0.3333333333333333 [-]
	 SCS Opposite-Spin Scale   =       1.2000000000000000 [-]
	 SCS Same-Spin Energy      =      -0.1723770369902930 [Eh]
	 SCS Opposite-Spin Energy  =      -2.0043058270777014 [Eh]
	 SCS Correlation Energy    =      -2.1766828640679945 [Eh]
	 SCS Total Energy          =    -839.9501746240298417 [Eh]
	-----------------------------------------------------------

  Dipole Moment: [D]
     X:    -1.4009      Y:    -0.9903      Z:     4.4421     Total:     4.7619

*** Psi4 exiting successfully. Buy a developer a beer!
