                               Psi4 1.3.2 release

  ==> Input File <==

--------------------------------------------------------------------------
#psi4
#
memory 32 gb

molecule  {
0 1
  S       -0.6963995    -0.1340644    -0.3118299
  O       -1.0107130     0.9314480    -1.3993950
  O       -0.9666500    -1.4966470    -0.5970260
  N        0.8588360     0.0833010     0.0699440
  C        1.3822580     1.4387740     0.2709440
  C        1.4230980    -0.9933220     0.9046550
  C       -1.6975890     0.4015790     1.0774410
  C        2.8090910     1.5534440    -0.2422640
  C        2.2024570    -1.9997400     0.0750250
  C       -3.1888920     0.2878700     0.7901350
  H        0.7441850     2.1234290    -0.2885820
  H        1.3352270     1.7155400     1.3356310
  H        2.0636810    -0.5196560     1.6565250
  H        0.6239660    -1.5103280     1.4462590
  H       -1.3536740    -0.2829238     1.8575202
  H       -1.4092710     1.4273450     1.3241250
  H        3.4861350     0.8840910     0.2940530
  H        2.8396270     1.3037350    -1.3040650
  H        3.1732700     2.5763490    -0.1082090
  H        1.5321020    -2.4670540    -0.6475950
  H        3.0150810    -1.5100200    -0.4652590
  H        2.6275220    -2.7764500     0.7187370
  H       -3.7600990     0.5807950     1.6744350
  H       -3.4644480     0.9408190    -0.0387940
  H       -3.4474850    -0.7394320     0.5291400
units angstrom
no_reorient  #important for SAPT in psi4, default
symmetry c1  #important for SAPT in psi4, default
}

set PROPERTIES_ORIGIN ["COM"]
properties('MP2/aug-cc-pvtz', properties = ['dipole'])
--------------------------------------------------------------------------

    Molecular point group: c1
  Charge       = 0
  Multiplicity = 1
  Basis Set: AUG-CC-PVTZ
    Blend: AUG-CC-PVTZ
  Basis Set: (AUG-CC-PVTZ AUX)
    Blend: AUG-CC-PVTZ-JKFIT

    Orbital Energies [Eh]
    ---------------------

    Doubly Occupied:

       1A    -92.186563     2A    -20.549106     3A    -20.514062
       4A    -15.601180     5A    -11.282648     6A    -11.280733
       7A    -11.275282     8A    -11.235765     9A    -11.230845
      10A    -11.221828    11A     -9.153571    12A     -6.838671
      13A     -6.837908    14A     -6.837454    15A     -1.451303
      16A     -1.300742    17A     -1.254843    18A     -1.076821
      19A     -1.052217    20A     -1.018888    21A     -0.918391
      22A     -0.875639    23A     -0.865556    24A     -0.774199
      25A     -0.723354    26A     -0.674108    27A     -0.669043
      28A     -0.654637    29A     -0.642547    30A     -0.606427
      31A     -0.604119    32A     -0.580630    33A     -0.571240
      34A     -0.551956    35A     -0.548890    36A     -0.542680
      37A     -0.528317    38A     -0.523387    39A     -0.517258
      40A     -0.500723    41A     -0.489018    42A     -0.478060
      43A     -0.440519    44A     -0.432154    45A     -0.403557

  @DF-RHF Final Energy:  -837.76181670391213

   => Energetics <=

    Nuclear Repulsion Energy =            744.6064207230975853
    One-Electron Energy =               -2628.1027954564860920
    Two-Electron Energy =                1045.7345580294766023
    Total Energy =                       -837.7618167039120181
  Basis Set: (AUG-CC-PVTZ AUX)
    Blend: AUG-CC-PVTZ-RI
    Molecular point group: c1

    Geometry (in Angstrom), charge = 0, multiplicity = 1:

       Center              X                  Y                   Z               Mass
    ------------   -----------------  -----------------  -----------------  -----------------
         S           -0.704678992759    -0.121119390177    -0.321731791105    31.972071174400
         O           -1.018992492759     0.944393009823    -1.409296891105    15.994914619570
         O           -0.974929492759    -1.483701990177    -0.606927891105    15.994914619570
         N            0.850556507241     0.096246009823     0.060042108895    14.003074004430
         C            1.373978507241     1.451719009823     0.261042108895    12.000000000000
         C            1.414818507241    -0.980376990177     0.894753108895    12.000000000000
         C           -1.705868492759     0.414524009823     1.067539108895    12.000000000000
         C            2.800811507241     1.566389009823    -0.252165891105    12.000000000000
         C            2.194177507241    -1.986794990177     0.065123108895    12.000000000000
         C           -3.197171492759     0.300815009823     0.780233108895    12.000000000000
         H            0.735905507241     2.136374009823    -0.298483891105     1.007825032230
         H            1.326947507241     1.728485009823     1.325729108895     1.007825032230
         H            2.055401507241    -0.506710990177     1.646623108895     1.007825032230
         H            0.615686507241    -1.497382990177     1.436357108895     1.007825032230
         H           -1.361953492759    -0.269978790177     1.847618308895     1.007825032230
         H           -1.417550492759     1.440290009823     1.314223108895     1.007825032230
         H            3.477855507241     0.897036009823     0.284151108895     1.007825032230
         H            2.831347507241     1.316680009823    -1.313966891105     1.007825032230
         H            3.164990507241     2.589294009823    -0.118110891105     1.007825032230
         H            1.523822507241    -2.454108990177    -0.657496891105     1.007825032230
         H            3.006801507241    -1.497074990177    -0.475160891105     1.007825032230
         H            2.619242507241    -2.763504990177     0.708835108895     1.007825032230
         H           -3.768378492759     0.593740009823     1.664533108895     1.007825032230
         H           -3.472727492759     0.953764009823    -0.048695891105     1.007825032230
         H           -3.455764492759    -0.726486990177     0.519238108895     1.007825032230

  Basis Set: AUG-CC-PVTZ
    Blend: AUG-CC-PVTZ
  Basis Set: (AUG-CC-PVTZ AUX)
    Blend: AUG-CC-PVTZ-JKFIT
	 Reference Energy          =    -837.7618167039121317 [Eh]
	 Singles Energy            =      -0.0000000000000000 [Eh]
	 Same-Spin Energy          =      -0.5171905168060330 [Eh]
	 Opposite-Spin Energy      =      -1.6703788532524424 [Eh]
	 Correlation Energy        =      -2.1875693700584753 [Eh]
	 Total Energy              =    -839.9493860739705724 [Eh]

	 ================> DF-SCS-MP2 Energies <==================
	-----------------------------------------------------------
	 SCS Same-Spin Scale       =       0.3333333333333333 [-]
	 SCS Opposite-Spin Scale   =       1.2000000000000000 [-]
	 SCS Same-Spin Energy      =      -0.1723968389353443 [Eh]
	 SCS Opposite-Spin Energy  =      -2.0044546239029306 [Eh]
	 SCS Correlation Energy    =      -2.1768514628382749 [Eh]
	 SCS Total Energy          =    -839.9386681667504035 [Eh]
	-----------------------------------------------------------

  Dipole Moment: [D]
     X:     2.1262      Y:     0.8728      Z:     4.7774     Total:     5.3015

*** Psi4 exiting successfully. Buy a developer a beer!
