                               Psi4 1.4a3.dev225

  ==> Input File <==

--------------------------------------------------------------------------
#psi4
#
memory 32 gb

molecule  {
0 1
  S        0.7616280     0.0424770    -0.4366460
  O        1.0024240    -1.0592090    -1.3727360
  O        0.9495440     1.4436620    -0.8249950
  N       -0.8076120    -0.0882160     0.0931460
  C       -1.3185710    -1.4233650     0.4283730
  C       -1.3686840     1.0652840     0.8208400
  C        1.8058710    -0.2545270     0.9952940
  C       -2.7505920    -1.6006810    -0.0558370
  C       -2.1814690     1.9714470    -0.0911900
  C        3.2980839    -0.1310203     0.6180710
  H       -0.6761480    -2.1530350    -0.0688350
  H       -1.2569730    -1.5943860     1.5141500
  H       -1.9866060     0.6632120     1.6319710
  H       -0.5646970     1.6429440     1.2905320
  H        1.5186250     0.4781900     1.7554980
  H        1.5601880    -1.2573080     1.3582850
  H       -3.4295210    -0.8918450     0.4253230
  H       -2.7963610    -1.4499180    -1.1363750
  H       -3.1014500    -2.6111540     0.1760480
  H       -1.5338360     2.3728670    -0.8718090
  H       -2.9953600     1.4152720    -0.5615490
  H       -2.6084920     2.8033720     0.4789350
  H        3.8991710    -0.3169240     1.5035790
  H        3.5375790    -0.8611900    -0.1476860
  H        3.4935140     0.8689240     0.2454810
units angstrom
no_reorient  #important for SAPT in psi4, default
symmetry c1  #important for SAPT in psi4, default
}

set PROPERTIES_ORIGIN ["COM"]
properties('MP2/aug-cc-pvtz', properties = ['dipole'])
--------------------------------------------------------------------------

    Molecular point group: c1
  Charge       = 0
  Multiplicity = 1
  Basis Set: AUG-CC-PVTZ
    Blend: AUG-CC-PVTZ
  Basis Set: (AUG-CC-PVTZ AUX)
    Blend: AUG-CC-PVTZ-JKFIT

    Orbital Energies [Eh]
    ---------------------

    Doubly Occupied:

       1A    -92.191169     2A    -20.538958     3A    -20.538745
       4A    -15.592873     5A    -11.276668     6A    -11.276328
       7A    -11.275967     8A    -11.236658     9A    -11.227768
      10A    -11.216063    11A     -9.156637    12A     -6.841745
      13A     -6.840996    14A     -6.840903    15A     -1.443116
      16A     -1.326880    17A     -1.247396    18A     -1.073938
      19A     -1.045456    20A     -1.009039    21A     -0.916771
      22A     -0.869493    23A     -0.857702    24A     -0.773387
      25A     -0.719100    26A     -0.670236    27A     -0.666441
      28A     -0.650261    29A     -0.639219    30A     -0.611776
      31A     -0.599455    32A     -0.577723    33A     -0.571556
      34A     -0.549861    35A     -0.543624    36A     -0.537102
      37A     -0.529599    38A     -0.519516    39A     -0.512369
      40A     -0.497492    41A     -0.489267    42A     -0.485697
      43A     -0.460480    44A     -0.445192    45A     -0.394312

  @DF-RHF Final Energy:  -837.77643152066548

   => Energetics <=

    Nuclear Repulsion Energy =            742.4352120317055324
    One-Electron Energy =               -2623.8534262499128999
    Two-Electron Energy =                1043.6417826975418848
    Total Energy =                       -837.7764315206654828
  Basis Set: (AUG-CC-PVTZ AUX)
    Blend: AUG-CC-PVTZ-RI
    Molecular point group: c1

    Geometry (in Angstrom), charge = 0, multiplicity = 1:

       Center              X                  Y                   Z               Mass
    ------------   -----------------  -----------------  -----------------  -----------------
         S            0.718714104417     0.037026527177    -0.390795631337    31.972071174400
         O            0.959510104417    -1.064659472823    -1.326885631337    15.994914619570
         O            0.906630104417     1.438211527177    -0.779144631337    15.994914619570
         N           -0.850525895583    -0.093666472823     0.138996368663    14.003074004430
         C           -1.361484895583    -1.428815472823     0.474223368663    12.000000000000
         C           -1.411597895583     1.059833527177     0.866690368663    12.000000000000
         C            1.762957104417    -0.259977472823     1.041144368663    12.000000000000
         C           -2.793505895583    -1.606131472823    -0.009986631337    12.000000000000
         C           -2.224382895583     1.965996527177    -0.045339631337    12.000000000000
         C            3.255170004417    -0.136470772823     0.663921368663    12.000000000000
         H           -0.719061895583    -2.158485472823    -0.022984631337     1.007825032230
         H           -1.299886895583    -1.599836472823     1.560000368663     1.007825032230
         H           -2.029519895583     0.657761527177     1.677821368663     1.007825032230
         H           -0.607610895583     1.637493527177     1.336382368663     1.007825032230
         H            1.475711104417     0.472739527177     1.801348368663     1.007825032230
         H            1.517274104417    -1.262758472823     1.404135368663     1.007825032230
         H           -3.472434895583    -0.897295472823     0.471173368663     1.007825032230
         H           -2.839274895583    -1.455368472823    -1.090524631337     1.007825032230
         H           -3.144363895583    -2.616604472823     0.221898368663     1.007825032230
         H           -1.576749895583     2.367416527177    -0.825958631337     1.007825032230
         H           -3.038273895583     1.409821527177    -0.515698631337     1.007825032230
         H           -2.651405895583     2.797921527177     0.524785368663     1.007825032230
         H            3.856257104417    -0.322374472823     1.549429368663     1.007825032230
         H            3.494665104417    -0.866640472823    -0.101835631337     1.007825032230
         H            3.450600104417     0.863473527177     0.291331368663     1.007825032230

  Basis Set: AUG-CC-PVTZ
    Blend: AUG-CC-PVTZ
  Basis Set: (AUG-CC-PVTZ AUX)
    Blend: AUG-CC-PVTZ-JKFIT
	 Reference Energy          =    -837.7764315206654828 [Eh]
	 Singles Energy            =      -0.0000000000000000 [Eh]
	 Same-Spin Energy          =      -0.5165374178203812 [Eh]
	 Opposite-Spin Energy      =      -1.6696529812739866 [Eh]
	 Correlation Energy        =      -2.1861903990943681 [Eh]
	 Total Energy              =    -839.9626219197598402 [Eh]

	 ================> DF-SCS-MP2 Energies <==================
	-----------------------------------------------------------
	 SCS Same-Spin Scale       =       0.3333333333333333 [-]
	 SCS Opposite-Spin Scale   =       1.2000000000000000 [-]
	 SCS Same-Spin Energy      =      -0.1721791392734604 [Eh]
	 SCS Opposite-Spin Energy  =      -2.0035835775287838 [Eh]
	 SCS Correlation Energy    =      -2.1757627168022440 [Eh]
	 SCS Total Energy          =    -839.9521942374677792 [Eh]
	-----------------------------------------------------------

  Dipole Moment: [D]
     X:    -1.3728      Y:    -0.9929      Z:     4.4557     Total:     4.7670

*** Psi4 exiting successfully. Buy a developer a beer!
