                               Psi4 1.3.2 release

  ==> Input File <==

--------------------------------------------------------------------------
#psi4
#
memory 32 gb

molecule  {
0 1
  S       -0.7380000    -0.0680220    -0.3640970
  O       -0.9791040     0.9063029    -1.4307340
  O       -0.9666500    -1.4966470    -0.5970260
  N        0.8588360     0.0833010     0.0699440
  C        1.3822580     1.4387740     0.2709440
  C        1.4230980    -0.9933220     0.9046550
  C       -1.6746850     0.3516859     1.1075804
  C        2.8090910     1.5534440    -0.2422640
  C        2.2024570    -1.9997400     0.0750250
  C       -3.1888920     0.2878700     0.7901350
  H        0.7441850     2.1234290    -0.2885820
  H        1.3352270     1.7155400     1.3356310
  H        2.0636810    -0.5196560     1.6565250
  H        0.6239660    -1.5103280     1.4462590
  H       -1.3901500    -0.2576530     1.8936760
  H       -1.4092710     1.4273450     1.3241250
  H        3.4861350     0.8840910     0.2940530
  H        2.8396270     1.3037350    -1.3040650
  H        3.1732700     2.5763490    -0.1082090
  H        1.5321020    -2.4670540    -0.6475950
  H        3.0150810    -1.5100200    -0.4652590
  H        2.6275220    -2.7764500     0.7187370
  H       -3.7600990     0.5807950     1.6744350
  H       -3.4644480     0.9408190    -0.0387940
  H       -3.4474850    -0.7394320     0.5291400
units angstrom
no_reorient  #important for SAPT in psi4, default
symmetry c1  #important for SAPT in psi4, default
}

set PROPERTIES_ORIGIN ["COM"]
properties('MP2/aug-cc-pvtz', properties = ['dipole'])
--------------------------------------------------------------------------

    Molecular point group: c1
  Charge       = 0
  Multiplicity = 1
  Basis Set: AUG-CC-PVTZ
    Blend: AUG-CC-PVTZ
  Basis Set: (AUG-CC-PVTZ AUX)
    Blend: AUG-CC-PVTZ-JKFIT

    Orbital Energies [Eh]
    ---------------------

    Doubly Occupied:

       1A    -92.190895     2A    -20.541425     3A    -20.535527
       4A    -15.590968     5A    -11.277419     6A    -11.275643
       7A    -11.275278     8A    -11.240075     9A    -11.227163
      10A    -11.215509    11A     -9.156611    12A     -6.841724
      13A     -6.841046    14A     -6.840758    15A     -1.443917
      16A     -1.325881    17A     -1.247668    18A     -1.077928
      19A     -1.045573    20A     -1.008874    21A     -0.917069
      22A     -0.869194    23A     -0.858116    24A     -0.776709
      25A     -0.720593    26A     -0.672230    27A     -0.668839
      28A     -0.651288    29A     -0.640766    30A     -0.611463
      31A     -0.599078    32A     -0.576774    33A     -0.570309
      34A     -0.552354    35A     -0.545084    36A     -0.539283
      37A     -0.526009    38A     -0.518992    39A     -0.511040
      40A     -0.498164    41A     -0.488465    42A     -0.485655
      43A     -0.459728    44A     -0.446811    45A     -0.394143

  @DF-RHF Final Energy:  -837.77215862548746

   => Energetics <=

    Nuclear Repulsion Energy =            743.4406814030387523
    One-Electron Energy =               -2625.8296042381343796
    Two-Electron Energy =                1044.6167642096081636
    Total Energy =                       -837.7721586254874637
  Basis Set: (AUG-CC-PVTZ AUX)
    Blend: AUG-CC-PVTZ-RI
    Molecular point group: c1

    Geometry (in Angstrom), charge = 0, multiplicity = 1:

       Center              X                  Y                   Z               Mass
    ------------   -----------------  -----------------  -----------------  -----------------
         S           -0.742727421221    -0.061958827824    -0.363251282101    31.972071174400
         O           -0.983831421221     0.912366072176    -1.429888282101    15.994914619570
         O           -0.971377421221    -1.490583827824    -0.596180282101    15.994914619570
         N            0.854108578779     0.089364172176     0.070789717899    14.003074004430
         C            1.377530578779     1.444837172176     0.271789717899    12.000000000000
         C            1.418370578779    -0.987258827824     0.905500717899    12.000000000000
         C           -1.679412421221     0.357749072176     1.108426117899    12.000000000000
         C            2.804363578779     1.559507172176    -0.241418282101    12.000000000000
         C            2.197729578779    -1.993676827824     0.075870717899    12.000000000000
         C           -3.193619421221     0.293933172176     0.790980717899    12.000000000000
         H            0.739457578779     2.129492172176    -0.287736282101     1.007825032230
         H            1.330499578779     1.721603172176     1.336476717899     1.007825032230
         H            2.058953578779    -0.513592827824     1.657370717899     1.007825032230
         H            0.619238578779    -1.504264827824     1.447104717899     1.007825032230
         H           -1.394877421221    -0.251589827824     1.894521717899     1.007825032230
         H           -1.413998421221     1.433408172176     1.324970717899     1.007825032230
         H            3.481407578779     0.890154172176     0.294898717899     1.007825032230
         H            2.834899578779     1.309798172176    -1.303219282101     1.007825032230
         H            3.168542578779     2.582412172176    -0.107363282101     1.007825032230
         H            1.527374578779    -2.460990827824    -0.646749282101     1.007825032230
         H            3.010353578779    -1.503956827824    -0.464413282101     1.007825032230
         H            2.622794578779    -2.770386827824     0.719582717899     1.007825032230
         H           -3.764826421221     0.586858172176     1.675280717899     1.007825032230
         H           -3.469175421221     0.946882172176    -0.037948282101     1.007825032230
         H           -3.452212421221    -0.733368827824     0.529985717899     1.007825032230

  Basis Set: AUG-CC-PVTZ
    Blend: AUG-CC-PVTZ
  Basis Set: (AUG-CC-PVTZ AUX)
    Blend: AUG-CC-PVTZ-JKFIT
	 Reference Energy          =    -837.7721586254874637 [Eh]
	 Singles Energy            =      -0.0000000000000000 [Eh]
	 Same-Spin Energy          =      -0.5166470839739690 [Eh]
	 Opposite-Spin Energy      =      -1.6697425330300857 [Eh]
	 Correlation Energy        =      -2.1863896170040547 [Eh]
	 Total Energy              =    -839.9585482424914744 [Eh]

	 ================> DF-SCS-MP2 Energies <==================
	-----------------------------------------------------------
	 SCS Same-Spin Scale       =       0.3333333333333333 [-]
	 SCS Opposite-Spin Scale   =       1.2000000000000000 [-]
	 SCS Same-Spin Energy      =      -0.1722156946579896 [Eh]
	 SCS Opposite-Spin Energy  =      -2.0036910396361027 [Eh]
	 SCS Correlation Energy    =      -2.1759067342940925 [Eh]
	 SCS Total Energy          =    -839.9480653597815945 [Eh]
	-----------------------------------------------------------

  Dipole Moment: [D]
     X:     1.4566      Y:     1.5086      Z:     4.3727     Total:     4.8496

*** Psi4 exiting successfully. Buy a developer a beer!
