                               Psi4 1.3.2 release

  ==> Input File <==

--------------------------------------------------------------------------
#psi4
#
memory 32 gb

molecule  {
0 1
  S       -0.7646033    -0.0735369    -0.3796694
  O       -1.0107130     0.9314480    -1.3993950
  O       -0.9666500    -1.4966470    -0.5970260
  N        0.8588360     0.0833010     0.0699440
  C        1.3822580     1.4387740     0.2709440
  C        1.4230980    -0.9933220     0.9046550
  C       -1.6975890     0.4015790     1.0774410
  C        2.8090910     1.5534440    -0.2422640
  C        2.2024570    -1.9997400     0.0750250
  C       -3.1832807     0.2797057     0.7654695
  H        0.7441850     2.1234290    -0.2885820
  H        1.3352270     1.7155400     1.3356310
  H        2.0636810    -0.5196560     1.6565250
  H        0.6239660    -1.5103280     1.4462590
  H       -1.3901500    -0.2576530     1.8936760
  H       -1.4092710     1.4273450     1.3241250
  H        3.4861350     0.8840910     0.2940530
  H        2.8396270     1.3037350    -1.3040650
  H        3.1732700     2.5763490    -0.1082090
  H        1.5321020    -2.4670540    -0.6475950
  H        3.0150810    -1.5100200    -0.4652590
  H        2.6275220    -2.7764500     0.7187370
  H       -3.7600990     0.5807950     1.6744350
  H       -3.4644480     0.9408190    -0.0387940
  H       -3.4474850    -0.7394320     0.5291400
units angstrom
no_reorient  #important for SAPT in psi4, default
symmetry c1  #important for SAPT in psi4, default
}

set PROPERTIES_ORIGIN ["COM"]
properties('MP2/aug-cc-pvtz', properties = ['dipole'])
--------------------------------------------------------------------------

    Molecular point group: c1
  Charge       = 0
  Multiplicity = 1
  Basis Set: AUG-CC-PVTZ
    Blend: AUG-CC-PVTZ
  Basis Set: (AUG-CC-PVTZ AUX)
    Blend: AUG-CC-PVTZ-JKFIT

    Orbital Energies [Eh]
    ---------------------

    Doubly Occupied:

       1A    -92.191132     2A    -20.543003     3A    -20.542727
       4A    -15.587743     5A    -11.276670     6A    -11.272945
       7A    -11.272581     8A    -11.238331     9A    -11.225480
      10A    -11.214197    11A     -9.156934    12A     -6.841992
      13A     -6.841374    14A     -6.841160    15A     -1.451657
      16A     -1.337575    17A     -1.240118    18A     -1.080177
      19A     -1.043132    20A     -1.004331    21A     -0.915196
      22A     -0.866493    23A     -0.852542    24A     -0.774953
      25A     -0.719266    26A     -0.673298    27A     -0.668897
      28A     -0.650938    29A     -0.638179    30A     -0.617221
      31A     -0.598604    32A     -0.575778    33A     -0.567100
      34A     -0.550726    35A     -0.543140    36A     -0.540581
      37A     -0.531952    38A     -0.518239    39A     -0.510929
      40A     -0.495933    41A     -0.493679    42A     -0.487387
      43A     -0.466618    44A     -0.445497    45A     -0.388947

  @DF-RHF Final Energy:  -837.77550973400628

   => Energetics <=

    Nuclear Repulsion Energy =            743.2942254039907084
    One-Electron Energy =               -2625.5487617618105105
    Two-Electron Energy =                1044.4790266238132972
    Total Energy =                       -837.7755097340063912
  Basis Set: (AUG-CC-PVTZ AUX)
    Blend: AUG-CC-PVTZ-RI
    Molecular point group: c1

    Geometry (in Angstrom), charge = 0, multiplicity = 1:

       Center              X                  Y                   Z               Mass
    ------------   -----------------  -----------------  -----------------  -----------------
         S           -0.759858731888    -0.071875267739    -0.374860350755    31.972071174400
         O           -1.005968431888     0.933109632261    -1.394585950755    15.994914619570
         O           -0.961905431888    -1.494985367739    -0.592216950755    15.994914619570
         N            0.863580568112     0.084962632261     0.074753049245    14.003074004430
         C            1.387002568112     1.440435632261     0.275753049245    12.000000000000
         C            1.427842568112    -0.991660367739     0.909464049245    12.000000000000
         C           -1.692844431888     0.403240632261     1.082250049245    12.000000000000
         C            2.813835568112     1.555105632261    -0.237454950755    12.000000000000
         C            2.207201568112    -1.998078367739     0.079834049245    12.000000000000
         C           -3.178536131888     0.281367332261     0.770278549245    12.000000000000
         H            0.748929568112     2.125090632261    -0.283772950755     1.007825032230
         H            1.339971568112     1.717201632261     1.340440049245     1.007825032230
         H            2.068425568112    -0.517994367739     1.661334049245     1.007825032230
         H            0.628710568112    -1.508666367739     1.451068049245     1.007825032230
         H           -1.385405431888    -0.255991367739     1.898485049245     1.007825032230
         H           -1.404526431888     1.429006632261     1.328934049245     1.007825032230
         H            3.490879568112     0.885752632261     0.298862049245     1.007825032230
         H            2.844371568112     1.305396632261    -1.299255950755     1.007825032230
         H            3.178014568112     2.578010632261    -0.103399950755     1.007825032230
         H            1.536846568112    -2.465392367739    -0.642785950755     1.007825032230
         H            3.019825568112    -1.508358367739    -0.460449950755     1.007825032230
         H            2.632266568112    -2.774788367739     0.723546049245     1.007825032230
         H           -3.755354431888     0.582456632261     1.679244049245     1.007825032230
         H           -3.459703431888     0.942480632261    -0.033984950755     1.007825032230
         H           -3.442740431888    -0.737770367739     0.533949049245     1.007825032230

  Basis Set: AUG-CC-PVTZ
    Blend: AUG-CC-PVTZ
  Basis Set: (AUG-CC-PVTZ AUX)
    Blend: AUG-CC-PVTZ-JKFIT
	 Reference Energy          =    -837.7755097340062775 [Eh]
	 Singles Energy            =      -0.0000000000000000 [Eh]
	 Same-Spin Energy          =      -0.5166232573069603 [Eh]
	 Opposite-Spin Energy      =      -1.6696067717568694 [Eh]
	 Correlation Energy        =      -2.1862300290638297 [Eh]
	 Total Energy              =    -839.9617397630701134 [Eh]

	 ================> DF-SCS-MP2 Energies <==================
	-----------------------------------------------------------
	 SCS Same-Spin Scale       =       0.3333333333333333 [-]
	 SCS Opposite-Spin Scale   =       1.2000000000000000 [-]
	 SCS Same-Spin Energy      =      -0.1722077524356534 [Eh]
	 SCS Opposite-Spin Energy  =      -2.0035281261082432 [Eh]
	 SCS Correlation Energy    =      -2.1757358785438967 [Eh]
	 SCS Total Energy          =    -839.9512456125502240 [Eh]
	-----------------------------------------------------------

  Dipole Moment: [D]
     X:     1.2481      Y:     1.3997      Z:     4.1688     Total:     4.5712

*** Psi4 exiting successfully. Buy a developer a beer!
