                               Psi4 1.3.2 release

  ==> Input File <==

--------------------------------------------------------------------------
#psi4
#
memory 32 gb

molecule  {
0 1
  S       -0.7524572    -0.0457128    -0.3806481
  O       -1.0107130     0.9314480    -1.3993950
  O       -0.9666500    -1.4966470    -0.5970260
  N        0.8588360     0.0833010     0.0699440
  C        1.3822580     1.4387740     0.2709440
  C        1.4230980    -0.9933220     0.9046550
  C       -1.6975890     0.4015790     1.0774410
  C        2.8090910     1.5534440    -0.2422640
  C        2.2024570    -1.9997400     0.0750250
  C       -3.1888920     0.2878700     0.7901350
  H        0.7441850     2.1234290    -0.2885820
  H        1.3352270     1.7155400     1.3356310
  H        2.0636810    -0.5196560     1.6565250
  H        0.6239660    -1.5103280     1.4462590
  H       -1.4025009    -0.2488243     1.9052355
  H       -1.4092710     1.4273450     1.3241250
  H        3.4861350     0.8840910     0.2940530
  H        2.8396270     1.3037350    -1.3040650
  H        3.1732700     2.5763490    -0.1082090
  H        1.5321020    -2.4670540    -0.6475950
  H        3.0150810    -1.5100200    -0.4652590
  H        2.6275220    -2.7764500     0.7187370
  H       -3.7600990     0.5807950     1.6744350
  H       -3.4644480     0.9408190    -0.0387940
  H       -3.4474850    -0.7394320     0.5291400
units angstrom
no_reorient  #important for SAPT in psi4, default
symmetry c1  #important for SAPT in psi4, default
}

set PROPERTIES_ORIGIN ["COM"]
properties('MP2/aug-cc-pvtz', properties = ['dipole'])
--------------------------------------------------------------------------

    Molecular point group: c1
  Charge       = 0
  Multiplicity = 1
  Basis Set: AUG-CC-PVTZ
    Blend: AUG-CC-PVTZ
  Basis Set: (AUG-CC-PVTZ AUX)
    Blend: AUG-CC-PVTZ-JKFIT

    Orbital Energies [Eh]
    ---------------------

    Doubly Occupied:

       1A    -92.191339     2A    -20.547188     3A    -20.535164
       4A    -15.590717     5A    -11.275756     6A    -11.274971
       7A    -11.273887     8A    -11.237286     9A    -11.226894
      10A    -11.214380    11A     -9.157130    12A     -6.842199
      13A     -6.841583    14A     -6.841331    15A     -1.451066
      16A     -1.330746    17A     -1.243968    18A     -1.078983
      19A     -1.044494    20A     -1.007006    21A     -0.915428
      22A     -0.868099    23A     -0.854567    24A     -0.774890
      25A     -0.720107    26A     -0.673073    27A     -0.668136
      28A     -0.650393    29A     -0.640107    30A     -0.615106
      31A     -0.599099    32A     -0.576880    33A     -0.572429
      34A     -0.550141    35A     -0.542829    36A     -0.539540
      37A     -0.526612    38A     -0.518650    39A     -0.510937
      40A     -0.497926    41A     -0.493374    42A     -0.485836
      43A     -0.462797    44A     -0.445243    45A     -0.392500

  @DF-RHF Final Energy:  -837.77537936838883

   => Energetics <=

    Nuclear Repulsion Energy =            743.1781523845852462
    One-Electron Energy =               -2625.3054866384072739
    Two-Electron Energy =                1044.3519548854333152
    Total Energy =                       -837.7753793683887125
  Basis Set: (AUG-CC-PVTZ AUX)
    Blend: AUG-CC-PVTZ-RI
    Molecular point group: c1

    Geometry (in Angstrom), charge = 0, multiplicity = 1:

       Center              X                  Y                   Z               Mass
    ------------   -----------------  -----------------  -----------------  -----------------
         S           -0.749581716183    -0.050087327819    -0.377513032787    31.972071174400
         O           -1.007837516183     0.927073472181    -1.396259932787    15.994914619570
         O           -0.963774516183    -1.501021527819    -0.593890932787    15.994914619570
         N            0.861711483817     0.078926472181     0.073079067213    14.003074004430
         C            1.385133483817     1.434399472181     0.274079067213    12.000000000000
         C            1.425973483817    -0.997696527819     0.907790067213    12.000000000000
         C           -1.694713516183     0.397204472181     1.080576067213    12.000000000000
         C            2.811966483817     1.549069472181    -0.239128932787    12.000000000000
         C            2.205332483817    -2.004114527819     0.078160067213    12.000000000000
         C           -3.186016516183     0.283495472181     0.793270067213    12.000000000000
         H            0.747060483817     2.119054472181    -0.285446932787     1.007825032230
         H            1.338102483817     1.711165472181     1.338766067213     1.007825032230
         H            2.066556483817    -0.524030527819     1.659660067213     1.007825032230
         H            0.626841483817    -1.514702527819     1.449394067213     1.007825032230
         H           -1.399625416183    -0.253198827819     1.908370567213     1.007825032230
         H           -1.406395516183     1.422970472181     1.327260067213     1.007825032230
         H            3.489010483817     0.879716472181     0.297188067213     1.007825032230
         H            2.842502483817     1.299360472181    -1.300929932787     1.007825032230
         H            3.176145483817     2.571974472181    -0.105073932787     1.007825032230
         H            1.534977483817    -2.471428527819    -0.644459932787     1.007825032230
         H            3.017956483817    -1.514394527819    -0.462123932787     1.007825032230
         H            2.630397483817    -2.780824527819     0.721872067213     1.007825032230
         H           -3.757223516183     0.576420472181     1.677570067213     1.007825032230
         H           -3.461572516183     0.936444472181    -0.035658932787     1.007825032230
         H           -3.444609516183    -0.743806527819     0.532275067213     1.007825032230

  Basis Set: AUG-CC-PVTZ
    Blend: AUG-CC-PVTZ
  Basis Set: (AUG-CC-PVTZ AUX)
    Blend: AUG-CC-PVTZ-JKFIT
	 Reference Energy          =    -837.7753793683888262 [Eh]
	 Singles Energy            =      -0.0000000000000000 [Eh]
	 Same-Spin Energy          =      -0.5166221192294271 [Eh]
	 Opposite-Spin Energy      =      -1.6696024065578645 [Eh]
	 Correlation Energy        =      -2.1862245257872917 [Eh]
	 Total Energy              =    -839.9616038941761644 [Eh]

	 ================> DF-SCS-MP2 Energies <==================
	-----------------------------------------------------------
	 SCS Same-Spin Scale       =       0.3333333333333333 [-]
	 SCS Opposite-Spin Scale   =       1.2000000000000000 [-]
	 SCS Same-Spin Energy      =      -0.1722073730764757 [Eh]
	 SCS Opposite-Spin Energy  =      -2.0035228878694373 [Eh]
	 SCS Correlation Energy    =      -2.1757302609459130 [Eh]
	 SCS Total Energy          =    -839.9511096293347236 [Eh]
	-----------------------------------------------------------

  Dipole Moment: [D]
     X:     1.4072      Y:     1.6307      Z:     4.1703     Total:     4.6937

*** Psi4 exiting successfully. Buy a developer a beer!
