                               Psi4 1.3.2 release

  ==> Input File <==

--------------------------------------------------------------------------
#psi4
#
memory 32 gb

molecule  {
0 1
  S       -0.7380000    -0.0680220    -0.3640970
  O       -1.0257630     0.8937904    -1.4305228
  O       -0.9825976    -1.4854672    -0.6443239
  N        0.8588360     0.0833010     0.0699440
  C        1.3822580     1.4387740     0.2709440
  C        1.4230980    -0.9933220     0.9046550
  C       -1.6975890     0.4015790     1.0774410
  C        2.8090910     1.5534440    -0.2422640
  C        2.2024570    -1.9997400     0.0750250
  C       -3.1888920     0.2878700     0.7901350
  H        0.7441850     2.1234290    -0.2885820
  H        1.3352270     1.7155400     1.3356310
  H        2.0636810    -0.5196560     1.6565250
  H        0.6239660    -1.5103280     1.4462590
  H       -1.3901500    -0.2576530     1.8936760
  H       -1.4092710     1.4273450     1.3241250
  H        3.4861350     0.8840910     0.2940530
  H        2.8396270     1.3037350    -1.3040650
  H        3.1732700     2.5763490    -0.1082090
  H        1.5321020    -2.4670540    -0.6475950
  H        3.0150810    -1.5100200    -0.4652590
  H        2.6275220    -2.7764500     0.7187370
  H       -3.7600990     0.5807950     1.6744350
  H       -3.4644480     0.9408190    -0.0387940
  H       -3.4474850    -0.7394320     0.5291400
units angstrom
no_reorient  #important for SAPT in psi4, default
symmetry c1  #important for SAPT in psi4, default
}

set PROPERTIES_ORIGIN ["COM"]
properties('MP2/aug-cc-pvtz', properties = ['dipole'])
--------------------------------------------------------------------------

    Molecular point group: c1
  Charge       = 0
  Multiplicity = 1
  Basis Set: AUG-CC-PVTZ
    Blend: AUG-CC-PVTZ
  Basis Set: (AUG-CC-PVTZ AUX)
    Blend: AUG-CC-PVTZ-JKFIT

    Orbital Energies [Eh]
    ---------------------

    Doubly Occupied:

       1A    -92.189544     2A    -20.535161     3A    -20.534987
       4A    -15.595122     5A    -11.278258     6A    -11.277834
       7A    -11.277729     8A    -11.237428     9A    -11.228938
      10A    -11.217009    11A     -9.155414    12A     -6.840461
      13A     -6.839809    14A     -6.839603    15A     -1.442234
      16A     -1.320654    17A     -1.251250    18A     -1.080133
      19A     -1.047741    20A     -1.011305    21A     -0.917328
      22A     -0.871178    23A     -0.858110    24A     -0.774808
      25A     -0.720012    26A     -0.670947    27A     -0.667117
      28A     -0.652628    29A     -0.642394    30A     -0.609187
      31A     -0.600937    32A     -0.578630    33A     -0.572516
      34A     -0.550623    35A     -0.545056    36A     -0.541545
      37A     -0.527495    38A     -0.520358    39A     -0.513369
      40A     -0.498602    41A     -0.487916    42A     -0.482267
      43A     -0.455600    44A     -0.447215    45A     -0.397064

  @DF-RHF Final Energy:  -837.77686055414870

   => Energetics <=

    Nuclear Repulsion Energy =            742.9192692167249561
    One-Electron Energy =               -2624.7852326548309065
    Two-Electron Energy =                1044.0891028839573664
    Total Energy =                       -837.7768605541486977
  Basis Set: (AUG-CC-PVTZ AUX)
    Blend: AUG-CC-PVTZ-RI
    Molecular point group: c1

    Geometry (in Angstrom), charge = 0, multiplicity = 1:

       Center              X                  Y                   Z               Mass
    ------------   -----------------  -----------------  -----------------  -----------------
         S           -0.734996520719    -0.065456480830    -0.356498164357    31.972071174400
         O           -1.022759520719     0.896355919170    -1.422923964357    15.994914619570
         O           -0.979594120719    -1.482901680830    -0.636725064357    15.994914619570
         N            0.861839479281     0.085866519170     0.077542835643    14.003074004430
         C            1.385261479281     1.441339519170     0.278542835643    12.000000000000
         C            1.426101479281    -0.990756480830     0.912253835643    12.000000000000
         C           -1.694585520719     0.404144519170     1.085039835643    12.000000000000
         C            2.812094479281     1.556009519170    -0.234665164357    12.000000000000
         C            2.205460479281    -1.997174480830     0.082623835643    12.000000000000
         C           -3.185888520719     0.290435519170     0.797733835643    12.000000000000
         H            0.747188479281     2.125994519170    -0.280983164357     1.007825032230
         H            1.338230479281     1.718105519170     1.343229835643     1.007825032230
         H            2.066684479281    -0.517090480830     1.664123835643     1.007825032230
         H            0.626969479281    -1.507762480830     1.453857835643     1.007825032230
         H           -1.387146520719    -0.255087480830     1.901274835643     1.007825032230
         H           -1.406267520719     1.429910519170     1.331723835643     1.007825032230
         H            3.489138479281     0.886656519170     0.301651835643     1.007825032230
         H            2.842630479281     1.306300519170    -1.296466164357     1.007825032230
         H            3.176273479281     2.578914519170    -0.100610164357     1.007825032230
         H            1.535105479281    -2.464488480830    -0.639996164357     1.007825032230
         H            3.018084479281    -1.507454480830    -0.457660164357     1.007825032230
         H            2.630525479281    -2.773884480830     0.726335835643     1.007825032230
         H           -3.757095520719     0.583360519170     1.682033835643     1.007825032230
         H           -3.461444520719     0.943384519170    -0.031195164357     1.007825032230
         H           -3.444481520719    -0.736866480830     0.536738835643     1.007825032230

  Basis Set: AUG-CC-PVTZ
    Blend: AUG-CC-PVTZ
  Basis Set: (AUG-CC-PVTZ AUX)
    Blend: AUG-CC-PVTZ-JKFIT
	 Reference Energy          =    -837.7768605541486977 [Eh]
	 Singles Energy            =      -0.0000000000000000 [Eh]
	 Same-Spin Energy          =      -0.5164708417128268 [Eh]
	 Opposite-Spin Energy      =      -1.6691667221252033 [Eh]
	 Correlation Energy        =      -2.1856375638380303 [Eh]
	 Total Energy              =    -839.9624981179866836 [Eh]

	 ================> DF-SCS-MP2 Energies <==================
	-----------------------------------------------------------
	 SCS Same-Spin Scale       =       0.3333333333333333 [-]
	 SCS Opposite-Spin Scale   =       1.2000000000000000 [-]
	 SCS Same-Spin Energy      =      -0.1721569472376089 [Eh]
	 SCS Opposite-Spin Energy  =      -2.0030000665502441 [Eh]
	 SCS Correlation Energy    =      -2.1751570137878531 [Eh]
	 SCS Total Energy          =    -839.9520175679365366 [Eh]
	-----------------------------------------------------------

  Dipole Moment: [D]
     X:     1.6764      Y:     1.5070      Z:     4.5108     Total:     5.0427

*** Psi4 exiting successfully. Buy a developer a beer!
