                               Psi4 1.4a3.dev225

  ==> Input File <==

--------------------------------------------------------------------------
#psi4
#
memory 32 gb

molecule  {
0 1
  S        0.7616280     0.0424770    -0.4366460
  O        1.0024240    -1.0592090    -1.3727360
  O        0.9495440     1.4436620    -0.8249950
  N       -0.8265025    -0.0897893     0.0995236
  C       -1.3185710    -1.4233650     0.4283730
  C       -1.3686840     1.0652840     0.8208400
  C        1.8058710    -0.2545270     0.9952940
  C       -2.7505920    -1.6006810    -0.0558370
  C       -2.1814690     1.9714470    -0.0911900
  C        3.2787560    -0.1326200     0.6229570
  H       -0.6761480    -2.1530350    -0.0688350
  H       -1.2569730    -1.5943860     1.5141500
  H       -1.9866060     0.6632120     1.6319710
  H       -0.5646970     1.6429440     1.2905320
  H        1.5186250     0.4781900     1.7554980
  H        1.5601880    -1.2573080     1.3582850
  H       -3.4295210    -0.8918450     0.4253230
  H       -2.7963610    -1.4499180    -1.1363750
  H       -3.1014500    -2.6111540     0.1760480
  H       -1.5338360     2.3728670    -0.8718090
  H       -2.9953600     1.4152720    -0.5615490
  H       -2.6084920     2.8033720     0.4789350
  H        3.8991710    -0.3169240     1.5035790
  H        3.5375790    -0.8611900    -0.1476860
  H        3.4935140     0.8689240     0.2454810
units angstrom
no_reorient  #important for SAPT in psi4, default
symmetry c1  #important for SAPT in psi4, default
}

set PROPERTIES_ORIGIN ["COM"]
properties('MP2/aug-cc-pvtz', properties = ['dipole'])
--------------------------------------------------------------------------

    Molecular point group: c1
  Charge       = 0
  Multiplicity = 1
  Basis Set: AUG-CC-PVTZ
    Blend: AUG-CC-PVTZ
  Basis Set: (AUG-CC-PVTZ AUX)
    Blend: AUG-CC-PVTZ-JKFIT

    Orbital Energies [Eh]
    ---------------------

    Doubly Occupied:

       1A    -92.192204     2A    -20.540471     3A    -20.540232
       4A    -15.592791     5A    -11.276696     6A    -11.275316
       7A    -11.275078     8A    -11.237703     9A    -11.226810
      10A    -11.215390    11A     -9.157658    12A     -6.842684
      13A     -6.841982    14A     -6.841911    15A     -1.443145
      16A     -1.327964    17A     -1.248194    18A     -1.077969
      19A     -1.046016    20A     -1.006388    21A     -0.916442
      22A     -0.870020    23A     -0.855062    24A     -0.774521
      25A     -0.720208    26A     -0.670587    27A     -0.666999
      28A     -0.651453    29A     -0.639328    30A     -0.612349
      31A     -0.600349    32A     -0.577579    33A     -0.571932
      34A     -0.549662    35A     -0.543637    36A     -0.540169
      37A     -0.526830    38A     -0.519256    39A     -0.512064
      40A     -0.498147    41A     -0.489529    42A     -0.485812
      43A     -0.461487    44A     -0.444580    45A     -0.392314

  @DF-RHF Final Energy:  -837.77537497993944

   => Energetics <=

    Nuclear Repulsion Energy =            742.4814842851542380
    One-Electron Energy =               -2623.9198868209928150
    Two-Electron Energy =                1043.6630275558991343
    Total Energy =                       -837.7753749799394427
  Basis Set: (AUG-CC-PVTZ AUX)
    Blend: AUG-CC-PVTZ-RI
    Molecular point group: c1

    Geometry (in Angstrom), charge = 0, multiplicity = 1:

       Center              X                  Y                   Z               Mass
    ------------   -----------------  -----------------  -----------------  -----------------
         S            0.721721451173     0.037276265785    -0.391691778047    31.972071174400
         O            0.962517451173    -1.064409734215    -1.327781778047    15.994914619570
         O            0.909637451173     1.438461265785    -0.780040778047    15.994914619570
         N           -0.866409048827    -0.094990034215     0.144477821953    14.003074004430
         C           -1.358477548827    -1.428565734215     0.473327221953    12.000000000000
         C           -1.408590548827     1.060083265785     0.865794221953    12.000000000000
         C            1.765964451173    -0.259727734215     1.040248221953    12.000000000000
         C           -2.790498548827    -1.605881734215    -0.010882778047    12.000000000000
         C           -2.221375548827     1.966246265785    -0.046235778047    12.000000000000
         C            3.238849451173    -0.137820734215     0.667911221953    12.000000000000
         H           -0.716054548827    -2.158235734215    -0.023880778047     1.007825032230
         H           -1.296879548827    -1.599586734215     1.559104221953     1.007825032230
         H           -2.026512548827     0.658011265785     1.676925221953     1.007825032230
         H           -0.604603548827     1.637743265785     1.335486221953     1.007825032230
         H            1.478718451173     0.472989265785     1.800452221953     1.007825032230
         H            1.520281451173    -1.262508734215     1.403239221953     1.007825032230
         H           -3.469427548827    -0.897045734215     0.470277221953     1.007825032230
         H           -2.836267548827    -1.455118734215    -1.091420778047     1.007825032230
         H           -3.141356548827    -2.616354734215     0.221002221953     1.007825032230
         H           -1.573742548827     2.367666265785    -0.826854778047     1.007825032230
         H           -3.035266548827     1.410071265785    -0.516594778047     1.007825032230
         H           -2.648398548827     2.798171265785     0.523889221953     1.007825032230
         H            3.859264451173    -0.322124734215     1.548533221953     1.007825032230
         H            3.497672451173    -0.866390734215    -0.102731778047     1.007825032230
         H            3.453607451173     0.863723265785     0.290435221953     1.007825032230

  Basis Set: AUG-CC-PVTZ
    Blend: AUG-CC-PVTZ
  Basis Set: (AUG-CC-PVTZ AUX)
    Blend: AUG-CC-PVTZ-JKFIT
	 Reference Energy          =    -837.7753749799394427 [Eh]
	 Singles Energy            =      -0.0000000000000000 [Eh]
	 Same-Spin Energy          =      -0.5169129923527036 [Eh]
	 Opposite-Spin Energy      =      -1.6701963197873848 [Eh]
	 Correlation Energy        =      -2.1871093121400884 [Eh]
	 Total Energy              =    -839.9624842920795800 [Eh]

	 ================> DF-SCS-MP2 Energies <==================
	-----------------------------------------------------------
	 SCS Same-Spin Scale       =       0.3333333333333333 [-]
	 SCS Opposite-Spin Scale   =       1.2000000000000000 [-]
	 SCS Same-Spin Energy      =      -0.1723043307842345 [Eh]
	 SCS Opposite-Spin Energy  =      -2.0042355837448618 [Eh]
	 SCS Correlation Energy    =      -2.1765399145290965 [Eh]
	 SCS Total Energy          =    -839.9519148944685867 [Eh]
	-----------------------------------------------------------

  Dipole Moment: [D]
     X:    -1.2506      Y:    -0.9867      Z:     4.4219     Total:     4.7001

*** Psi4 exiting successfully. Buy a developer a beer!
