                               Psi4 1.3.2 release

  ==> Input File <==

--------------------------------------------------------------------------
#psi4
#
memory 32 gb

molecule  {
0 1
  S       -0.7380000    -0.0680220    -0.3640970
  O       -0.9620392     0.9467480    -1.3961837
  O       -0.9666500    -1.4966470    -0.5970260
  N        0.8641561     0.1263824     0.0314764
  C        1.3822580     1.4387740     0.2709440
  C        1.4230980    -0.9933220     0.9046550
  C       -1.6975890     0.4015790     1.0774410
  C        2.8090910     1.5534440    -0.2422640
  C        2.2024570    -1.9997400     0.0750250
  C       -3.1888920     0.2878700     0.7901350
  H        0.7441850     2.1234290    -0.2885820
  H        1.3352270     1.7155400     1.3356310
  H        2.0636810    -0.5196560     1.6565250
  H        0.6239660    -1.5103280     1.4462590
  H       -1.3901500    -0.2576530     1.8936760
  H       -1.4092710     1.4273450     1.3241250
  H        3.4861350     0.8840910     0.2940530
  H        2.8396270     1.3037350    -1.3040650
  H        3.1732700     2.5763490    -0.1082090
  H        1.5321020    -2.4670540    -0.6475950
  H        3.0150810    -1.5100200    -0.4652590
  H        2.6275220    -2.7764500     0.7187370
  H       -3.7600990     0.5807950     1.6744350
  H       -3.4644480     0.9408190    -0.0387940
  H       -3.4474850    -0.7394320     0.5291400
units angstrom
no_reorient  #important for SAPT in psi4, default
symmetry c1  #important for SAPT in psi4, default
}

set PROPERTIES_ORIGIN ["COM"]
properties('MP2/aug-cc-pvtz', properties = ['dipole'])
--------------------------------------------------------------------------

    Molecular point group: c1
  Charge       = 0
  Multiplicity = 1
  Basis Set: AUG-CC-PVTZ
    Blend: AUG-CC-PVTZ
  Basis Set: (AUG-CC-PVTZ AUX)
    Blend: AUG-CC-PVTZ-JKFIT

    Orbital Energies [Eh]
    ---------------------

    Doubly Occupied:

       1A    -92.190582     2A    -20.543054     3A    -20.535119
       4A    -15.592558     5A    -11.279170     6A    -11.277549
       7A    -11.270598     8A    -11.238576     9A    -11.225078
      10A    -11.217680    11A     -9.156394    12A     -6.841514
      13A     -6.840712    14A     -6.840619    15A     -1.444281
      16A     -1.328350    17A     -1.245919    18A     -1.079943
      19A     -1.044319    20A     -1.009263    21A     -0.916618
      22A     -0.867418    23A     -0.856625    24A     -0.774990
      25A     -0.720697    26A     -0.669847    27A     -0.668256
      28A     -0.653846    29A     -0.637229    30A     -0.611603
      31A     -0.602076    32A     -0.573989    33A     -0.572367
      34A     -0.550357    35A     -0.544782    36A     -0.540297
      37A     -0.528313    38A     -0.519058    39A     -0.510787
      40A     -0.493614    41A     -0.488229    42A     -0.486565
      43A     -0.460457    44A     -0.445522    45A     -0.397020

  @DF-RHF Final Energy:  -837.77256665587356

   => Energetics <=

    Nuclear Repulsion Energy =            743.6315986695173024
    One-Electron Energy =               -2626.2246487436827920
    Two-Electron Energy =                1044.8204834182920422
    Total Energy =                       -837.7725666558735611
  Basis Set: (AUG-CC-PVTZ AUX)
    Blend: AUG-CC-PVTZ-RI
    Molecular point group: c1

    Geometry (in Angstrom), charge = 0, multiplicity = 1:

       Center              X                  Y                   Z               Mass
    ------------   -----------------  -----------------  -----------------  -----------------
         S           -0.743167200356    -0.073158723845    -0.361145009981    31.972071174400
         O           -0.967206400356     0.941611276155    -1.393231709981    15.994914619570
         O           -0.971817200356    -1.501783723845    -0.594074009981    15.994914619570
         N            0.858988899644     0.121245676155     0.034428390019    14.003074004430
         C            1.377090799644     1.433637276155     0.273895990019    12.000000000000
         C            1.417930799644    -0.998458723845     0.907606990019    12.000000000000
         C           -1.702756200356     0.396442276155     1.080392990019    12.000000000000
         C            2.803923799644     1.548307276155    -0.239312009981    12.000000000000
         C            2.197289799644    -2.004876723845     0.077976990019    12.000000000000
         C           -3.194059200356     0.282733276155     0.793086990019    12.000000000000
         H            0.739017799644     2.118292276155    -0.285630009981     1.007825032230
         H            1.330059799644     1.710403276155     1.338582990019     1.007825032230
         H            2.058513799644    -0.524792723845     1.659476990019     1.007825032230
         H            0.618798799644    -1.515464723845     1.449210990019     1.007825032230
         H           -1.395317200356    -0.262789723845     1.896627990019     1.007825032230
         H           -1.414438200356     1.422208276155     1.327076990019     1.007825032230
         H            3.480967799644     0.878954276155     0.297004990019     1.007825032230
         H            2.834459799644     1.298598276155    -1.301113009981     1.007825032230
         H            3.168102799644     2.571212276155    -0.105257009981     1.007825032230
         H            1.526934799644    -2.472190723845    -0.644643009981     1.007825032230
         H            3.009913799644    -1.515156723845    -0.462307009981     1.007825032230
         H            2.622354799644    -2.781586723845     0.721688990019     1.007825032230
         H           -3.765266200356     0.575658276155     1.677386990019     1.007825032230
         H           -3.469615200356     0.935682276155    -0.035842009981     1.007825032230
         H           -3.452652200356    -0.744568723845     0.532091990019     1.007825032230

  Basis Set: AUG-CC-PVTZ
    Blend: AUG-CC-PVTZ
  Basis Set: (AUG-CC-PVTZ AUX)
    Blend: AUG-CC-PVTZ-JKFIT
	 Reference Energy          =    -837.7725666558735611 [Eh]
	 Singles Energy            =      -0.0000000000000000 [Eh]
	 Same-Spin Energy          =      -0.5170550851527647 [Eh]
	 Opposite-Spin Energy      =      -1.6703629230387746 [Eh]
	 Correlation Energy        =      -2.1874180081915391 [Eh]
	 Total Energy              =    -839.9599846640651322 [Eh]

	 ================> DF-SCS-MP2 Energies <==================
	-----------------------------------------------------------
	 SCS Same-Spin Scale       =       0.3333333333333333 [-]
	 SCS Opposite-Spin Scale   =       1.2000000000000000 [-]
	 SCS Same-Spin Energy      =      -0.1723516950509215 [Eh]
	 SCS Opposite-Spin Energy  =      -2.0044355076465297 [Eh]
	 SCS Correlation Energy    =      -2.1767872026974513 [Eh]
	 SCS Total Energy          =    -839.9493538585710439 [Eh]
	-----------------------------------------------------------

  Dipole Moment: [D]
     X:     1.4097      Y:     1.2278      Z:     4.3939     Total:     4.7751

*** Psi4 exiting successfully. Buy a developer a beer!
