                               Psi4 1.3.2 release

  ==> Input File <==

--------------------------------------------------------------------------
#psi4
#
memory 32 gb

molecule  {
0 1
  S       -0.7380000    -0.0680220    -0.3640970
  O       -1.0590545     0.9149303    -1.4013450
  O       -0.9666500    -1.4966470    -0.5970260
  N        0.8515704     0.0400352     0.1078828
  C        1.3822580     1.4387740     0.2709440
  C        1.4230980    -0.9933220     0.9046550
  C       -1.6975890     0.4015790     1.0774410
  C        2.8090910     1.5534440    -0.2422640
  C        2.2024570    -1.9997400     0.0750250
  C       -3.1888920     0.2878700     0.7901350
  H        0.7441850     2.1234290    -0.2885820
  H        1.3352270     1.7155400     1.3356310
  H        2.0636810    -0.5196560     1.6565250
  H        0.6239660    -1.5103280     1.4462590
  H       -1.3901500    -0.2576530     1.8936760
  H       -1.4092710     1.4273450     1.3241250
  H        3.4861350     0.8840910     0.2940530
  H        2.8396270     1.3037350    -1.3040650
  H        3.1732700     2.5763490    -0.1082090
  H        1.5321020    -2.4670540    -0.6475950
  H        3.0150810    -1.5100200    -0.4652590
  H        2.6275220    -2.7764500     0.7187370
  H       -3.7600990     0.5807950     1.6744350
  H       -3.4644480     0.9408190    -0.0387940
  H       -3.4474850    -0.7394320     0.5291400
units angstrom
no_reorient  #important for SAPT in psi4, default
symmetry c1  #important for SAPT in psi4, default
}

set PROPERTIES_ORIGIN ["COM"]
properties('MP2/aug-cc-pvtz', properties = ['dipole'])
--------------------------------------------------------------------------

    Molecular point group: c1
  Charge       = 0
  Multiplicity = 1
  Basis Set: AUG-CC-PVTZ
    Blend: AUG-CC-PVTZ
  Basis Set: (AUG-CC-PVTZ AUX)
    Blend: AUG-CC-PVTZ-JKFIT

    Orbital Energies [Eh]
    ---------------------

    Doubly Occupied:

       1A    -92.191297     2A    -20.542794     3A    -20.534433
       4A    -15.594069     5A    -11.282343     6A    -11.273510
       7A    -11.272488     8A    -11.235156     9A    -11.230856
      10A    -11.214538    11A     -9.156863    12A     -6.841984
      13A     -6.841217    14A     -6.841105    15A     -1.443999
      16A     -1.326267    17A     -1.253465    18A     -1.076915
      19A     -1.048613    20A     -1.010581    21A     -0.916127
      22A     -0.872851    23A     -0.857767    24A     -0.773273
      25A     -0.720334    26A     -0.672469    27A     -0.667016
      28A     -0.650942    29A     -0.644836    30A     -0.612267
      31A     -0.597295    32A     -0.582073    33A     -0.571388
      34A     -0.549705    35A     -0.543838    36A     -0.540701
      37A     -0.525592    38A     -0.520280    39A     -0.513833
      40A     -0.502887    41A     -0.489321    42A     -0.483596
      43A     -0.459943    44A     -0.444659    45A     -0.393431

  @DF-RHF Final Energy:  -837.77353617187919

   => Energetics <=

    Nuclear Repulsion Energy =            743.4563070872733306
    One-Electron Energy =               -2625.8218524056728711
    Two-Electron Energy =                1044.5920091465204678
    Total Energy =                       -837.7735361718791864
  Basis Set: (AUG-CC-PVTZ AUX)
    Blend: AUG-CC-PVTZ-RI
    Molecular point group: c1

    Geometry (in Angstrom), charge = 0, multiplicity = 1:

       Center              X                  Y                   Z               Mass
    ------------   -----------------  -----------------  -----------------  -----------------
         S           -0.732699758319    -0.062751508127    -0.367126085011    31.972071174400
         O           -1.053754258319     0.920200791873    -1.404374085011    15.994914619570
         O           -0.961349758319    -1.491376508127    -0.600055085011    15.994914619570
         N            0.856870641681     0.045305691873     0.104853714989    14.003074004430
         C            1.387558241681     1.444044491873     0.267914914989    12.000000000000
         C            1.428398241681    -0.988051508127     0.901625914989    12.000000000000
         C           -1.692288758319     0.406849491873     1.074411914989    12.000000000000
         C            2.814391241681     1.558714491873    -0.245293085011    12.000000000000
         C            2.207757241681    -1.994469508127     0.071995914989    12.000000000000
         C           -3.183591758319     0.293140491873     0.787105914989    12.000000000000
         H            0.749485241681     2.128699491873    -0.291611085011     1.007825032230
         H            1.340527241681     1.720810491873     1.332601914989     1.007825032230
         H            2.068981241681    -0.514385508127     1.653495914989     1.007825032230
         H            0.629266241681    -1.505057508127     1.443229914989     1.007825032230
         H           -1.384849758319    -0.252382508127     1.890646914989     1.007825032230
         H           -1.403970758319     1.432615491873     1.321095914989     1.007825032230
         H            3.491435241681     0.889361491873     0.291023914989     1.007825032230
         H            2.844927241681     1.309005491873    -1.307094085011     1.007825032230
         H            3.178570241681     2.581619491873    -0.111238085011     1.007825032230
         H            1.537402241681    -2.461783508127    -0.650624085011     1.007825032230
         H            3.020381241681    -1.504749508127    -0.468288085011     1.007825032230
         H            2.632822241681    -2.771179508127     0.715707914989     1.007825032230
         H           -3.754798758319     0.586065491873     1.671405914989     1.007825032230
         H           -3.459147758319     0.946089491873    -0.041823085011     1.007825032230
         H           -3.442184758319    -0.734161508127     0.526110914989     1.007825032230

  Basis Set: AUG-CC-PVTZ
    Blend: AUG-CC-PVTZ
  Basis Set: (AUG-CC-PVTZ AUX)
    Blend: AUG-CC-PVTZ-JKFIT
	 Reference Energy          =    -837.7735361718791864 [Eh]
	 Singles Energy            =      -0.0000000000000000 [Eh]
	 Same-Spin Energy          =      -0.5168713650163725 [Eh]
	 Opposite-Spin Energy      =      -1.6697953888811896 [Eh]
	 Correlation Energy        =      -2.1866667538975619 [Eh]
	 Total Energy              =    -839.9602029257767981 [Eh]

	 ================> DF-SCS-MP2 Energies <==================
	-----------------------------------------------------------
	 SCS Same-Spin Scale       =       0.3333333333333333 [-]
	 SCS Opposite-Spin Scale   =       1.2000000000000000 [-]
	 SCS Same-Spin Energy      =      -0.1722904550054575 [Eh]
	 SCS Opposite-Spin Energy  =      -2.0037544666574276 [Eh]
	 SCS Correlation Energy    =      -2.1760449216628852 [Eh]
	 SCS Total Energy          =    -839.9495810935420650 [Eh]
	-----------------------------------------------------------

  Dipole Moment: [D]
     X:     1.7579      Y:     1.6706      Z:     4.2191     Total:     4.8664

*** Psi4 exiting successfully. Buy a developer a beer!
