                               Psi4 1.3.2 release

  ==> Input File <==

--------------------------------------------------------------------------
#psi4
#
memory 32 gb

molecule  {
0 1
  F       -0.0963580     2.2498010    -0.0002150
  O        1.7683730     0.3991100    -0.0000070
  C        0.4770520    -0.0443510     0.0000100
  C       -0.5052370     0.9594120    -0.0001040
  C        0.0593170    -1.3782210     0.0001240
  C       -1.8569217     0.6655108    -0.2501050
  C       -1.3077240    -1.6845900     0.0001240
  C       -2.2644630    -0.6734790     0.0000110
  C        2.7793550    -0.6059020     0.0001420
  H        0.7856920    -2.1838160     0.0002110
  H       -2.5691860     1.4853780    -0.0001950
  H       -1.6154480    -2.7269510     0.0002140
  H       -3.3233590    -0.9156310     0.0000120
  H        2.7155550    -1.2340820    -0.8948950
  H        2.7154750    -1.2338950     0.8953060
  H        3.7232780    -0.0625150     0.0001270
units angstrom
no_reorient  #important for SAPT in psi4, default
symmetry c1  #important for SAPT in psi4, default
}

set PROPERTIES_ORIGIN ["COM"]
properties('MP2/aug-cc-pvtz', properties = ['dipole'])
--------------------------------------------------------------------------

    Molecular point group: c1
  Charge       = 0
  Multiplicity = 1
  Basis Set: AUG-CC-PVTZ
    Blend: AUG-CC-PVTZ
  Basis Set: (AUG-CC-PVTZ AUX)
    Blend: AUG-CC-PVTZ-JKFIT

    Orbital Energies [Eh]
    ---------------------

    Doubly Occupied:

       1A    -26.303610     2A    -20.594832     3A    -11.328918
       4A    -11.313007     5A    -11.291497     6A    -11.253777
       7A    -11.250401     8A    -11.247573     9A    -11.246075
      10A     -1.617428    11A     -1.415673    12A     -1.156180
      13A     -1.028171    14A     -1.024683    15A     -0.950223
      16A     -0.848232    17A     -0.828587    18A     -0.745207
      19A     -0.707875    20A     -0.704902    21A     -0.689504
      22A     -0.656827    23A     -0.640544    24A     -0.628438
      25A     -0.614275    26A     -0.579595    27A     -0.545698
      28A     -0.529718    29A     -0.516368    30A     -0.501664
      31A     -0.475156    32A     -0.348320    33A     -0.319592

  @DF-RHF Final Energy:  -443.56950235584634

   => Energetics <=

    Nuclear Repulsion Energy =            430.1367906165587556
    One-Electron Energy =               -1459.6074911417840667
    Two-Electron Energy =                 585.9011981693789721
    Total Energy =                       -443.5695023558463390
  Basis Set: (AUG-CC-PVTZ AUX)
    Blend: AUG-CC-PVTZ-RI
    Molecular point group: c1

    Geometry (in Angstrom), charge = 0, multiplicity = 1:

       Center              X                  Y                   Z               Mass
    ------------   -----------------  -----------------  -----------------  -----------------
         F           -0.076380737448     2.177910720753     0.023593265924    18.998403162730
         O            1.788350262552     0.327219720753     0.023801265924    15.994914619570
         C            0.497029262552    -0.116241279247     0.023818265924    12.000000000000
         C           -0.485259737448     0.887521720753     0.023704265924    12.000000000000
         C            0.079294262552    -1.450111279247     0.023932265924    12.000000000000
         C           -1.836944437448     0.593620520753    -0.226296734076    12.000000000000
         C           -1.287746737448    -1.756480279247     0.023932265924    12.000000000000
         C           -2.244485737448    -0.745369279247     0.023819265924    12.000000000000
         C            2.799332262552    -0.677792279247     0.023950265924    12.000000000000
         H            0.805669262552    -2.255706279247     0.024019265924     1.007825032230
         H           -2.549208737448     1.413487720753     0.023613265924     1.007825032230
         H           -1.595470737448    -2.798841279247     0.024022265924     1.007825032230
         H           -3.303381737448    -0.987521279247     0.023820265924     1.007825032230
         H            2.735532262552    -1.305972279247    -0.871086734076     1.007825032230
         H            2.735452262552    -1.305785279247     0.919114265924     1.007825032230
         H            3.743255262552    -0.134405279247     0.023935265924     1.007825032230

  Basis Set: AUG-CC-PVTZ
    Blend: AUG-CC-PVTZ
  Basis Set: (AUG-CC-PVTZ AUX)
    Blend: AUG-CC-PVTZ-JKFIT
	 Reference Energy          =    -443.5695023558463390 [Eh]
	 Singles Energy            =      -0.0000000000000000 [Eh]
	 Same-Spin Energy          =      -0.4401286314266886 [Eh]
	 Opposite-Spin Energy      =      -1.3530038669779461 [Eh]
	 Correlation Energy        =      -1.7931324984046346 [Eh]
	 Total Energy              =    -445.3626348542509845 [Eh]

	 ================> DF-SCS-MP2 Energies <==================
	-----------------------------------------------------------
	 SCS Same-Spin Scale       =       0.3333333333333333 [-]
	 SCS Opposite-Spin Scale   =       1.2000000000000000 [-]
	 SCS Same-Spin Energy      =      -0.1467095438088962 [Eh]
	 SCS Opposite-Spin Energy  =      -1.6236046403735351 [Eh]
	 SCS Correlation Energy    =      -1.7703141841824312 [Eh]
	 SCS Total Energy          =    -445.3398165400287780 [Eh]
	-----------------------------------------------------------

  Dipole Moment: [D]
     X:     0.6018      Y:    -2.5830      Z:     0.1725     Total:     2.6577

*** Psi4 exiting successfully. Buy a developer a beer!
