                               Psi4 1.3.2 release

  ==> Input File <==

--------------------------------------------------------------------------
#psi4
#
memory 32 gb

molecule  {
0 1
  F       -0.0963580     2.2498010    -0.0002150
  O        1.7683730     0.3991100    -0.0000070
  C        0.4770520    -0.0443510     0.0000100
  C       -0.5052370     0.9594120    -0.0001040
  C        0.0593170    -1.3782210     0.0001240
  C       -1.8569228     0.6655154    -0.2001050
  C       -1.3077240    -1.6845900     0.0001240
  C       -2.2644630    -0.6734790     0.0000110
  C        2.7793550    -0.6059020     0.0001420
  H        0.7856920    -2.1838160     0.0002110
  H       -2.5691860     1.4853780    -0.0001950
  H       -1.6154480    -2.7269510     0.0002140
  H       -3.3233590    -0.9156310     0.0000120
  H        2.7155550    -1.2340820    -0.8948950
  H        2.7154750    -1.2338950     0.8953060
  H        3.7232780    -0.0625150     0.0001270
units angstrom
no_reorient  #important for SAPT in psi4, default
symmetry c1  #important for SAPT in psi4, default
}

set PROPERTIES_ORIGIN ["COM"]
properties('MP2/aug-cc-pvtz', properties = ['dipole'])
--------------------------------------------------------------------------

    Molecular point group: c1
  Charge       = 0
  Multiplicity = 1
  Basis Set: AUG-CC-PVTZ
    Blend: AUG-CC-PVTZ
  Basis Set: (AUG-CC-PVTZ AUX)
    Blend: AUG-CC-PVTZ-JKFIT

    Orbital Energies [Eh]
    ---------------------

    Doubly Occupied:

       1A    -26.303071     2A    -20.594750     3A    -11.326928
       4A    -11.313032     5A    -11.291309     6A    -11.251950
       7A    -11.249288     8A    -11.246763     9A    -11.245244
      10A     -1.616950    11A     -1.415537    12A     -1.156888
      13A     -1.028319    14A     -1.025607    15A     -0.950280
      16A     -0.848449    17A     -0.829399    18A     -0.745243
      19A     -0.708350    20A     -0.705027    21A     -0.689419
      22A     -0.656616    23A     -0.640924    24A     -0.628440
      25A     -0.616796    26A     -0.580069    27A     -0.546640
      28A     -0.529941    29A     -0.517438    30A     -0.501952
      31A     -0.476069    32A     -0.348190    33A     -0.320011

  @DF-RHF Final Energy:  -443.57649789005484

   => Energetics <=

    Nuclear Repulsion Energy =            430.3926681662883880
    One-Electron Energy =               -1460.1285510684383553
    Two-Electron Energy =                 586.1593850120951856
    Total Energy =                       -443.5764978900548385
  Basis Set: (AUG-CC-PVTZ AUX)
    Blend: AUG-CC-PVTZ-RI
    Molecular point group: c1

    Geometry (in Angstrom), charge = 0, multiplicity = 1:

       Center              X                  Y                   Z               Mass
    ------------   -----------------  -----------------  -----------------  -----------------
         F           -0.076380632726     2.177910282825     0.018833178043    18.998403162730
         O            1.788350367274     0.327219282825     0.019041178043    15.994914619570
         C            0.497029367274    -0.116241717175     0.019058178043    12.000000000000
         C           -0.485259632726     0.887521282825     0.018944178043    12.000000000000
         C            0.079294367274    -1.450111717175     0.019172178043    12.000000000000
         C           -1.836945432726     0.593624682825    -0.181056821957    12.000000000000
         C           -1.287746632726    -1.756480717175     0.019172178043    12.000000000000
         C           -2.244485632726    -0.745369717175     0.019059178043    12.000000000000
         C            2.799332367274    -0.677792717175     0.019190178043    12.000000000000
         H            0.805669367274    -2.255706717175     0.019259178043     1.007825032230
         H           -2.549208632726     1.413487282825     0.018853178043     1.007825032230
         H           -1.595470632726    -2.798841717175     0.019262178043     1.007825032230
         H           -3.303381632726    -0.987521717175     0.019060178043     1.007825032230
         H            2.735532367274    -1.305972717175    -0.875846821957     1.007825032230
         H            2.735452367274    -1.305785717175     0.914354178043     1.007825032230
         H            3.743255367274    -0.134405717175     0.019175178043     1.007825032230

  Basis Set: AUG-CC-PVTZ
    Blend: AUG-CC-PVTZ
  Basis Set: (AUG-CC-PVTZ AUX)
    Blend: AUG-CC-PVTZ-JKFIT
	 Reference Energy          =    -443.5764978900548385 [Eh]
	 Singles Energy            =      -0.0000000000000000 [Eh]
	 Same-Spin Energy          =      -0.4397450684510508 [Eh]
	 Opposite-Spin Energy      =      -1.3518616783265782 [Eh]
	 Correlation Energy        =      -1.7916067467776291 [Eh]
	 Total Energy              =    -445.3681046368324701 [Eh]

	 ================> DF-SCS-MP2 Energies <==================
	-----------------------------------------------------------
	 SCS Same-Spin Scale       =       0.3333333333333333 [-]
	 SCS Opposite-Spin Scale   =       1.2000000000000000 [-]
	 SCS Same-Spin Energy      =      -0.1465816894836836 [Eh]
	 SCS Opposite-Spin Energy  =      -1.6222340139918938 [Eh]
	 SCS Correlation Energy    =      -1.7688157034755774 [Eh]
	 SCS Total Energy          =    -445.3453135935304203 [Eh]
	-----------------------------------------------------------

  Dipole Moment: [D]
     X:     0.5592      Y:    -2.5518      Z:     0.1359     Total:     2.6159

*** Psi4 exiting successfully. Buy a developer a beer!
