                               Psi4 1.3.2 release

  ==> Input File <==

--------------------------------------------------------------------------
#psi4
#
memory 32 gb

molecule  {
0 1
  F       -0.0963580     2.2498010    -0.0002150
  O        1.7683730     0.3991100    -0.0000070
  C        0.4770520    -0.0443510     0.0000100
  C       -0.5052370     0.9594120    -0.0001040
  C        0.0593170    -1.3782210     0.0001240
  C       -1.8569238     0.6655201    -0.1501050
  C       -1.3077240    -1.6845900     0.0001240
  C       -2.2644630    -0.6734790     0.0000110
  C        2.7793550    -0.6059020     0.0001420
  H        0.7856920    -2.1838160     0.0002110
  H       -2.5691860     1.4853780    -0.0001950
  H       -1.6154480    -2.7269510     0.0002140
  H       -3.3233590    -0.9156310     0.0000120
  H        2.7155550    -1.2340820    -0.8948950
  H        2.7154750    -1.2338950     0.8953060
  H        3.7232780    -0.0625150     0.0001270
units angstrom
no_reorient  #important for SAPT in psi4, default
symmetry c1  #important for SAPT in psi4, default
}

set PROPERTIES_ORIGIN ["COM"]
properties('MP2/aug-cc-pvtz', properties = ['dipole'])
--------------------------------------------------------------------------

    Molecular point group: c1
  Charge       = 0
  Multiplicity = 1
  Basis Set: AUG-CC-PVTZ
    Blend: AUG-CC-PVTZ
  Basis Set: (AUG-CC-PVTZ AUX)
    Blend: AUG-CC-PVTZ-JKFIT

    Orbital Energies [Eh]
    ---------------------

    Doubly Occupied:

       1A    -26.302652     2A    -20.594696     3A    -11.325351
       4A    -11.313065     5A    -11.291169     6A    -11.250487
       7A    -11.248472     8A    -11.246639     9A    -11.244041
      10A     -1.616576    11A     -1.415438    12A     -1.157466
      13A     -1.028571    14A     -1.026190    15A     -0.950338
      16A     -0.848627    17A     -0.830073    18A     -0.745315
      19A     -0.708764    20A     -0.705143    21A     -0.689349
      22A     -0.656456    23A     -0.641332    24A     -0.628443
      25A     -0.618779    26A     -0.580478    27A     -0.547326
      28A     -0.530115    29A     -0.518273    30A     -0.502123
      31A     -0.476774    32A     -0.348118    33A     -0.320357

  @DF-RHF Final Energy:  -443.58188716120668

   => Energetics <=

    Nuclear Repulsion Energy =            430.5942871182389240
    One-Electron Energy =               -1460.5383485682084483
    Two-Electron Energy =                 586.3621742887628443
    Total Energy =                       -443.5818871612066232
  Basis Set: (AUG-CC-PVTZ AUX)
    Blend: AUG-CC-PVTZ-RI
    Molecular point group: c1

    Geometry (in Angstrom), charge = 0, multiplicity = 1:

       Center              X                  Y                   Z               Mass
    ------------   -----------------  -----------------  -----------------  -----------------
         F           -0.076380537524     2.177909835377     0.014073090161    18.998403162730
         O            1.788350462476     0.327218835377     0.014281090161    15.994914619570
         C            0.497029462476    -0.116242164623     0.014298090161    12.000000000000
         C           -0.485259537524     0.887520835377     0.014184090161    12.000000000000
         C            0.079294462476    -1.450112164623     0.014412090161    12.000000000000
         C           -1.836946337524     0.593628935377    -0.135816909839    12.000000000000
         C           -1.287746537524    -1.756481164623     0.014412090161    12.000000000000
         C           -2.244485537524    -0.745370164623     0.014299090161    12.000000000000
         C            2.799332462476    -0.677793164623     0.014430090161    12.000000000000
         H            0.805669462476    -2.255707164623     0.014499090161     1.007825032230
         H           -2.549208537524     1.413486835377     0.014093090161     1.007825032230
         H           -1.595470537524    -2.798842164623     0.014502090161     1.007825032230
         H           -3.303381537524    -0.987522164623     0.014300090161     1.007825032230
         H            2.735532462476    -1.305973164623    -0.880606909839     1.007825032230
         H            2.735452462476    -1.305786164623     0.909594090161     1.007825032230
         H            3.743255462476    -0.134406164623     0.014415090161     1.007825032230

  Basis Set: AUG-CC-PVTZ
    Blend: AUG-CC-PVTZ
  Basis Set: (AUG-CC-PVTZ AUX)
    Blend: AUG-CC-PVTZ-JKFIT
	 Reference Energy          =    -443.5818871612066800 [Eh]
	 Singles Energy            =      -0.0000000000000000 [Eh]
	 Same-Spin Energy          =      -0.4394401765330826 [Eh]
	 Opposite-Spin Energy      =      -1.3509684553974262 [Eh]
	 Correlation Energy        =      -1.7904086319305088 [Eh]
	 Total Energy              =    -445.3722957931371980 [Eh]

	 ================> DF-SCS-MP2 Energies <==================
	-----------------------------------------------------------
	 SCS Same-Spin Scale       =       0.3333333333333333 [-]
	 SCS Opposite-Spin Scale   =       1.2000000000000000 [-]
	 SCS Same-Spin Energy      =      -0.1464800588443609 [Eh]
	 SCS Opposite-Spin Energy  =      -1.6211621464769113 [Eh]
	 SCS Correlation Energy    =      -1.7676422053212721 [Eh]
	 SCS Total Energy          =    -445.3495293665279746 [Eh]
	-----------------------------------------------------------

  Dipole Moment: [D]
     X:     0.5257      Y:    -2.5273      Z:     0.1006     Total:     2.5834

*** Psi4 exiting successfully. Buy a developer a beer!
