                               Psi4 1.3.2 release

  ==> Input File <==

--------------------------------------------------------------------------
#psi4
#
memory 32 gb

molecule  {
0 1
  F       -0.0963580     2.2498010    -0.0002150
  O        1.7683730     0.3991100    -0.0000070
  C        0.4770520    -0.0443510     0.0000100
  C       -0.5052370     0.9594120    -0.0001040
  C        0.0593170    -1.3782210     0.0001240
  C       -1.8569259     0.6655294    -0.0501050
  C       -1.3077240    -1.6845900     0.0001240
  C       -2.2644630    -0.6734790     0.0000110
  C        2.7793550    -0.6059020     0.0001420
  H        0.7856920    -2.1838160     0.0002110
  H       -2.5691860     1.4853780    -0.0001950
  H       -1.6154480    -2.7269510     0.0002140
  H       -3.3233590    -0.9156310     0.0000120
  H        2.7155550    -1.2340820    -0.8948950
  H        2.7154750    -1.2338950     0.8953060
  H        3.7232780    -0.0625150     0.0001270
units angstrom
no_reorient  #important for SAPT in psi4, default
symmetry c1  #important for SAPT in psi4, default
}

set PROPERTIES_ORIGIN ["COM"]
properties('MP2/aug-cc-pvtz', properties = ['dipole'])
--------------------------------------------------------------------------

    Molecular point group: c1
  Charge       = 0
  Multiplicity = 1
  Basis Set: AUG-CC-PVTZ
    Blend: AUG-CC-PVTZ
  Basis Set: (AUG-CC-PVTZ AUX)
    Blend: AUG-CC-PVTZ-JKFIT

    Orbital Energies [Eh]
    ---------------------

    Doubly Occupied:

       1A    -26.302189     2A    -20.594651     3A    -11.323530
       4A    -11.313128     5A    -11.291020     6A    -11.248784
       7A    -11.247713     8A    -11.246501     9A    -11.242530
      10A     -1.616158    11A     -1.415343    12A     -1.158166
      13A     -1.029070    14A     -1.026670    15A     -0.950428
      16A     -0.848854    17A     -0.830902    18A     -0.745460
      19A     -0.709293    20A     -0.705312    21A     -0.689271
      22A     -0.656284    23A     -0.641962    24A     -0.628462
      25A     -0.621037    26A     -0.580997    27A     -0.548062
      28A     -0.530322    29A     -0.519233    30A     -0.502281
      31A     -0.477579    32A     -0.348078    33A     -0.320785

  @DF-RHF Final Energy:  -443.58797324585129

   => Energetics <=

    Nuclear Repulsion Energy =            430.8275722717643816
    One-Electron Energy =               -1461.0109834271065665
    Two-Electron Energy =                 586.5954379094907836
    Total Energy =                       -443.5879732458513445
  Basis Set: (AUG-CC-PVTZ AUX)
    Blend: AUG-CC-PVTZ-RI
    Molecular point group: c1

    Geometry (in Angstrom), charge = 0, multiplicity = 1:

       Center              X                  Y                   Z               Mass
    ------------   -----------------  -----------------  -----------------  -----------------
         F           -0.076380337600     2.177908950001     0.004552914399    18.998403162730
         O            1.788350662400     0.327217950001     0.004760914399    15.994914619570
         C            0.497029662400    -0.116243049999     0.004777914399    12.000000000000
         C           -0.485259337600     0.887519950001     0.004663914399    12.000000000000
         C            0.079294662400    -1.450113049999     0.004891914399    12.000000000000
         C           -1.836948237600     0.593637350001    -0.045337085601    12.000000000000
         C           -1.287746337600    -1.756482049999     0.004891914399    12.000000000000
         C           -2.244485337600    -0.745371049999     0.004778914399    12.000000000000
         C            2.799332662400    -0.677794049999     0.004909914399    12.000000000000
         H            0.805669662400    -2.255708049999     0.004978914399     1.007825032230
         H           -2.549208337600     1.413485950001     0.004572914399     1.007825032230
         H           -1.595470337600    -2.798843049999     0.004981914399     1.007825032230
         H           -3.303381337600    -0.987523049999     0.004779914399     1.007825032230
         H            2.735532662400    -1.305974049999    -0.890127085601     1.007825032230
         H            2.735452662400    -1.305787049999     0.900073914399     1.007825032230
         H            3.743255662400    -0.134407049999     0.004894914399     1.007825032230

  Basis Set: AUG-CC-PVTZ
    Blend: AUG-CC-PVTZ
  Basis Set: (AUG-CC-PVTZ AUX)
    Blend: AUG-CC-PVTZ-JKFIT
	 Reference Energy          =    -443.5879732458512876 [Eh]
	 Singles Energy            =      -0.0000000000000000 [Eh]
	 Same-Spin Energy          =      -0.4390803693749931 [Eh]
	 Opposite-Spin Energy      =      -1.3499717638189883 [Eh]
	 Correlation Energy        =      -1.7890521331939815 [Eh]
	 Total Energy              =    -445.3770253790452784 [Eh]

	 ================> DF-SCS-MP2 Energies <==================
	-----------------------------------------------------------
	 SCS Same-Spin Scale       =       0.3333333333333333 [-]
	 SCS Opposite-Spin Scale   =       1.2000000000000000 [-]
	 SCS Same-Spin Energy      =      -0.1463601231249977 [Eh]
	 SCS Opposite-Spin Energy  =      -1.6199661165827859 [Eh]
	 SCS Correlation Energy    =      -1.7663262397077837 [Eh]
	 SCS Total Energy          =    -445.3542994855590678 [Eh]
	-----------------------------------------------------------

  Dipole Moment: [D]
     X:     0.4874      Y:    -2.4993      Z:     0.0331     Total:     2.5466

*** Psi4 exiting successfully. Buy a developer a beer!
