                               Psi4 1.3.2 release

  ==> Input File <==

--------------------------------------------------------------------------
#psi4
#
memory 32 gb

molecule  {
0 1
  F       -0.0963580     2.2498010    -0.0002150
  O        1.7683730     0.3991100    -0.0000070
  C        0.4770520    -0.0443510     0.0000100
  C       -0.5052370     0.9594120    -0.0001040
  C        0.0593140    -1.3782071     0.1501240
  C       -1.8569270     0.6655340    -0.0001050
  C       -1.3077240    -1.6845900     0.0001240
  C       -2.2644630    -0.6734790     0.0000110
  C        2.7793550    -0.6059020     0.0001420
  H        0.7856920    -2.1838160     0.0002110
  H       -2.5691860     1.4853780    -0.0001950
  H       -1.6154480    -2.7269510     0.0002140
  H       -3.3233590    -0.9156310     0.0000120
  H        2.7155550    -1.2340820    -0.8948950
  H        2.7154750    -1.2338950     0.8953060
  H        3.7232780    -0.0625150     0.0001270
units angstrom
no_reorient  #important for SAPT in psi4, default
symmetry c1  #important for SAPT in psi4, default
}

set PROPERTIES_ORIGIN ["COM"]
properties('MP2/aug-cc-pvtz', properties = ['dipole'])
--------------------------------------------------------------------------

    Molecular point group: c1
  Charge       = 0
  Multiplicity = 1
  Basis Set: AUG-CC-PVTZ
    Blend: AUG-CC-PVTZ
  Basis Set: (AUG-CC-PVTZ AUX)
    Blend: AUG-CC-PVTZ-JKFIT

    Orbital Energies [Eh]
    ---------------------

    Doubly Occupied:

       1A    -26.302158     2A    -20.595240     3A    -11.323222
       4A    -11.314993     5A    -11.290938     6A    -11.249715
       7A    -11.249292     8A    -11.248149     9A    -11.242234
      10A     -1.616180    11A     -1.415733    12A     -1.157562
      13A     -1.028685    14A     -1.026027    15A     -0.950294
      16A     -0.848417    17A     -0.830052    18A     -0.744673
      19A     -0.709036    20A     -0.704889    21A     -0.689256
      22A     -0.656342    23A     -0.641847    24A     -0.628344
      25A     -0.618382    26A     -0.580196    27A     -0.548180
      28A     -0.530567    29A     -0.518414    30A     -0.500613
      31A     -0.477049    32A     -0.348171    33A     -0.320557

  @DF-RHF Final Energy:  -443.58213673532327

   => Energetics <=

    Nuclear Repulsion Energy =            430.5911524656811480
    One-Electron Energy =               -1460.5357670237069669
    Two-Electron Energy =                 586.3624778227026582
    Total Energy =                       -443.5821367353232745
  Basis Set: (AUG-CC-PVTZ AUX)
    Blend: AUG-CC-PVTZ-RI
    Molecular point group: c1

    Geometry (in Angstrom), charge = 0, multiplicity = 1:

       Center              X                  Y                   Z               Mass
    ------------   -----------------  -----------------  -----------------  -----------------
         F           -0.076379947273     2.177907188768    -0.014487437127    18.998403162730
         O            1.788351052727     0.327216188768    -0.014279437127    15.994914619570
         C            0.497030052727    -0.116244811232    -0.014262437127    12.000000000000
         C           -0.485258947273     0.887518188768    -0.014376437127    12.000000000000
         C            0.079292052727    -1.450100911232     0.135851562873    12.000000000000
         C           -1.836948947273     0.593640188768    -0.014377437127    12.000000000000
         C           -1.287745947273    -1.756483811232    -0.014148437127    12.000000000000
         C           -2.244484947273    -0.745372811232    -0.014261437127    12.000000000000
         C            2.799333052727    -0.677795811232    -0.014130437127    12.000000000000
         H            0.805670052727    -2.255709811232    -0.014061437127     1.007825032230
         H           -2.549207947273     1.413484188768    -0.014467437127     1.007825032230
         H           -1.595469947273    -2.798844811232    -0.014058437127     1.007825032230
         H           -3.303380947273    -0.987524811232    -0.014260437127     1.007825032230
         H            2.735533052727    -1.305975811232    -0.909167437127     1.007825032230
         H            2.735453052727    -1.305788811232     0.881033562873     1.007825032230
         H            3.743256052727    -0.134408811232    -0.014145437127     1.007825032230

  Basis Set: AUG-CC-PVTZ
    Blend: AUG-CC-PVTZ
  Basis Set: (AUG-CC-PVTZ AUX)
    Blend: AUG-CC-PVTZ-JKFIT
	 Reference Energy          =    -443.5821367353232745 [Eh]
	 Singles Energy            =      -0.0000000000000000 [Eh]
	 Same-Spin Energy          =      -0.4393868447090122 [Eh]
	 Opposite-Spin Energy      =      -1.3508230983176885 [Eh]
	 Correlation Energy        =      -1.7902099430267007 [Eh]
	 Total Energy              =    -445.3723466783499703 [Eh]

	 ================> DF-SCS-MP2 Energies <==================
	-----------------------------------------------------------
	 SCS Same-Spin Scale       =       0.3333333333333333 [-]
	 SCS Opposite-Spin Scale   =       1.2000000000000000 [-]
	 SCS Same-Spin Energy      =      -0.1464622815696707 [Eh]
	 SCS Opposite-Spin Energy  =      -1.6209877179812262 [Eh]
	 SCS Correlation Energy    =      -1.7674499995508970 [Eh]
	 SCS Total Energy          =    -445.3495867348741513 [Eh]
	-----------------------------------------------------------

  Dipole Moment: [D]
     X:     0.4591      Y:    -2.4531      Z:    -0.1134     Total:     2.4982

*** Psi4 exiting successfully. Buy a developer a beer!
