                               Psi4 1.3.2 release

  ==> Input File <==

--------------------------------------------------------------------------
#psi4
#
memory 32 gb

molecule  {
0 1
  F       -0.0963580     2.2498010    -0.0002150
  O        1.7683730     0.3991100    -0.0000070
  C        0.4770520    -0.0443510     0.0000100
  C       -0.5052370     0.9594120    -0.0001040
  C        0.0593160    -1.3782164     0.0501240
  C       -1.8569270     0.6655340    -0.0001050
  C       -1.3077240    -1.6845900     0.0001240
  C       -2.2644630    -0.6734790     0.0000110
  C        2.7793550    -0.6059020     0.0001420
  H        0.7856920    -2.1838160     0.0002110
  H       -2.5691860     1.4853780    -0.0001950
  H       -1.6154480    -2.7269510     0.0002140
  H       -3.3233590    -0.9156310     0.0000120
  H        2.7155550    -1.2340820    -0.8948950
  H        2.7154750    -1.2338950     0.8953060
  H        3.7232780    -0.0625150     0.0001270
units angstrom
no_reorient  #important for SAPT in psi4, default
symmetry c1  #important for SAPT in psi4, default
}

set PROPERTIES_ORIGIN ["COM"]
properties('MP2/aug-cc-pvtz', properties = ['dipole'])
--------------------------------------------------------------------------

    Molecular point group: c1
  Charge       = 0
  Multiplicity = 1
  Basis Set: AUG-CC-PVTZ
    Blend: AUG-CC-PVTZ
  Basis Set: (AUG-CC-PVTZ AUX)
    Blend: AUG-CC-PVTZ-JKFIT

    Orbital Energies [Eh]
    ---------------------

    Doubly Occupied:

       1A    -26.302135     2A    -20.594711     3A    -11.323288
       4A    -11.313344     5A    -11.290994     6A    -11.248694
       7A    -11.247827     8A    -11.246650     9A    -11.242323
      10A     -1.616114    11A     -1.415375    12A     -1.158175
      13A     -1.029082    14A     -1.026649    15A     -0.950424
      16A     -0.848828    17A     -0.830899    18A     -0.745387
      19A     -0.709313    20A     -0.705294    21A     -0.689259
      22A     -0.656271    23A     -0.642028    24A     -0.628450
      25A     -0.620983    26A     -0.580967    27A     -0.548154
      28A     -0.530376    29A     -0.519242    30A     -0.502115
      31A     -0.477609    32A     -0.348083    33A     -0.320807

  @DF-RHF Final Energy:  -443.58800046667949

   => Energetics <=

    Nuclear Repulsion Energy =            430.8272279206487951
    One-Electron Energy =               -1461.0107582701123192
    Two-Electron Energy =                 586.5955298827841489
    Total Energy =                       -443.5880004666794321
  Basis Set: (AUG-CC-PVTZ AUX)
    Blend: AUG-CC-PVTZ-RI
    Molecular point group: c1

    Geometry (in Angstrom), charge = 0, multiplicity = 1:

       Center              X                  Y                   Z               Mass
    ------------   -----------------  -----------------  -----------------  -----------------
         F           -0.076380137677     2.177908074144    -0.004967261364    18.998403162730
         O            1.788350862323     0.327217074144    -0.004759261364    15.994914619570
         C            0.497029862323    -0.116243925856    -0.004742261364    12.000000000000
         C           -0.485259137677     0.887519074144    -0.004856261364    12.000000000000
         C            0.079293862323    -1.450109325856     0.045371738636    12.000000000000
         C           -1.836949137677     0.593641074144    -0.004857261364    12.000000000000
         C           -1.287746137677    -1.756482925856    -0.004628261364    12.000000000000
         C           -2.244485137677    -0.745371925856    -0.004741261364    12.000000000000
         C            2.799332862323    -0.677794925856    -0.004610261364    12.000000000000
         H            0.805669862323    -2.255708925856    -0.004541261364     1.007825032230
         H           -2.549208137677     1.413485074144    -0.004947261364     1.007825032230
         H           -1.595470137677    -2.798843925856    -0.004538261364     1.007825032230
         H           -3.303381137677    -0.987523925856    -0.004740261364     1.007825032230
         H            2.735532862323    -1.305974925856    -0.899647261364     1.007825032230
         H            2.735452862323    -1.305787925856     0.890553738636     1.007825032230
         H            3.743255862323    -0.134407925856    -0.004625261364     1.007825032230

  Basis Set: AUG-CC-PVTZ
    Blend: AUG-CC-PVTZ
  Basis Set: (AUG-CC-PVTZ AUX)
    Blend: AUG-CC-PVTZ-JKFIT
	 Reference Energy          =    -443.5880004666794889 [Eh]
	 Singles Energy            =      -0.0000000000000000 [Eh]
	 Same-Spin Energy          =      -0.4390739736441236 [Eh]
	 Opposite-Spin Energy      =      -1.3499412416495944 [Eh]
	 Correlation Energy        =      -1.7890152152937180 [Eh]
	 Total Energy              =    -445.3770156819732051 [Eh]

	 ================> DF-SCS-MP2 Energies <==================
	-----------------------------------------------------------
	 SCS Same-Spin Scale       =       0.3333333333333333 [-]
	 SCS Opposite-Spin Scale   =       1.2000000000000000 [-]
	 SCS Same-Spin Energy      =      -0.1463579912147079 [Eh]
	 SCS Opposite-Spin Energy  =      -1.6199294899795131 [Eh]
	 SCS Correlation Energy    =      -1.7662874811942211 [Eh]
	 SCS Total Energy          =    -445.3542879478737291 [Eh]
	-----------------------------------------------------------

  Dipole Moment: [D]
     X:     0.4800      Y:    -2.4909      Z:    -0.0372     Total:     2.5370

*** Psi4 exiting successfully. Buy a developer a beer!
