                               Psi4 1.3.2 release

  ==> Input File <==

--------------------------------------------------------------------------
#psi4
#
memory 32 gb

molecule  {
0 1
  F       -0.0963580     2.2498010    -0.0002150
  O        1.7683730     0.3991100    -0.0000070
  C        0.4770520    -0.0443510     0.0000100
  C       -0.5052370     0.9594120    -0.0001040
  C        0.0593130    -1.3782024     0.2001240
  C       -1.8569270     0.6655340    -0.0001050
  C       -1.3077240    -1.6845900     0.0001240
  C       -2.2644630    -0.6734790     0.0000110
  C        2.7793550    -0.6059020     0.0001420
  H        0.7856920    -2.1838160     0.0002110
  H       -2.5691860     1.4853780    -0.0001950
  H       -1.6154480    -2.7269510     0.0002140
  H       -3.3233590    -0.9156310     0.0000120
  H        2.7155550    -1.2340820    -0.8948950
  H        2.7154750    -1.2338950     0.8953060
  H        3.7232780    -0.0625150     0.0001270
units angstrom
no_reorient  #important for SAPT in psi4, default
symmetry c1  #important for SAPT in psi4, default
}

set PROPERTIES_ORIGIN ["COM"]
properties('MP2/aug-cc-pvtz', properties = ['dipole'])
--------------------------------------------------------------------------

    Molecular point group: c1
  Charge       = 0
  Multiplicity = 1
  Basis Set: AUG-CC-PVTZ
    Blend: AUG-CC-PVTZ
  Basis Set: (AUG-CC-PVTZ AUX)
    Blend: AUG-CC-PVTZ-JKFIT

    Orbital Energies [Eh]
    ---------------------

    Doubly Occupied:

       1A    -26.302201     2A    -20.595712     3A    -11.323193
       4A    -11.316417     5A    -11.290894     6A    -11.250634
       7A    -11.250557     8A    -11.249448     9A    -11.242173
      10A     -1.616256    11A     -1.416054    12A     -1.157063
      13A     -1.028482    14A     -1.025366    15A     -0.950186
      16A     -0.848096    17A     -0.829356    18A     -0.744127
      19A     -0.708945    20A     -0.704451    21A     -0.689268
      22A     -0.656409    23A     -0.641725    24A     -0.628269
      25A     -0.616192    26A     -0.579543    27A     -0.548186
      28A     -0.530704    29A     -0.517756    30A     -0.499241
      31A     -0.476559    32A     -0.348285    33A     -0.320367

  @DF-RHF Final Energy:  -443.57694670489866

   => Energetics <=

    Nuclear Repulsion Energy =            430.3870487536678411
    One-Electron Energy =               -1460.1237624887971833
    Two-Electron Energy =                 586.1597670302306824
    Total Energy =                       -443.5769467048986598
  Basis Set: (AUG-CC-PVTZ AUX)
    Blend: AUG-CC-PVTZ-RI
    Molecular point group: c1

    Geometry (in Angstrom), charge = 0, multiplicity = 1:

       Center              X                  Y                   Z               Mass
    ------------   -----------------  -----------------  -----------------  -----------------
         F           -0.076379852071     2.177906741320    -0.019247525008    18.998403162730
         O            1.788351147929     0.327215741320    -0.019039525008    15.994914619570
         C            0.497030147929    -0.116245258680    -0.019022525008    12.000000000000
         C           -0.485258852071     0.887517741320    -0.019136525008    12.000000000000
         C            0.079291147929    -1.450096658680     0.181091474992    12.000000000000
         C           -1.836948852071     0.593639741320    -0.019137525008    12.000000000000
         C           -1.287745852071    -1.756484258680    -0.018908525008    12.000000000000
         C           -2.244484852071    -0.745373258680    -0.019021525008    12.000000000000
         C            2.799333147929    -0.677796258680    -0.018890525008    12.000000000000
         H            0.805670147929    -2.255710258680    -0.018821525008     1.007825032230
         H           -2.549207852071     1.413483741320    -0.019227525008     1.007825032230
         H           -1.595469852071    -2.798845258680    -0.018818525008     1.007825032230
         H           -3.303380852071    -0.987525258680    -0.019020525008     1.007825032230
         H            2.735533147929    -1.305976258680    -0.913927525008     1.007825032230
         H            2.735453147929    -1.305789258680     0.876273474992     1.007825032230
         H            3.743256147929    -0.134409258680    -0.018905525008     1.007825032230

  Basis Set: AUG-CC-PVTZ
    Blend: AUG-CC-PVTZ
  Basis Set: (AUG-CC-PVTZ AUX)
    Blend: AUG-CC-PVTZ-JKFIT
	 Reference Energy          =    -443.5769467048986598 [Eh]
	 Singles Energy            =      -0.0000000000000000 [Eh]
	 Same-Spin Energy          =      -0.4396511486214689 [Eh]
	 Opposite-Spin Energy      =      -1.3516462597107526 [Eh]
	 Correlation Energy        =      -1.7912974083322215 [Eh]
	 Total Energy              =    -445.3682441132309009 [Eh]

	 ================> DF-SCS-MP2 Energies <==================
	-----------------------------------------------------------
	 SCS Same-Spin Scale       =       0.3333333333333333 [-]
	 SCS Opposite-Spin Scale   =       1.2000000000000000 [-]
	 SCS Same-Spin Energy      =      -0.1465503828738230 [Eh]
	 SCS Opposite-Spin Energy  =      -1.6219755116529031 [Eh]
	 SCS Correlation Energy    =      -1.7685258945267261 [Eh]
	 SCS Total Energy          =    -445.3454725994253636 [Eh]
	-----------------------------------------------------------

  Dipole Moment: [D]
     X:     0.4414      Y:    -2.4205      Z:    -0.1526     Total:     2.4651

*** Psi4 exiting successfully. Buy a developer a beer!
