                               Psi4 1.3.2 release

  ==> Input File <==

--------------------------------------------------------------------------
#psi4
#
memory 32 gb

molecule  {
0 1
  F       -0.0963580     2.2498010    -0.0002150
  O        1.7683730     0.3991100    -0.0000070
  C        0.4770520    -0.0443510     0.0000100
  C       -0.5052370     0.9594120    -0.0001040
  C        0.0593170    -1.3782210     0.0001240
  C       -1.8569270     0.6655340    -0.0001050
  C       -1.3077240    -1.6845900     0.0001240
  C       -2.2644630    -0.6734790     0.0000110
  C        2.7793550    -0.6059020     0.0001420
  H        0.7856920    -2.1838160     0.0002110
  H       -2.5691860     1.4853780    -0.0001950
  H       -1.6154480    -2.7269510     0.0002140
  H       -3.3233590    -0.9156310     0.0000120
  H        2.7155550    -1.2340820    -0.8948950
  H        2.7154750    -1.2338950     0.8953060
  H        3.7232780    -0.0625150     0.0001270
units angstrom
no_reorient  #important for SAPT in psi4, default
symmetry c1  #important for SAPT in psi4, default
}

set PROPERTIES_ORIGIN ["COM"]
properties('MP2/aug-cc-pvtz', properties = ['dipole'])
--------------------------------------------------------------------------

    Molecular point group: c1
  Charge       = 0
  Multiplicity = 1
  Basis Set: AUG-CC-PVTZ
    Blend: AUG-CC-PVTZ
  Basis Set: (AUG-CC-PVTZ AUX)
    Blend: AUG-CC-PVTZ-JKFIT

    Orbital Energies [Eh]
    ---------------------

    Doubly Occupied:

       1A    -26.302140     2A    -20.594651     3A    -11.323307
       4A    -11.313144     5A    -11.291004     6A    -11.248575
       7A    -11.247651     8A    -11.246470     9A    -11.242342
      10A     -1.616112    11A     -1.415336    12A     -1.158262
      13A     -1.029153    14A     -1.026722    15A     -0.950445
      16A     -0.848889    17A     -0.831015    18A     -0.745489
      19A     -0.709369    20A     -0.705341    21A     -0.689265
      22A     -0.656266    23A     -0.642060    24A     -0.628470
      25A     -0.621321    26A     -0.581070    27A     -0.548155
      28A     -0.530351    29A     -0.519358    30A     -0.502303
      31A     -0.477681    32A     -0.348081    33A     -0.320846

  @DF-RHF Final Energy:  -443.58872364217132

   => Energetics <=

    Nuclear Repulsion Energy =            430.8569514729088610
    One-Electron Energy =               -1461.0700629535720054
    Two-Electron Energy =                 586.6243878384918844
    Total Energy =                       -443.5887236421713169
  Basis Set: (AUG-CC-PVTZ AUX)
    Blend: AUG-CC-PVTZ-RI
    Molecular point group: c1

    Geometry (in Angstrom), charge = 0, multiplicity = 1:

       Center              X                  Y                   Z               Mass
    ------------   -----------------  -----------------  -----------------  -----------------
         F           -0.076380232878     2.177908512072    -0.000207173483    18.998403162730
         O            1.788350767122     0.327217512072     0.000000826517    15.994914619570
         C            0.497029767122    -0.116243487928     0.000017826517    12.000000000000
         C           -0.485259232878     0.887519512072    -0.000096173483    12.000000000000
         C            0.079294767122    -1.450113487928     0.000131826517    12.000000000000
         C           -1.836949232878     0.593641512072    -0.000097173483    12.000000000000
         C           -1.287746232878    -1.756482487928     0.000131826517    12.000000000000
         C           -2.244485232878    -0.745371487928     0.000018826517    12.000000000000
         C            2.799332767122    -0.677794487928     0.000149826517    12.000000000000
         H            0.805669767122    -2.255708487928     0.000218826517     1.007825032230
         H           -2.549208232878     1.413485512072    -0.000187173483     1.007825032230
         H           -1.595470232878    -2.798843487928     0.000221826517     1.007825032230
         H           -3.303381232878    -0.987523487928     0.000019826517     1.007825032230
         H            2.735532767122    -1.305974487928    -0.894887173483     1.007825032230
         H            2.735452767122    -1.305787487928     0.895313826517     1.007825032230
         H            3.743255767122    -0.134407487928     0.000134826517     1.007825032230

  Basis Set: AUG-CC-PVTZ
    Blend: AUG-CC-PVTZ
  Basis Set: (AUG-CC-PVTZ AUX)
    Blend: AUG-CC-PVTZ-JKFIT
	 Reference Energy          =    -443.5887236421713169 [Eh]
	 Singles Energy            =      -0.0000000000000000 [Eh]
	 Same-Spin Energy          =      -0.4390316155399970 [Eh]
	 Opposite-Spin Energy      =      -1.3498612197223085 [Eh]
	 Correlation Energy        =      -1.7888928352623057 [Eh]
	 Total Energy              =    -445.3776164774336053 [Eh]

	 ================> DF-SCS-MP2 Energies <==================
	-----------------------------------------------------------
	 SCS Same-Spin Scale       =       0.3333333333333333 [-]
	 SCS Opposite-Spin Scale   =       1.2000000000000000 [-]
	 SCS Same-Spin Energy      =      -0.1463438718466657 [Eh]
	 SCS Opposite-Spin Energy  =      -1.6198334636667702 [Eh]
	 SCS Correlation Energy    =      -1.7661773355134358 [Eh]
	 SCS Total Energy          =    -445.3549009776847356 [Eh]
	-----------------------------------------------------------

  Dipole Moment: [D]
     X:     0.4827      Y:    -2.4958      Z:     0.0003     Total:     2.5421

*** Psi4 exiting successfully. Buy a developer a beer!
