                               Psi4 1.3.2 release

  ==> Input File <==

--------------------------------------------------------------------------
#psi4
#
memory 32 gb

molecule  {
0 1
  F       -0.0963580     2.2498010    -0.0002150
  O        1.7683730     0.3991100    -0.0000070
  C        0.4770520    -0.0443510     0.0000100
  C       -0.5052370     0.9594120    -0.0001040
  C        0.0593120    -1.3781978     0.2501240
  C       -1.8569270     0.6655340    -0.0001050
  C       -1.3077240    -1.6845900     0.0001240
  C       -2.2644630    -0.6734790     0.0000110
  C        2.7793550    -0.6059020     0.0001420
  H        0.7856920    -2.1838160     0.0002110
  H       -2.5691860     1.4853780    -0.0001950
  H       -1.6154480    -2.7269510     0.0002140
  H       -3.3233590    -0.9156310     0.0000120
  H        2.7155550    -1.2340820    -0.8948950
  H        2.7154750    -1.2338950     0.8953060
  H        3.7232780    -0.0625150     0.0001270
units angstrom
no_reorient  #important for SAPT in psi4, default
symmetry c1  #important for SAPT in psi4, default
}

set PROPERTIES_ORIGIN ["COM"]
properties('MP2/aug-cc-pvtz', properties = ['dipole'])
--------------------------------------------------------------------------

    Molecular point group: c1
  Charge       = 0
  Multiplicity = 1
  Basis Set: AUG-CC-PVTZ
    Blend: AUG-CC-PVTZ
  Basis Set: (AUG-CC-PVTZ AUX)
    Blend: AUG-CC-PVTZ-JKFIT

    Orbital Energies [Eh]
    ---------------------

    Doubly Occupied:

       1A    -26.302270     2A    -20.596320     3A    -11.323183
       4A    -11.318205     5A    -11.290840     6A    -11.252154
       7A    -11.251819     8A    -11.251080     9A    -11.242108
      10A     -1.616367    11A     -1.416467    12A     -1.156455
      13A     -1.028343    14A     -1.024404    15A     -0.950045
      16A     -0.847714    17A     -0.828510    18A     -0.743510
      19A     -0.708965    20A     -0.703821    21A     -0.689294
      22A     -0.656493    23A     -0.641599    24A     -0.628184
      25A     -0.613494    26A     -0.578727    27A     -0.548159
      28A     -0.530840    29A     -0.516959    30A     -0.497399
      31A     -0.475917    32A     -0.348467    33A     -0.320144

  @DF-RHF Final Energy:  -443.57021239195075

   => Energetics <=

    Nuclear Repulsion Energy =            430.1279168997774605
    One-Electron Energy =               -1459.5997519243317129
    Two-Electron Energy =                 585.9016226326035621
    Total Energy =                       -443.5702123919508040
  Basis Set: (AUG-CC-PVTZ AUX)
    Blend: AUG-CC-PVTZ-RI
    Molecular point group: c1

    Geometry (in Angstrom), charge = 0, multiplicity = 1:

       Center              X                  Y                   Z               Mass
    ------------   -----------------  -----------------  -----------------  -----------------
         F           -0.076379756870     2.177906303392    -0.024007612890    18.998403162730
         O            1.788351243130     0.327215303392    -0.023799612890    15.994914619570
         C            0.497030243130    -0.116245696608    -0.023782612890    12.000000000000
         C           -0.485258756870     0.887517303392    -0.023896612890    12.000000000000
         C            0.079290243130    -1.450092496608     0.226331387110    12.000000000000
         C           -1.836948756870     0.593639303392    -0.023897612890    12.000000000000
         C           -1.287745756870    -1.756484696608    -0.023668612890    12.000000000000
         C           -2.244484756870    -0.745373696608    -0.023781612890    12.000000000000
         C            2.799333243130    -0.677796696608    -0.023650612890    12.000000000000
         H            0.805670243130    -2.255710696608    -0.023581612890     1.007825032230
         H           -2.549207756870     1.413483303392    -0.023987612890     1.007825032230
         H           -1.595469756870    -2.798845696608    -0.023578612890     1.007825032230
         H           -3.303380756870    -0.987525696608    -0.023780612890     1.007825032230
         H            2.735533243130    -1.305976696608    -0.918687612890     1.007825032230
         H            2.735453243130    -1.305789696608     0.871513387110     1.007825032230
         H            3.743256243130    -0.134409696608    -0.023665612890     1.007825032230

  Basis Set: AUG-CC-PVTZ
    Blend: AUG-CC-PVTZ
  Basis Set: (AUG-CC-PVTZ AUX)
    Blend: AUG-CC-PVTZ-JKFIT
	 Reference Energy          =    -443.5702123919507471 [Eh]
	 Singles Energy            =      -0.0000000000000000 [Eh]
	 Same-Spin Energy          =      -0.4399817756658037 [Eh]
	 Opposite-Spin Energy      =      -1.3527011042111907 [Eh]
	 Correlation Energy        =      -1.7926828798769945 [Eh]
	 Total Energy              =    -445.3628952718277674 [Eh]

	 ================> DF-SCS-MP2 Energies <==================
	-----------------------------------------------------------
	 SCS Same-Spin Scale       =       0.3333333333333333 [-]
	 SCS Opposite-Spin Scale   =       1.2000000000000000 [-]
	 SCS Same-Spin Energy      =      -0.1466605918886012 [Eh]
	 SCS Opposite-Spin Energy  =      -1.6232413250534288 [Eh]
	 SCS Correlation Energy    =      -1.7699019169420300 [Eh]
	 SCS Total Energy          =    -445.3401143088927938 [Eh]
	-----------------------------------------------------------

  Dipole Moment: [D]
     X:     0.4190      Y:    -2.3790      Z:    -0.1927     Total:     2.4233

*** Psi4 exiting successfully. Buy a developer a beer!
