                               Psi4 1.3.2 release

  ==> Input File <==

--------------------------------------------------------------------------
#psi4
#
memory 32 gb

molecule  {
0 1
  F       -0.0963580     2.2498010    -0.0002150
  O        1.7683730     0.3991100    -0.0000070
  C        0.4770520    -0.0443510     0.0000100
  C       -0.5052370     0.9594120    -0.0001040
  C        0.0593150    -1.3782117     0.1001240
  C       -1.8569270     0.6655340    -0.0001050
  C       -1.3077240    -1.6845900     0.0001240
  C       -2.2644630    -0.6734790     0.0000110
  C        2.7793550    -0.6059020     0.0001420
  H        0.7856920    -2.1838160     0.0002110
  H       -2.5691860     1.4853780    -0.0001950
  H       -1.6154480    -2.7269510     0.0002140
  H       -3.3233590    -0.9156310     0.0000120
  H        2.7155550    -1.2340820    -0.8948950
  H        2.7154750    -1.2338950     0.8953060
  H        3.7232780    -0.0625150     0.0001270
units angstrom
no_reorient  #important for SAPT in psi4, default
symmetry c1  #important for SAPT in psi4, default
}

set PROPERTIES_ORIGIN ["COM"]
properties('MP2/aug-cc-pvtz', properties = ['dipole'])
--------------------------------------------------------------------------

    Molecular point group: c1
  Charge       = 0
  Multiplicity = 1
  Basis Set: AUG-CC-PVTZ
    Blend: AUG-CC-PVTZ
  Basis Set: (AUG-CC-PVTZ AUX)
    Blend: AUG-CC-PVTZ-JKFIT

    Orbital Energies [Eh]
    ---------------------

    Doubly Occupied:

       1A    -26.302138     2A    -20.594906     3A    -11.323255
       4A    -11.313961     5A    -11.290971     6A    -11.249070
       7A    -11.248375     8A    -11.247210     9A    -11.242284
      10A     -1.616133    11A     -1.415506    12A     -1.157936
      13A     -1.028906    14A     -1.026432    15A     -0.950372
      16A     -0.848665    17A     -0.830572    18A     -0.745104
      19A     -0.709182    20A     -0.705154    21A     -0.689254
      22A     -0.656295    23A     -0.641951    24A     -0.628405
      25A     -0.619993    26A     -0.580672    27A     -0.548163
      28A     -0.530452    29A     -0.518918    30A     -0.501559
      31A     -0.477398    32A     -0.348108    33A     -0.320706

  @DF-RHF Final Energy:  -443.58581265681937

   => Energetics <=

    Nuclear Repulsion Energy =            430.7383444100059364
    One-Electron Energy =               -1460.8323039926347064
    Two-Electron Energy =                 586.5081469258093421
    Total Energy =                       -443.5858126568193711
  Basis Set: (AUG-CC-PVTZ AUX)
    Blend: AUG-CC-PVTZ-RI
    Molecular point group: c1

    Geometry (in Angstrom), charge = 0, multiplicity = 1:

       Center              X                  Y                   Z               Mass
    ------------   -----------------  -----------------  -----------------  -----------------
         F           -0.076380042475     2.177907626696    -0.009727349246    18.998403162730
         O            1.788350957525     0.327216626696    -0.009519349246    15.994914619570
         C            0.497029957525    -0.116244373304    -0.009502349246    12.000000000000
         C           -0.485259042475     0.887518626696    -0.009616349246    12.000000000000
         C            0.079292957525    -1.450105073304     0.090611650754    12.000000000000
         C           -1.836949042475     0.593640626696    -0.009617349246    12.000000000000
         C           -1.287746042475    -1.756483373304    -0.009388349246    12.000000000000
         C           -2.244485042475    -0.745372373304    -0.009501349246    12.000000000000
         C            2.799332957525    -0.677795373304    -0.009370349246    12.000000000000
         H            0.805669957525    -2.255709373304    -0.009301349246     1.007825032230
         H           -2.549208042475     1.413484626696    -0.009707349246     1.007825032230
         H           -1.595470042475    -2.798844373304    -0.009298349246     1.007825032230
         H           -3.303381042475    -0.987524373304    -0.009500349246     1.007825032230
         H            2.735532957525    -1.305975373304    -0.904407349246     1.007825032230
         H            2.735452957525    -1.305788373304     0.885793650754     1.007825032230
         H            3.743255957525    -0.134408373304    -0.009385349246     1.007825032230

  Basis Set: AUG-CC-PVTZ
    Blend: AUG-CC-PVTZ
  Basis Set: (AUG-CC-PVTZ AUX)
    Blend: AUG-CC-PVTZ-JKFIT
	 Reference Energy          =    -443.5858126568193711 [Eh]
	 Singles Energy            =      -0.0000000000000000 [Eh]
	 Same-Spin Energy          =      -0.4391935967911310 [Eh]
	 Opposite-Spin Energy      =      -1.3502500802305804 [Eh]
	 Correlation Energy        =      -1.7894436770217115 [Eh]
	 Total Energy              =    -445.3752563338410937 [Eh]

	 ================> DF-SCS-MP2 Energies <==================
	-----------------------------------------------------------
	 SCS Same-Spin Scale       =       0.3333333333333333 [-]
	 SCS Opposite-Spin Scale   =       1.2000000000000000 [-]
	 SCS Same-Spin Energy      =      -0.1463978655970437 [Eh]
	 SCS Opposite-Spin Energy  =      -1.6203000962766965 [Eh]
	 SCS Correlation Energy    =      -1.7666979618737402 [Eh]
	 SCS Total Energy          =    -445.3525106186930884 [Eh]
	-----------------------------------------------------------

  Dipole Moment: [D]
     X:     0.4721      Y:    -2.4766      Z:    -0.0750     Total:     2.5223

*** Psi4 exiting successfully. Buy a developer a beer!
