                               Psi4 1.3.2 release

  ==> Input File <==

--------------------------------------------------------------------------
#psi4
#
memory 32 gb

molecule  {
0 1
  F       -0.0963580     2.2498010    -0.0002150
  O        1.7683730     0.3991100    -0.0000070
  C        0.4770520    -0.0443510     0.0000100
  C       -0.5052370     0.9594120    -0.0001040
  C        0.0593170    -1.3782210     0.0001240
  C       -1.8569249     0.6655247    -0.1001050
  C       -1.3077240    -1.6845900     0.0001240
  C       -2.2644630    -0.6734790     0.0000110
  C        2.7793550    -0.6059020     0.0001420
  H        0.7856920    -2.1838160     0.0002110
  H       -2.5691860     1.4853780    -0.0001950
  H       -1.6154480    -2.7269510     0.0002140
  H       -3.3233590    -0.9156310     0.0000120
  H        2.7155550    -1.2340820    -0.8948950
  H        2.7154750    -1.2338950     0.8953060
  H        3.7232780    -0.0625150     0.0001270
units angstrom
no_reorient  #important for SAPT in psi4, default
symmetry c1  #important for SAPT in psi4, default
}

set PROPERTIES_ORIGIN ["COM"]
properties('MP2/aug-cc-pvtz', properties = ['dipole'])
--------------------------------------------------------------------------

    Molecular point group: c1
  Charge       = 0
  Multiplicity = 1
  Basis Set: AUG-CC-PVTZ
    Blend: AUG-CC-PVTZ
  Basis Set: (AUG-CC-PVTZ AUX)
    Blend: AUG-CC-PVTZ-JKFIT

    Orbital Energies [Eh]
    ---------------------

    Doubly Occupied:

       1A    -26.302357     2A    -20.594664     3A    -11.324212
       4A    -11.313098     5A    -11.291073     6A    -11.249424
       7A    -11.247958     8A    -11.246573     9A    -11.243102
      10A     -1.616311    11A     -1.415375    12A     -1.157895
      13A     -1.028853    14A     -1.026511    15A     -0.950390
      16A     -0.848763    17A     -0.830581    18A     -0.745395
      19A     -0.709086    20A     -0.705242    21A     -0.689298
      22A     -0.656346    23A     -0.641700    24A     -0.628450
      25A     -0.620192    26A     -0.580794    27A     -0.547790
      28A     -0.530242    29A     -0.518871    30A     -0.502224
      31A     -0.477276    32A     -0.348085    33A     -0.320618

  @DF-RHF Final Energy:  -443.58570285662199

   => Energetics <=

    Nuclear Repulsion Energy =            430.7397270392871178
    One-Electron Energy =               -1460.8333655974288376
    Two-Electron Energy =                 586.5079357015197274
    Total Energy =                       -443.5857028566219924
  Basis Set: (AUG-CC-PVTZ AUX)
    Blend: AUG-CC-PVTZ-RI
    Molecular point group: c1

    Geometry (in Angstrom), charge = 0, multiplicity = 1:

       Center              X                  Y                   Z               Mass
    ------------   -----------------  -----------------  -----------------  -----------------
         F           -0.076380432802     2.177909397449     0.009313002280    18.998403162730
         O            1.788350567198     0.327218397449     0.009521002280    15.994914619570
         C            0.497029567198    -0.116242602551     0.009538002280    12.000000000000
         C           -0.485259432802     0.887520397449     0.009424002280    12.000000000000
         C            0.079294567198    -1.450112602551     0.009652002280    12.000000000000
         C           -1.836947332802     0.593633097449    -0.090576997720    12.000000000000
         C           -1.287746432802    -1.756481602551     0.009652002280    12.000000000000
         C           -2.244485432802    -0.745370602551     0.009539002280    12.000000000000
         C            2.799332567198    -0.677793602551     0.009670002280    12.000000000000
         H            0.805669567198    -2.255707602551     0.009739002280     1.007825032230
         H           -2.549208432802     1.413486397449     0.009333002280     1.007825032230
         H           -1.595470432802    -2.798842602551     0.009742002280     1.007825032230
         H           -3.303381432802    -0.987522602551     0.009540002280     1.007825032230
         H            2.735532567198    -1.305973602551    -0.885366997720     1.007825032230
         H            2.735452567198    -1.305786602551     0.904834002280     1.007825032230
         H            3.743255567198    -0.134406602551     0.009655002280     1.007825032230

  Basis Set: AUG-CC-PVTZ
    Blend: AUG-CC-PVTZ
  Basis Set: (AUG-CC-PVTZ AUX)
    Blend: AUG-CC-PVTZ-JKFIT
	 Reference Energy          =    -443.5857028566219924 [Eh]
	 Singles Energy            =      -0.0000000000000000 [Eh]
	 Same-Spin Energy          =      -0.4392179033927838 [Eh]
	 Opposite-Spin Energy      =      -1.3503357281444568 [Eh]
	 Correlation Energy        =      -1.7895536315372405 [Eh]
	 Total Energy              =    -445.3752564881592093 [Eh]

	 ================> DF-SCS-MP2 Energies <==================
	-----------------------------------------------------------
	 SCS Same-Spin Scale       =       0.3333333333333333 [-]
	 SCS Opposite-Spin Scale   =       1.2000000000000000 [-]
	 SCS Same-Spin Energy      =      -0.1464059677975946 [Eh]
	 SCS Opposite-Spin Energy  =      -1.6204028737733480 [Eh]
	 SCS Correlation Energy    =      -1.7668088415709426 [Eh]
	 SCS Total Energy          =    -445.3525116981929273 [Eh]
	-----------------------------------------------------------

  Dipole Moment: [D]
     X:     0.5018      Y:    -2.5098      Z:     0.0664     Total:     2.5603

*** Psi4 exiting successfully. Buy a developer a beer!
