                               Psi4 1.4a3.dev225

  ==> Input File <==

--------------------------------------------------------------------------
#psi4
#
memory 32 gb

molecule  {
0 1
  I        3.0501070    -0.1728260     0.0000000
  I       -3.0501070    -0.1728260     0.0000000
  C        0.0000000     0.1252550     0.0000010
  C        1.2422480     1.0065380     0.0000000
  C       -1.2256734     1.0282992    -0.0455859
  H        0.0000000    -0.5222500     0.8805730
  H        0.0000000    -0.5222520    -0.8805680
  H        1.2984770     1.6335130    -0.8904590
  H        1.2984780     1.6335140     0.8904580
  H       -1.2984780     1.6335130    -0.8904590
  H       -1.2984780     1.6335130     0.8904590
units angstrom
no_reorient  #important for SAPT in psi4, default
symmetry c1  #important for SAPT in psi4, default
}

set PROPERTIES_ORIGIN ["COM"]
properties('MP2/aug-cc-pvtz', properties = ['dipole'])
--------------------------------------------------------------------------

    Molecular point group: c1
  Charge       = 0
  Multiplicity = 1
  Basis Set: AUG-CC-PVTZ
    Blend: AUG-CC-PVTZ
  Basis Set: (AUG-CC-PVTZ AUX)
    Blend: AUG-CC-PVTZ-JKFIT + DEF2-UNIVERSAL-JKFIT

    Orbital Energies [Eh]
    ---------------------

    Doubly Occupied:

       1A    -11.299612     2A    -11.298966     3A    -11.263002
       4A     -7.717782     5A     -7.716009     6A     -5.549233
       7A     -5.547382     8A     -5.540011     9A     -5.539951
      10A     -5.538248    11A     -5.538193    12A     -2.278551
      13A     -2.276559    14A     -2.274066    15A     -2.274002
      16A     -2.272221    17A     -2.272166    18A     -2.263787
      19A     -2.263786    20A     -2.262042    21A     -2.262041
      22A     -1.110902    23A     -0.993374    24A     -0.894092
      25A     -0.832300    26A     -0.825461    27A     -0.686994
      28A     -0.610512    29A     -0.594310    30A     -0.572428
      31A     -0.523558    32A     -0.473032    33A     -0.429861
      34A     -0.371700    35A     -0.367917    36A     -0.365084
      37A     -0.361407

  @DF-RHF Final Energy:  -706.46344467312906

   => Energetics <=

    Nuclear Repulsion Energy =            332.0002254592341160
    One-Electron Energy =               -1846.4062576004780567
    Two-Electron Energy =                 807.9425874681148798
    Total Energy =                       -706.4634446731290609
  Basis Set: (AUG-CC-PVTZ AUX)
    Blend: AUG-CC-PVTZ-RI + DEF2-QZVPP-RI
    Molecular point group: c1

    Geometry (in Angstrom), charge = 0, multiplicity = 1:

       Center              X                  Y                   Z               Mass
    ------------   -----------------  -----------------  -----------------  -----------------
         I            3.049434732872    -0.130875944383     0.001848923005   126.904471900000
         I           -3.050779267128    -0.130875944383     0.001848923005   126.904471900000
         C           -0.000672267128     0.167205055617     0.001849923005    12.000000000000
         C            1.241575732872     1.048488055617     0.001848923005    12.000000000000
         C           -1.226345667128     1.070249255617    -0.043736976995    12.000000000000
         H           -0.000672267128    -0.480299944383     0.882421923005     1.007825032230
         H           -0.000672267128    -0.480301944383    -0.878719076995     1.007825032230
         H            1.297804732872     1.675463055617    -0.888610076995     1.007825032230
         H            1.297805732872     1.675464055617     0.892306923005     1.007825032230
         H           -1.299150267128     1.675463055617    -0.888610076995     1.007825032230
         H           -1.299150267128     1.675463055617     0.892307923005     1.007825032230

  Basis Set: AUG-CC-PVTZ
    Blend: AUG-CC-PVTZ
  Basis Set: (AUG-CC-PVTZ AUX)
    Blend: AUG-CC-PVTZ-JKFIT + DEF2-UNIVERSAL-JKFIT
	 Reference Energy          =    -706.4634446731290609 [Eh]
	 Singles Energy            =      -0.0000000000000000 [Eh]
	 Same-Spin Energy          =      -0.2801035732062353 [Eh]
	 Opposite-Spin Energy      =      -0.8104963898786264 [Eh]
	 Correlation Energy        =      -1.0905999630848617 [Eh]
	 Total Energy              =    -707.5540446362139164 [Eh]

	 ================> DF-SCS-MP2 Energies <==================
	-----------------------------------------------------------
	 SCS Same-Spin Scale       =       0.3333333333333333 [-]
	 SCS Opposite-Spin Scale   =       1.2000000000000000 [-]
	 SCS Same-Spin Energy      =      -0.0933678577354118 [Eh]
	 SCS Opposite-Spin Energy  =      -0.9725956678543516 [Eh]
	 SCS Correlation Energy    =      -1.0659635255897633 [Eh]
	 SCS Total Energy          =    -707.5294081987187838 [Eh]
	-----------------------------------------------------------

  Dipole Moment: [D]
     X:     0.0537      Y:     1.6019      Z:    -0.0098     Total:     1.6028

*** Psi4 exiting successfully. Buy a developer a beer!
