                               Psi4 1.4a3.dev225

  ==> Input File <==

--------------------------------------------------------------------------
#psi4
#
memory 32 gb

molecule  {
0 1
  I        3.0078465    -0.2352009     0.0000001
  I       -3.0501070    -0.1728260     0.0000000
  C        0.0000000     0.1252550     0.0000010
  C        1.2422480     1.0065380     0.0000000
  C       -1.2422490     1.0065380     0.0000000
  H        0.0000000    -0.5222500     0.8805730
  H        0.0000000    -0.5222520    -0.8805680
  H        1.2984770     1.6335130    -0.8904590
  H        1.2984780     1.6335140     0.8904580
  H       -1.2984780     1.6335130    -0.8904590
  H       -1.2984780     1.6335130     0.8904590
units angstrom
no_reorient  #important for SAPT in psi4, default
symmetry c1  #important for SAPT in psi4, default
}

set PROPERTIES_ORIGIN ["COM"]
properties('MP2/aug-cc-pvtz', properties = ['dipole'])
--------------------------------------------------------------------------

    Molecular point group: c1
  Charge       = 0
  Multiplicity = 1
  Basis Set: AUG-CC-PVTZ
    Blend: AUG-CC-PVTZ
  Basis Set: (AUG-CC-PVTZ AUX)
    Blend: AUG-CC-PVTZ-JKFIT + DEF2-UNIVERSAL-JKFIT

    Orbital Energies [Eh]
    ---------------------

    Doubly Occupied:

       1A    -11.298734     2A    -11.298071     3A    -11.261378
       4A     -7.717636     5A     -7.717271     6A     -5.549103
       7A     -5.548720     8A     -5.539845     9A     -5.539809
      10A     -5.539501    11A     -5.539442    12A     -2.278426
      13A     -2.278037    14A     -2.273922    15A     -2.273877
      16A     -2.273552    17A     -2.273490    18A     -2.263624
      19A     -2.263624    20A     -2.263277    21A     -2.263277
      22A     -1.109638    23A     -0.993655    24A     -0.894005
      25A     -0.831269    26A     -0.823632    27A     -0.684318
      28A     -0.602581    29A     -0.597187    30A     -0.569498
      31A     -0.521377    32A     -0.475415    33A     -0.433293
      34A     -0.372038    35A     -0.368182    36A     -0.365309
      37A     -0.361403

  @DF-RHF Final Energy:  -706.46566051091918

   => Energetics <=

    Nuclear Repulsion Energy =            333.1318949984479332
    One-Electron Energy =               -1848.6802813838428392
    Two-Electron Energy =                 809.0827258744757273
    Total Energy =                       -706.4656605109191787
  Basis Set: (AUG-CC-PVTZ AUX)
    Blend: AUG-CC-PVTZ-RI + DEF2-QZVPP-RI
    Molecular point group: c1

    Geometry (in Angstrom), charge = 0, multiplicity = 1:

       Center              X                  Y                   Z               Mass
    ------------   -----------------  -----------------  -----------------  -----------------
         I            3.025973769226    -0.165613104827     0.000000002920   126.904471900000
         I           -3.031979730774    -0.103238204827    -0.000000097080   126.904471900000
         C            0.018127269226     0.194842795173     0.000000902920    12.000000000000
         C            1.260375269226     1.076125795173    -0.000000097080    12.000000000000
         C           -1.224121730774     1.076125795173    -0.000000097080    12.000000000000
         H            0.018127269226    -0.452662204827     0.880572902920     1.007825032230
         H            0.018127269226    -0.452664204827    -0.880568097080     1.007825032230
         H            1.316604269226     1.703100795173    -0.890459097080     1.007825032230
         H            1.316605269226     1.703101795173     0.890457902920     1.007825032230
         H           -1.280350730774     1.703100795173    -0.890459097080     1.007825032230
         H           -1.280350730774     1.703100795173     0.890458902920     1.007825032230

  Basis Set: AUG-CC-PVTZ
    Blend: AUG-CC-PVTZ
  Basis Set: (AUG-CC-PVTZ AUX)
    Blend: AUG-CC-PVTZ-JKFIT + DEF2-UNIVERSAL-JKFIT
	 Reference Energy          =    -706.4656605109191787 [Eh]
	 Singles Energy            =      -0.0000000000000000 [Eh]
	 Same-Spin Energy          =      -0.2803312825609436 [Eh]
	 Opposite-Spin Energy      =      -0.8108095176278083 [Eh]
	 Correlation Energy        =      -1.0911408001887519 [Eh]
	 Total Energy              =    -707.5568013111079608 [Eh]

	 ================> DF-SCS-MP2 Energies <==================
	-----------------------------------------------------------
	 SCS Same-Spin Scale       =       0.3333333333333333 [-]
	 SCS Opposite-Spin Scale   =       1.2000000000000000 [-]
	 SCS Same-Spin Energy      =      -0.0934437608536479 [Eh]
	 SCS Opposite-Spin Energy  =      -0.9729714211533699 [Eh]
	 SCS Correlation Energy    =      -1.0664151820070178 [Eh]
	 SCS Total Energy          =    -707.5320756929262416 [Eh]
	-----------------------------------------------------------

  Dipole Moment: [D]
     X:     0.0399      Y:     1.6076      Z:     0.0000     Total:     1.6081

*** Psi4 exiting successfully. Buy a developer a beer!
