                               Psi4 1.4a3.dev225

  ==> Input File <==

--------------------------------------------------------------------------
#psi4
#
memory 32 gb

molecule  {
0 1
  I        3.0501070    -0.1728260     0.0000000
  I       -3.0501070    -0.1728260     0.0000000
  C        0.0000000     0.1252550     0.0000010
  C        1.2422480     1.0065380     0.0000000
  C       -1.2422490     1.0065380     0.0000000
  H        0.0000000    -0.5222500     0.8805730
  H        0.0000000    -0.5222520    -0.8805680
  H        1.2984770     1.6335130    -0.8904590
  H        1.3087908     1.7485034     1.0537708
  H       -1.2984780     1.6335130    -0.8904590
  H       -1.2984780     1.6335130     0.8904590
units angstrom
no_reorient  #important for SAPT in psi4, default
symmetry c1  #important for SAPT in psi4, default
}

set PROPERTIES_ORIGIN ["COM"]
properties('MP2/aug-cc-pvtz', properties = ['dipole'])
--------------------------------------------------------------------------

    Molecular point group: c1
  Charge       = 0
  Multiplicity = 1
  Basis Set: AUG-CC-PVTZ
    Blend: AUG-CC-PVTZ
  Basis Set: (AUG-CC-PVTZ AUX)
    Blend: AUG-CC-PVTZ-JKFIT + DEF2-UNIVERSAL-JKFIT

    Orbital Energies [Eh]
    ---------------------

    Doubly Occupied:

       1A    -11.318767     2A    -11.298351     3A    -11.263624
       4A     -7.718904     5A     -7.717488     6A     -5.550452
       7A     -5.548936     8A     -5.541072     9A     -5.541014
      10A     -5.539723    11A     -5.539657    12A     -2.279793
      13A     -2.278254    14A     -2.275237    15A     -2.275178
      16A     -2.273772    17A     -2.273704    18A     -2.264781
      19A     -2.264780    20A     -2.263497    21A     -2.263496
      22A     -1.106590    23A     -0.987662    24A     -0.895035
      25A     -0.829194    26A     -0.813205    27A     -0.677132
      28A     -0.599814    29A     -0.581908    30A     -0.566992
      31A     -0.513787    32A     -0.473767    33A     -0.433177
      34A     -0.372342    35A     -0.367961    36A     -0.364721
      37A     -0.362104

  @DF-RHF Final Energy:  -706.44496075104746

   => Energetics <=

    Nuclear Repulsion Energy =            331.3621054031120821
    One-Electron Energy =               -1845.1423856857772989
    Two-Electron Energy =                 807.3353195316177562
    Total Energy =                       -706.4449607510474607
  Basis Set: (AUG-CC-PVTZ AUX)
    Blend: AUG-CC-PVTZ-RI + DEF2-QZVPP-RI
    Molecular point group: c1

    Geometry (in Angstrom), charge = 0, multiplicity = 1:

       Center              X                  Y                   Z               Mass
    ------------   -----------------  -----------------  -----------------  -----------------
         I            3.050071913695    -0.130385012118    -0.000556374784   126.904471900000
         I           -3.050142086305    -0.130385012118    -0.000556374784   126.904471900000
         C           -0.000035086305     0.167695987882    -0.000555374784    12.000000000000
         C            1.242212913695     1.048978987882    -0.000556374784    12.000000000000
         C           -1.242284086305     1.048978987882    -0.000556374784    12.000000000000
         H           -0.000035086305    -0.479809012118     0.880016625216     1.007825032230
         H           -0.000035086305    -0.479811012118    -0.881124374784     1.007825032230
         H            1.298441913695     1.675953987882    -0.891015374784     1.007825032230
         H            1.308755713695     1.790944387882     1.053214425216     1.007825032230
         H           -1.298513086305     1.675953987882    -0.891015374784     1.007825032230
         H           -1.298513086305     1.675953987882     0.889902625216     1.007825032230

  Basis Set: AUG-CC-PVTZ
    Blend: AUG-CC-PVTZ
  Basis Set: (AUG-CC-PVTZ AUX)
    Blend: AUG-CC-PVTZ-JKFIT + DEF2-UNIVERSAL-JKFIT
	 Reference Energy          =    -706.4449607510474607 [Eh]
	 Singles Energy            =      -0.0000000000000000 [Eh]
	 Same-Spin Energy          =      -0.2806527678142984 [Eh]
	 Opposite-Spin Energy      =      -0.8127064595456108 [Eh]
	 Correlation Energy        =      -1.0933592273599091 [Eh]
	 Total Energy              =    -707.5383199784073440 [Eh]

	 ================> DF-SCS-MP2 Energies <==================
	-----------------------------------------------------------
	 SCS Same-Spin Scale       =       0.3333333333333333 [-]
	 SCS Opposite-Spin Scale   =       1.2000000000000000 [-]
	 SCS Same-Spin Energy      =      -0.0935509226047661 [Eh]
	 SCS Opposite-Spin Energy  =      -0.9752477514547330 [Eh]
	 SCS Correlation Energy    =      -1.0687986740594990 [Eh]
	 SCS Total Energy          =    -707.5137594251069686 [Eh]
	-----------------------------------------------------------

  Dipole Moment: [D]
     X:     0.0237      Y:     1.5111      Z:    -0.0292     Total:     1.5115

*** Psi4 exiting successfully. Buy a developer a beer!
