                               Psi4 1.4a3.dev225

  ==> Input File <==

--------------------------------------------------------------------------
#psi4
#
memory 32 gb

molecule  {
0 1
  I        3.0501070    -0.1728260     0.0000000
  I       -3.0501070    -0.1728260     0.0000000
  C        0.0000000     0.1252550     0.0000010
  C        1.2422480     1.0065380     0.0000000
  C       -1.2422490     1.0065380     0.0000000
  H        0.0000000    -0.5222500     0.8805730
  H        0.0000000    -0.5341002    -0.8966808
  H        1.2984770     1.6335130    -0.8904590
  H        1.2984780     1.6335140     0.8904580
  H       -1.2984780     1.6335130    -0.8904590
  H       -1.2984780     1.6335130     0.8904590
units angstrom
no_reorient  #important for SAPT in psi4, default
symmetry c1  #important for SAPT in psi4, default
}

set PROPERTIES_ORIGIN ["COM"]
properties('MP2/aug-cc-pvtz', properties = ['dipole'])
--------------------------------------------------------------------------

    Molecular point group: c1
  Charge       = 0
  Multiplicity = 1
  Basis Set: AUG-CC-PVTZ
    Blend: AUG-CC-PVTZ
  Basis Set: (AUG-CC-PVTZ AUX)
    Blend: AUG-CC-PVTZ-JKFIT + DEF2-UNIVERSAL-JKFIT

    Orbital Energies [Eh]
    ---------------------

    Doubly Occupied:

       1A    -11.298668     2A    -11.298668     3A    -11.264135
       4A     -7.717601     5A     -7.717601     6A     -5.549063
       7A     -5.549062     8A     -5.539824     9A     -5.539823
      10A     -5.539765    11A     -5.539764    12A     -2.278383
      13A     -2.278380    14A     -2.273889    15A     -2.273887
      16A     -2.273828    17A     -2.273826    18A     -2.263592
      19A     -2.263592    20A     -2.263591    21A     -2.263591
      22A     -1.108771    23A     -0.993799    24A     -0.894508
      25A     -0.831157    26A     -0.821678    27A     -0.683261
      28A     -0.602791    29A     -0.597013    30A     -0.569203
      31A     -0.519587    32A     -0.474736    33A     -0.433767
      34A     -0.372078    35A     -0.368134    36A     -0.365302
      37A     -0.361878

  @DF-RHF Final Energy:  -706.46545650729081

   => Energetics <=

    Nuclear Repulsion Energy =            332.1838436532319747
    One-Electron Energy =               -1846.7822035610179228
    Two-Electron Energy =                 808.1329034004950245
    Total Energy =                       -706.4654565072908099
  Basis Set: (AUG-CC-PVTZ AUX)
    Blend: AUG-CC-PVTZ-RI + DEF2-QZVPP-RI
    Molecular point group: c1

    Geometry (in Angstrom), charge = 0, multiplicity = 1:

       Center              X                  Y                   Z               Mass
    ------------   -----------------  -----------------  -----------------  -----------------
         I            3.050107043967    -0.129952943293     0.000054833627   126.904471900000
         I           -3.050106956033    -0.129952943293     0.000054833627   126.904471900000
         C            0.000000043967     0.168128056707     0.000055833627    12.000000000000
         C            1.242248043967     1.049411056707     0.000054833627    12.000000000000
         C           -1.242248956033     1.049411056707     0.000054833627    12.000000000000
         H            0.000000043967    -0.479376943293     0.880627833627     1.007825032230
         H            0.000000043967    -0.491227143293    -0.896625966373     1.007825032230
         H            1.298477043967     1.676386056707    -0.890404166373     1.007825032230
         H            1.298478043967     1.676387056707     0.890512833627     1.007825032230
         H           -1.298477956033     1.676386056707    -0.890404166373     1.007825032230
         H           -1.298477956033     1.676386056707     0.890513833627     1.007825032230

  Basis Set: AUG-CC-PVTZ
    Blend: AUG-CC-PVTZ
  Basis Set: (AUG-CC-PVTZ AUX)
    Blend: AUG-CC-PVTZ-JKFIT + DEF2-UNIVERSAL-JKFIT
	 Reference Energy          =    -706.4654565072908099 [Eh]
	 Singles Energy            =      -0.0000000000000000 [Eh]
	 Same-Spin Energy          =      -0.2802526779438050 [Eh]
	 Opposite-Spin Energy      =      -0.8108005585288135 [Eh]
	 Correlation Energy        =      -1.0910532364726184 [Eh]
	 Total Energy              =    -707.5565097437633995 [Eh]

	 ================> DF-SCS-MP2 Energies <==================
	-----------------------------------------------------------
	 SCS Same-Spin Scale       =       0.3333333333333333 [-]
	 SCS Opposite-Spin Scale   =       1.2000000000000000 [-]
	 SCS Same-Spin Energy      =      -0.0934175593146017 [Eh]
	 SCS Opposite-Spin Energy  =      -0.9729606702345761 [Eh]
	 SCS Correlation Energy    =      -1.0663782295491777 [Eh]
	 SCS Total Energy          =    -707.5318347368399827 [Eh]
	-----------------------------------------------------------

  Dipole Moment: [D]
     X:    -0.0000      Y:     1.5817      Z:     0.0030     Total:     1.5817

*** Psi4 exiting successfully. Buy a developer a beer!
