                               Psi4 1.4a3.dev225

  ==> Input File <==

--------------------------------------------------------------------------
#psi4
#
memory 32 gb

molecule  {
0 1
  I        3.0501070    -0.1728260     0.0000000
  I       -2.9749255    -0.2664303     0.1913993
  C        0.0000000     0.1252550     0.0000010
  C        1.2422480     1.0065380     0.0000000
  C       -1.2422490     1.0065380     0.0000000
  H        0.0000000    -0.5222500     0.8805730
  H        0.0000000    -0.5222520    -0.8805680
  H        1.2984770     1.6335130    -0.8904590
  H        1.2984780     1.6335140     0.8904580
  H       -1.2984780     1.6335130    -0.8904590
  H       -1.2984780     1.6335130     0.8904590
units angstrom
no_reorient  #important for SAPT in psi4, default
symmetry c1  #important for SAPT in psi4, default
}

set PROPERTIES_ORIGIN ["COM"]
properties('MP2/aug-cc-pvtz', properties = ['dipole'])
--------------------------------------------------------------------------

    Molecular point group: c1
  Charge       = 0
  Multiplicity = 1
  Basis Set: AUG-CC-PVTZ
    Blend: AUG-CC-PVTZ
  Basis Set: (AUG-CC-PVTZ AUX)
    Blend: AUG-CC-PVTZ-JKFIT + DEF2-UNIVERSAL-JKFIT

    Orbital Energies [Eh]
    ---------------------

    Doubly Occupied:

       1A    -11.298791     2A    -11.297750     3A    -11.261083
       4A     -7.717752     5A     -7.717041     6A     -5.549241
       7A     -5.548484     8A     -5.539951     9A     -5.539910
      10A     -5.539275    11A     -5.539216    12A     -2.278568
      13A     -2.277801    14A     -2.274054    15A     -2.274014
      16A     -2.273319    17A     -2.273258    18A     -2.263720
      19A     -2.263716    20A     -2.263056    21A     -2.263055
      22A     -1.109809    23A     -0.993709    24A     -0.893351
      25A     -0.831454    26A     -0.823934    27A     -0.684287
      28A     -0.602588    29A     -0.597388    30A     -0.569198
      31A     -0.521367    32A     -0.475493    33A     -0.432801
      34A     -0.372005    35A     -0.368125    36A     -0.365202
      37A     -0.361096

  @DF-RHF Final Energy:  -706.46433771086561

   => Energetics <=

    Nuclear Repulsion Energy =            333.7467706757001906
    One-Electron Energy =               -1849.9124826161482815
    Two-Electron Energy =                 809.7013742295824841
    Total Energy =                       -706.4643377108656068
  Basis Set: (AUG-CC-PVTZ AUX)
    Blend: AUG-CC-PVTZ-RI + DEF2-QZVPP-RI
    Molecular point group: c1

    Geometry (in Angstrom), charge = 0, multiplicity = 1:

       Center              X                  Y                   Z               Mass
    ------------   -----------------  -----------------  -----------------  -----------------
         I            3.017858679990    -0.089842661269    -0.082098898866   126.904471900000
         I           -3.007173820010    -0.183446961269     0.109300401134   126.904471900000
         C           -0.032248320010     0.208238338731    -0.082097898866    12.000000000000
         C            1.209999679990     1.089521338731    -0.082098898866    12.000000000000
         C           -1.274497320010     1.089521338731    -0.082098898866    12.000000000000
         H           -0.032248320010    -0.439266661269     0.798474101134     1.007825032230
         H           -0.032248320010    -0.439268661269    -0.962666898866     1.007825032230
         H            1.266228679990     1.716496338731    -0.972557898866     1.007825032230
         H            1.266229679990     1.716497338731     0.808359101134     1.007825032230
         H           -1.330726320010     1.716496338731    -0.972557898866     1.007825032230
         H           -1.330726320010     1.716496338731     0.808360101134     1.007825032230

  Basis Set: AUG-CC-PVTZ
    Blend: AUG-CC-PVTZ
  Basis Set: (AUG-CC-PVTZ AUX)
    Blend: AUG-CC-PVTZ-JKFIT + DEF2-UNIVERSAL-JKFIT
	 Reference Energy          =    -706.4643377108656068 [Eh]
	 Singles Energy            =      -0.0000000000000000 [Eh]
	 Same-Spin Energy          =      -0.2804635703856522 [Eh]
	 Opposite-Spin Energy      =      -0.8110260555904321 [Eh]
	 Correlation Energy        =      -1.0914896259760842 [Eh]
	 Total Energy              =    -707.5558273368417304 [Eh]

	 ================> DF-SCS-MP2 Energies <==================
	-----------------------------------------------------------
	 SCS Same-Spin Scale       =       0.3333333333333333 [-]
	 SCS Opposite-Spin Scale   =       1.2000000000000000 [-]
	 SCS Same-Spin Energy      =      -0.0934878567952174 [Eh]
	 SCS Opposite-Spin Energy  =      -0.9732312667085184 [Eh]
	 SCS Correlation Energy    =      -1.0667191235037359 [Eh]
	 SCS Total Energy          =    -707.5310568343693376 [Eh]
	-----------------------------------------------------------

  Dipole Moment: [D]
     X:    -0.0676      Y:     1.6217      Z:    -0.0908     Total:     1.6256

*** Psi4 exiting successfully. Buy a developer a beer!
