                               Psi4 1.4a3.dev225

  ==> Input File <==

--------------------------------------------------------------------------
#psi4
#
memory 32 gb

molecule  {
0 1
  I        3.0501070    -0.1728260     0.0000000
  I       -3.0272110    -0.2055168     0.0639035
  C        0.0000000     0.1252550     0.0000010
  C        1.2422480     1.0065380     0.0000000
  C       -1.2422490     1.0065380     0.0000000
  H        0.0000000    -0.5222500     0.8805730
  H        0.0000000    -0.5222520    -0.8805680
  H        1.2984770     1.6335130    -0.8904590
  H        1.2984780     1.6335140     0.8904580
  H       -1.2984780     1.6335130    -0.8904590
  H       -1.2984780     1.6335130     0.8904590
units angstrom
no_reorient  #important for SAPT in psi4, default
symmetry c1  #important for SAPT in psi4, default
}

set PROPERTIES_ORIGIN ["COM"]
properties('MP2/aug-cc-pvtz', properties = ['dipole'])
--------------------------------------------------------------------------

    Molecular point group: c1
  Charge       = 0
  Multiplicity = 1
  Basis Set: AUG-CC-PVTZ
    Blend: AUG-CC-PVTZ
  Basis Set: (AUG-CC-PVTZ AUX)
    Blend: AUG-CC-PVTZ-JKFIT + DEF2-UNIVERSAL-JKFIT

    Orbital Energies [Eh]
    ---------------------

    Doubly Occupied:

       1A    -11.298639     2A    -11.298291     3A    -11.261586
       4A     -7.717629     5A     -7.717423     6A     -5.549092
       7A     -5.548876     8A     -5.539846     9A     -5.539796
      10A     -5.539651    11A     -5.539591    12A     -2.278413
      13A     -2.278195    14A     -2.273916    15A     -2.273862
      16A     -2.273707    17A     -2.273645    18A     -2.263619
      19A     -2.263618    20A     -2.263424    21A     -2.263424
      22A     -1.109539    23A     -0.993698    24A     -0.894567
      25A     -0.831174    26A     -0.823336    27A     -0.684330
      28A     -0.602659    29A     -0.597045    30A     -0.569699
      31A     -0.521490    32A     -0.475204    33A     -0.433469
      34A     -0.372074    35A     -0.368139    36A     -0.365306
      37A     -0.361630

  @DF-RHF Final Energy:  -706.46576606090991

   => Energetics <=

    Nuclear Repulsion Energy =            332.7336962273054723
    One-Electron Energy =               -1847.8797216570471846
    Two-Electron Energy =                 808.6802593688317984
    Total Energy =                       -706.4657660609099139
  Basis Set: (AUG-CC-PVTZ AUX)
    Blend: AUG-CC-PVTZ-RI + DEF2-QZVPP-RI
    Molecular point group: c1

    Geometry (in Angstrom), charge = 0, multiplicity = 1:

       Center              X                  Y                   Z               Mass
    ------------   -----------------  -----------------  -----------------  -----------------
         I            3.040286030265    -0.115970907169    -0.027410831138   126.904471900000
         I           -3.037031969735    -0.148661707169     0.036492668862   126.904471900000
         C           -0.009820969735     0.182110092831    -0.027409831138    12.000000000000
         C            1.232427030265     1.063393092831    -0.027410831138    12.000000000000
         C           -1.252069969735     1.063393092831    -0.027410831138    12.000000000000
         H           -0.009820969735    -0.465394907169     0.853162168862     1.007825032230
         H           -0.009820969735    -0.465396907169    -0.907978831138     1.007825032230
         H            1.288656030265     1.690368092831    -0.917869831138     1.007825032230
         H            1.288657030265     1.690369092831     0.863047168862     1.007825032230
         H           -1.308298969735     1.690368092831    -0.917869831138     1.007825032230
         H           -1.308298969735     1.690368092831     0.863048168862     1.007825032230

  Basis Set: AUG-CC-PVTZ
    Blend: AUG-CC-PVTZ
  Basis Set: (AUG-CC-PVTZ AUX)
    Blend: AUG-CC-PVTZ-JKFIT + DEF2-UNIVERSAL-JKFIT
	 Reference Energy          =    -706.4657660609099139 [Eh]
	 Singles Energy            =      -0.0000000000000000 [Eh]
	 Same-Spin Energy          =      -0.2802836751432354 [Eh]
	 Opposite-Spin Energy      =      -0.8107387350547950 [Eh]
	 Correlation Energy        =      -1.0910224101980304 [Eh]
	 Total Energy              =    -707.5567884711078932 [Eh]

	 ================> DF-SCS-MP2 Energies <==================
	-----------------------------------------------------------
	 SCS Same-Spin Scale       =       0.3333333333333333 [-]
	 SCS Opposite-Spin Scale   =       1.2000000000000000 [-]
	 SCS Same-Spin Energy      =      -0.0934278917144118 [Eh]
	 SCS Opposite-Spin Energy  =      -0.9728864820657539 [Eh]
	 SCS Correlation Energy    =      -1.0663143737801657 [Eh]
	 SCS Total Energy          =    -707.5320804346901014 [Eh]
	-----------------------------------------------------------

  Dipole Moment: [D]
     X:    -0.0217      Y:     1.5941      Z:    -0.0306     Total:     1.5945

*** Psi4 exiting successfully. Buy a developer a beer!
