                               Psi4 1.4a3.dev225

  ==> Input File <==

--------------------------------------------------------------------------
#psi4
#
memory 32 gb

molecule  {
0 1
  I        3.0501070    -0.1728260     0.0000000
  I       -3.0501070    -0.1728260     0.0000000
  C        0.0000000     0.1252550     0.0000010
  C        1.2003709     1.0338567     0.0000000
  C       -1.2422490     1.0065380     0.0000000
  H        0.0000000    -0.5222500     0.8805730
  H        0.0000000    -0.5222520    -0.8805680
  H        1.2984770     1.6335130    -0.8904590
  H        1.2984780     1.6335140     0.8904580
  H       -1.2984780     1.6335130    -0.8904590
  H       -1.2984780     1.6335130     0.8904590
units angstrom
no_reorient  #important for SAPT in psi4, default
symmetry c1  #important for SAPT in psi4, default
}

set PROPERTIES_ORIGIN ["COM"]
properties('MP2/aug-cc-pvtz', properties = ['dipole'])
--------------------------------------------------------------------------

    Molecular point group: c1
  Charge       = 0
  Multiplicity = 1
  Basis Set: AUG-CC-PVTZ
    Blend: AUG-CC-PVTZ
  Basis Set: (AUG-CC-PVTZ AUX)
    Blend: AUG-CC-PVTZ-JKFIT + DEF2-UNIVERSAL-JKFIT

    Orbital Energies [Eh]
    ---------------------

    Doubly Occupied:

       1A    -11.301271     2A    -11.299624     3A    -11.262950
       4A     -7.718133     5A     -7.714298     6A     -5.549586
       7A     -5.545577     8A     -5.540361     9A     -5.540303
      10A     -5.536563    11A     -5.536514    12A     -2.278905
      13A     -2.274638    14A     -2.274417    15A     -2.274356
      16A     -2.270439    17A     -2.270388    18A     -2.264137
      19A     -2.264137    20A     -2.260395    21A     -2.260395
      22A     -1.114790    23A     -0.992757    24A     -0.893410
      25A     -0.831949    26A     -0.826440    27A     -0.689924
      28A     -0.607730    29A     -0.601216    30A     -0.576721
      31A     -0.524866    32A     -0.472026    33A     -0.425833
      34A     -0.371299    35A     -0.367980    36A     -0.364519
      37A     -0.361391

  @DF-RHF Final Energy:  -706.46504004530243

   => Energetics <=

    Nuclear Repulsion Energy =            331.9665264103945788
    One-Electron Energy =               -1846.3426561979897542
    Two-Electron Energy =                 807.9110897422926882
    Total Energy =                       -706.4650400453024304
  Basis Set: (AUG-CC-PVTZ AUX)
    Blend: AUG-CC-PVTZ-RI + DEF2-QZVPP-RI
    Molecular point group: c1

    Geometry (in Angstrom), charge = 0, multiplicity = 1:

       Center              X                  Y                   Z               Mass
    ------------   -----------------  -----------------  -----------------  -----------------
         I            3.051805591166    -0.131101358178    -0.000000054186   126.904471900000
         I           -3.048408408834    -0.131101358178    -0.000000054186   126.904471900000
         C            0.001698591166     0.166979641822     0.000000945814    12.000000000000
         C            1.202069491166     1.075581341822    -0.000000054186    12.000000000000
         C           -1.240550408834     1.048262641822    -0.000000054186    12.000000000000
         H            0.001698591166    -0.480525358178     0.880572945814     1.007825032230
         H            0.001698591166    -0.480527358178    -0.880568054186     1.007825032230
         H            1.300175591166     1.675237641822    -0.890459054186     1.007825032230
         H            1.300176591166     1.675238641822     0.890457945814     1.007825032230
         H           -1.296779408834     1.675237641822    -0.890459054186     1.007825032230
         H           -1.296779408834     1.675237641822     0.890458945814     1.007825032230

  Basis Set: AUG-CC-PVTZ
    Blend: AUG-CC-PVTZ
  Basis Set: (AUG-CC-PVTZ AUX)
    Blend: AUG-CC-PVTZ-JKFIT + DEF2-UNIVERSAL-JKFIT
	 Reference Energy          =    -706.4650400453024304 [Eh]
	 Singles Energy            =      -0.0000000000000000 [Eh]
	 Same-Spin Energy          =      -0.2801287810126912 [Eh]
	 Opposite-Spin Energy      =      -0.8103262810411890 [Eh]
	 Correlation Energy        =      -1.0904550620538802 [Eh]
	 Total Energy              =    -707.5554951073563643 [Eh]

	 ================> DF-SCS-MP2 Energies <==================
	-----------------------------------------------------------
	 SCS Same-Spin Scale       =       0.3333333333333333 [-]
	 SCS Opposite-Spin Scale   =       1.2000000000000000 [-]
	 SCS Same-Spin Energy      =      -0.0933762603375637 [Eh]
	 SCS Opposite-Spin Energy  =      -0.9723915372494267 [Eh]
	 SCS Correlation Energy    =      -1.0657677975869904 [Eh]
	 SCS Total Energy          =    -707.5308078428894305 [Eh]
	-----------------------------------------------------------

  Dipole Moment: [D]
     X:    -0.1203      Y:     1.6299      Z:     0.0000     Total:     1.6344

*** Psi4 exiting successfully. Buy a developer a beer!
