                               Psi4 1.4a3.dev225

  ==> Input File <==

--------------------------------------------------------------------------
#psi4
#
memory 32 gb

molecule  {
0 1
  I        3.0501070    -0.1728260     0.0000000
  I       -3.0501070    -0.1728260     0.0000000
  C        0.0000000     0.1252550     0.0000010
  C        1.2422480     1.0065380     0.0000000
  C       -1.0791282     0.8908159     0.0000001
  H        0.0000000    -0.5222500     0.8805730
  H        0.0000000    -0.5222520    -0.8805680
  H        1.2984770     1.6335130    -0.8904590
  H        1.2984780     1.6335140     0.8904580
  H       -1.2984780     1.6335130    -0.8904590
  H       -1.2984780     1.6335130     0.8904590
units angstrom
no_reorient  #important for SAPT in psi4, default
symmetry c1  #important for SAPT in psi4, default
}

set PROPERTIES_ORIGIN ["COM"]
properties('MP2/aug-cc-pvtz', properties = ['dipole'])
--------------------------------------------------------------------------

    Molecular point group: c1
  Charge       = 0
  Multiplicity = 1
  Basis Set: AUG-CC-PVTZ
    Blend: AUG-CC-PVTZ
  Basis Set: (AUG-CC-PVTZ AUX)
    Blend: AUG-CC-PVTZ-JKFIT + DEF2-UNIVERSAL-JKFIT

    Orbital Energies [Eh]
    ---------------------

    Doubly Occupied:

       1A    -11.311255     2A    -11.304087     3A    -11.252961
       4A     -7.720528     5A     -7.712404     6A     -5.552057
       7A     -5.543615     8A     -5.542709     9A     -5.542657
      10A     -5.534732    11A     -5.534560    12A     -2.281388
      13A     -2.276847    14A     -2.276794    15A     -2.272557
      16A     -2.268553    17A     -2.268388    18A     -2.266440
      19A     -2.266439    20A     -2.258529    21A     -2.258522
      22A     -1.153775    23A     -0.994914    24A     -0.894495
      25A     -0.836980    26A     -0.812255    27A     -0.696116
      28A     -0.637549    29A     -0.596093    30A     -0.590283
      31A     -0.495669    32A     -0.472273    33A     -0.416495
      34A     -0.370822    35A     -0.369840    36A     -0.364401
      37A     -0.360255

  @DF-RHF Final Energy:  -706.42032065812032

   => Energetics <=

    Nuclear Repulsion Energy =            334.0673018893950825
    One-Electron Energy =               -1850.3587676832851230
    Two-Electron Energy =                 809.8711451357696660
    Total Energy =                       -706.4203206581203176
  Basis Set: (AUG-CC-PVTZ AUX)
    Blend: AUG-CC-PVTZ-RI + DEF2-QZVPP-RI
    Molecular point group: c1

    Geometry (in Angstrom), charge = 0, multiplicity = 1:

       Center              X                  Y                   Z               Mass
    ------------   -----------------  -----------------  -----------------  -----------------
         I            3.043490817487    -0.125299582264    -0.000000058242   126.904471900000
         I           -3.056723182513    -0.125299582264    -0.000000058242   126.904471900000
         C           -0.006616182513     0.172781417736     0.000000941758    12.000000000000
         C            1.235631817487     1.054064417736    -0.000000058242    12.000000000000
         C           -1.085744382513     0.938342317736     0.000000041758    12.000000000000
         H           -0.006616182513    -0.474723582264     0.880572941758     1.007825032230
         H           -0.006616182513    -0.474725582264    -0.880568058242     1.007825032230
         H            1.291860817487     1.681039417736    -0.890459058242     1.007825032230
         H            1.291861817487     1.681040417736     0.890457941758     1.007825032230
         H           -1.305094182513     1.681039417736    -0.890459058242     1.007825032230
         H           -1.305094182513     1.681039417736     0.890458941758     1.007825032230

  Basis Set: AUG-CC-PVTZ
    Blend: AUG-CC-PVTZ
  Basis Set: (AUG-CC-PVTZ AUX)
    Blend: AUG-CC-PVTZ-JKFIT + DEF2-UNIVERSAL-JKFIT
	 Reference Energy          =    -706.4203206581203176 [Eh]
	 Singles Energy            =      -0.0000000000000000 [Eh]
	 Same-Spin Energy          =      -0.2832770174754154 [Eh]
	 Opposite-Spin Energy      =      -0.8143822251252790 [Eh]
	 Correlation Energy        =      -1.0976592426006944 [Eh]
	 Total Energy              =    -707.5179799007210022 [Eh]

	 ================> DF-SCS-MP2 Energies <==================
	-----------------------------------------------------------
	 SCS Same-Spin Scale       =       0.3333333333333333 [-]
	 SCS Opposite-Spin Scale   =       1.2000000000000000 [-]
	 SCS Same-Spin Energy      =      -0.0944256724918051 [Eh]
	 SCS Opposite-Spin Energy  =      -0.9772586701503347 [Eh]
	 SCS Correlation Energy    =      -1.0716843426421399 [Eh]
	 SCS Total Energy          =    -707.4920050007624468 [Eh]
	-----------------------------------------------------------

  Dipole Moment: [D]
     X:     0.4076      Y:     1.5953      Z:     0.0000     Total:     1.6466

*** Psi4 exiting successfully. Buy a developer a beer!
