                               Psi4 1.4a3.dev225

  ==> Input File <==

--------------------------------------------------------------------------
#psi4
#
memory 32 gb

molecule  {
0 1
  I        3.0501070    -0.1728260     0.0000000
  I       -3.0501070    -0.1728260     0.0000000
  C        0.0000000     0.1252550     0.0000010
  C        1.2422480     1.0065380     0.0000000
  C       -1.3260031     0.9519006     0.0000000
  H        0.0000000    -0.5222500     0.8805730
  H        0.0000000    -0.5222520    -0.8805680
  H        1.2984770     1.6335130    -0.8904590
  H        1.2984780     1.6335140     0.8904580
  H       -1.2984780     1.6335130    -0.8904590
  H       -1.2984780     1.6335130     0.8904590
units angstrom
no_reorient  #important for SAPT in psi4, default
symmetry c1  #important for SAPT in psi4, default
}

set PROPERTIES_ORIGIN ["COM"]
properties('MP2/aug-cc-pvtz', properties = ['dipole'])
--------------------------------------------------------------------------

    Molecular point group: c1
  Charge       = 0
  Multiplicity = 1
  Basis Set: AUG-CC-PVTZ
    Blend: AUG-CC-PVTZ
  Basis Set: (AUG-CC-PVTZ AUX)
    Blend: AUG-CC-PVTZ-JKFIT + DEF2-UNIVERSAL-JKFIT

    Orbital Energies [Eh]
    ---------------------

    Doubly Occupied:

       1A    -11.297209     2A    -11.295959     3A    -11.260804
       4A     -7.723149     5A     -7.717107     6A     -5.554960
       7A     -5.548592     8A     -5.545338     9A     -5.545252
      10A     -5.539317    11A     -5.539251    12A     -2.284961
      13A     -2.279751    14A     -2.279663    15A     -2.277912
      16A     -2.273406    17A     -2.273339    18A     -2.269050
      19A     -2.269049    20A     -2.263063    21A     -2.263062
      22A     -1.100399    23A     -0.998145    24A     -0.899207
      25A     -0.829609    26A     -0.814722    27A     -0.674928
      28A     -0.592295    29A     -0.592004    30A     -0.555236
      31A     -0.515216    32A     -0.486414    33A     -0.443554
      34A     -0.373524    35A     -0.369061    36A     -0.365130
      37A     -0.361605

  @DF-RHF Final Energy:  -706.45870908379868

   => Energetics <=

    Nuclear Repulsion Energy =            332.9820967485680399
    One-Electron Energy =               -1848.3391227111922035
    Two-Electron Energy =                 808.8983168788255398
    Total Energy =                       -706.4587090837986807
  Basis Set: (AUG-CC-PVTZ AUX)
    Blend: AUG-CC-PVTZ-RI + DEF2-QZVPP-RI
    Molecular point group: c1

    Geometry (in Angstrom), charge = 0, multiplicity = 1:

       Center              X                  Y                   Z               Mass
    ------------   -----------------  -----------------  -----------------  -----------------
         I            3.053504134308    -0.127777195233    -0.000000054186   126.904471900000
         I           -3.046709865692    -0.127777195233    -0.000000054186   126.904471900000
         C            0.003397134308     0.170303804767     0.000000945814    12.000000000000
         C            1.245645134308     1.051586804767    -0.000000054186    12.000000000000
         C           -1.322605965692     0.996949404767    -0.000000054186    12.000000000000
         H            0.003397134308    -0.477201195233     0.880572945814     1.007825032230
         H            0.003397134308    -0.477203195233    -0.880568054186     1.007825032230
         H            1.301874134308     1.678561804767    -0.890459054186     1.007825032230
         H            1.301875134308     1.678562804767     0.890457945814     1.007825032230
         H           -1.295080865692     1.678561804767    -0.890459054186     1.007825032230
         H           -1.295080865692     1.678561804767     0.890458945814     1.007825032230

  Basis Set: AUG-CC-PVTZ
    Blend: AUG-CC-PVTZ
  Basis Set: (AUG-CC-PVTZ AUX)
    Blend: AUG-CC-PVTZ-JKFIT + DEF2-UNIVERSAL-JKFIT
	 Reference Energy          =    -706.4587090837986807 [Eh]
	 Singles Energy            =      -0.0000000000000000 [Eh]
	 Same-Spin Energy          =      -0.2808307282332793 [Eh]
	 Opposite-Spin Energy      =      -0.8118447228991401 [Eh]
	 Correlation Energy        =      -1.0926754511324193 [Eh]
	 Total Energy              =    -707.5513845349311168 [Eh]

	 ================> DF-SCS-MP2 Energies <==================
	-----------------------------------------------------------
	 SCS Same-Spin Scale       =       0.3333333333333333 [-]
	 SCS Opposite-Spin Scale   =       1.2000000000000000 [-]
	 SCS Same-Spin Energy      =      -0.0936102427444264 [Eh]
	 SCS Opposite-Spin Energy  =      -0.9742136674789681 [Eh]
	 SCS Correlation Energy    =      -1.0678239102233944 [Eh]
	 SCS Total Energy          =    -707.5265329940220909 [Eh]
	-----------------------------------------------------------

  Dipole Moment: [D]
     X:    -0.1980      Y:     1.4810      Z:     0.0000     Total:     1.4942

*** Psi4 exiting successfully. Buy a developer a beer!
