                               Psi4 1.4a3.dev225

  ==> Input File <==

--------------------------------------------------------------------------
#psi4
#
memory 32 gb

molecule  {
0 1
  I        3.0501070    -0.1728260     0.0000000
  I       -3.0501070    -0.1728260     0.0000000
  C        0.0000000     0.1252550     0.0000010
  C        1.2422480     1.0065380     0.0000000
  C       -1.1584949     1.0611754     0.0000000
  H        0.0000000    -0.5222500     0.8805730
  H        0.0000000    -0.5222520    -0.8805680
  H        1.2984770     1.6335130    -0.8904590
  H        1.2984780     1.6335140     0.8904580
  H       -1.2984780     1.6335130    -0.8904590
  H       -1.2984780     1.6335130     0.8904590
units angstrom
no_reorient  #important for SAPT in psi4, default
symmetry c1  #important for SAPT in psi4, default
}

set PROPERTIES_ORIGIN ["COM"]
properties('MP2/aug-cc-pvtz', properties = ['dipole'])
--------------------------------------------------------------------------

    Molecular point group: c1
  Charge       = 0
  Multiplicity = 1
  Basis Set: AUG-CC-PVTZ
    Blend: AUG-CC-PVTZ
  Basis Set: (AUG-CC-PVTZ AUX)
    Blend: AUG-CC-PVTZ-JKFIT + DEF2-UNIVERSAL-JKFIT

    Orbital Energies [Eh]
    ---------------------

    Doubly Occupied:

       1A    -11.304932     2A    -11.301001     3A    -11.264446
       4A     -7.718873     5A     -7.710655     6A     -5.550326
       7A     -5.541748     8A     -5.541099     9A     -5.541043
      10A     -5.532972    11A     -5.532934    12A     -2.279646
      13A     -2.275158    14A     -2.275098    15A     -2.270595
      16A     -2.266656    17A     -2.266615    18A     -2.264878
      19A     -2.264877    20A     -2.256888    21A     -2.256888
      22A     -1.120627    23A     -0.992396    24A     -0.892006
      25A     -0.832917    26A     -0.829283    27A     -0.695886
      28A     -0.612423    29A     -0.607359    30A     -0.582127
      31A     -0.528141    32A     -0.470621    33A     -0.416653
      34A     -0.370743    35A     -0.368470    36A     -0.362819
      37A     -0.360305

  @DF-RHF Final Energy:  -706.46158344224682

   => Energetics <=

    Nuclear Repulsion Energy =            331.6759979800773408
    One-Electron Energy =               -1845.7549555415805571
    Two-Electron Energy =                 807.6173741192562829
    Total Energy =                       -706.4615834422468197
  Basis Set: (AUG-CC-PVTZ AUX)
    Blend: AUG-CC-PVTZ-RI + DEF2-QZVPP-RI
    Molecular point group: c1

    Geometry (in Angstrom), charge = 0, multiplicity = 1:

       Center              X                  Y                   Z               Mass
    ------------   -----------------  -----------------  -----------------  -----------------
         I            3.046709953625    -0.132209412494    -0.000000054186   126.904471900000
         I           -3.053504046375    -0.132209412494    -0.000000054186   126.904471900000
         C           -0.003397046375     0.165871587506     0.000000945814    12.000000000000
         C            1.238850953625     1.047154587506    -0.000000054186    12.000000000000
         C           -1.161891946375     1.101791987506    -0.000000054186    12.000000000000
         H           -0.003397046375    -0.481633412494     0.880572945814     1.007825032230
         H           -0.003397046375    -0.481635412494    -0.880568054186     1.007825032230
         H            1.295079953625     1.674129587506    -0.890459054186     1.007825032230
         H            1.295080953625     1.674130587506     0.890457945814     1.007825032230
         H           -1.301875046375     1.674129587506    -0.890459054186     1.007825032230
         H           -1.301875046375     1.674129587506     0.890458945814     1.007825032230

  Basis Set: AUG-CC-PVTZ
    Blend: AUG-CC-PVTZ
  Basis Set: (AUG-CC-PVTZ AUX)
    Blend: AUG-CC-PVTZ-JKFIT + DEF2-UNIVERSAL-JKFIT
	 Reference Energy          =    -706.4615834422468197 [Eh]
	 Singles Energy            =      -0.0000000000000000 [Eh]
	 Same-Spin Energy          =      -0.2801529557474673 [Eh]
	 Opposite-Spin Energy      =      -0.8101621242085191 [Eh]
	 Correlation Energy        =      -1.0903150799559864 [Eh]
	 Total Energy              =    -707.5518985222028050 [Eh]

	 ================> DF-SCS-MP2 Energies <==================
	-----------------------------------------------------------
	 SCS Same-Spin Scale       =       0.3333333333333333 [-]
	 SCS Opposite-Spin Scale   =       1.2000000000000000 [-]
	 SCS Same-Spin Energy      =      -0.0933843185824891 [Eh]
	 SCS Opposite-Spin Energy  =      -0.9721945490502228 [Eh]
	 SCS Correlation Energy    =      -1.0655788676327120 [Eh]
	 SCS Total Energy          =    -707.5271623098794862 [Eh]
	-----------------------------------------------------------

  Dipole Moment: [D]
     X:     0.2517      Y:     1.6804      Z:     0.0000     Total:     1.6992

*** Psi4 exiting successfully. Buy a developer a beer!
