                               Psi4 1.4a3.dev225

  ==> Input File <==

--------------------------------------------------------------------------
#psi4
#
memory 32 gb

molecule  {
0 1
  I        3.0501070    -0.1728260     0.0000000
  I       -3.0607307    -0.1559392     0.0319566
  C        0.0000000     0.1252550     0.0000010
  C        1.2422480     1.0065380     0.0000000
  C       -1.2422490     1.0065380     0.0000000
  H        0.0000000    -0.5222500     0.8805730
  H        0.0000000    -0.5222520    -0.8805680
  H        1.2984770     1.6335130    -0.8904590
  H        1.2984780     1.6335140     0.8904580
  H       -1.2984780     1.6335130    -0.8904590
  H       -1.2984780     1.6335130     0.8904590
units angstrom
no_reorient  #important for SAPT in psi4, default
symmetry c1  #important for SAPT in psi4, default
}

set PROPERTIES_ORIGIN ["COM"]
properties('MP2/aug-cc-pvtz', properties = ['dipole'])
--------------------------------------------------------------------------

    Molecular point group: c1
  Charge       = 0
  Multiplicity = 1
  Basis Set: AUG-CC-PVTZ
    Blend: AUG-CC-PVTZ
  Basis Set: (AUG-CC-PVTZ AUX)
    Blend: AUG-CC-PVTZ-JKFIT + DEF2-UNIVERSAL-JKFIT

    Orbital Energies [Eh]
    ---------------------

    Doubly Occupied:

       1A    -11.298659     2A    -11.298485     3A    -11.261954
       4A     -7.717685     5A     -7.717595     6A     -5.549145
       7A     -5.549052     8A     -5.539909     9A     -5.539848
      10A     -5.539823    11A     -5.539757    12A     -2.278464
      13A     -2.278370    14A     -2.273972    15A     -2.273909
      16A     -2.273882    17A     -2.273815    18A     -2.263677
      19A     -2.263676    20A     -2.263590    21A     -2.263589
      22A     -1.109387    23A     -0.993760    24A     -0.895481
      25A     -0.831108    26A     -0.822762    27A     -0.684365
      28A     -0.602767    29A     -0.596821    30A     -0.570053
      31A     -0.521667    32A     -0.474876    33A     -0.433793
      34A     -0.372106    35A     -0.368126    36A     -0.365286
      37A     -0.361980

  @DF-RHF Final Energy:  -706.46600802752096

   => Energetics <=

    Nuclear Repulsion Energy =            332.0622577513231590
    One-Electron Energy =               -1846.5301412442220226
    Two-Electron Energy =                 808.0018754653779069
    Total Energy =                       -706.4660080275209566
  Basis Set: (AUG-CC-PVTZ AUX)
    Blend: AUG-CC-PVTZ-RI + DEF2-QZVPP-RI
    Molecular point group: c1

    Geometry (in Angstrom), charge = 0, multiplicity = 1:

       Center              X                  Y                   Z               Mass
    ------------   -----------------  -----------------  -----------------  -----------------
         I            3.054663975451    -0.137236730408    -0.013707523022   126.904471900000
         I           -3.056173724549    -0.120349930408     0.018249076978   126.904471900000
         C            0.004556975451     0.160844269592    -0.013706523022    12.000000000000
         C            1.246804975451     1.042127269592    -0.013707523022    12.000000000000
         C           -1.237692024549     1.042127269592    -0.013707523022    12.000000000000
         H            0.004556975451    -0.486660730408     0.866865476978     1.007825032230
         H            0.004556975451    -0.486662730408    -0.894275523022     1.007825032230
         H            1.303033975451     1.669102269592    -0.904166523022     1.007825032230
         H            1.303034975451     1.669103269592     0.876750476978     1.007825032230
         H           -1.293921024549     1.669102269592    -0.904166523022     1.007825032230
         H           -1.293921024549     1.669102269592     0.876751476978     1.007825032230

  Basis Set: AUG-CC-PVTZ
    Blend: AUG-CC-PVTZ
  Basis Set: (AUG-CC-PVTZ AUX)
    Blend: AUG-CC-PVTZ-JKFIT + DEF2-UNIVERSAL-JKFIT
	 Reference Energy          =    -706.4660080275209566 [Eh]
	 Singles Energy            =      -0.0000000000000000 [Eh]
	 Same-Spin Energy          =      -0.2802004265918814 [Eh]
	 Opposite-Spin Energy      =      -0.8106145774729382 [Eh]
	 Correlation Energy        =      -1.0908150040648197 [Eh]
	 Total Energy              =    -707.5568230315857363 [Eh]

	 ================> DF-SCS-MP2 Energies <==================
	-----------------------------------------------------------
	 SCS Same-Spin Scale       =       0.3333333333333333 [-]
	 SCS Opposite-Spin Scale   =       1.2000000000000000 [-]
	 SCS Same-Spin Energy      =      -0.0934001421972938 [Eh]
	 SCS Opposite-Spin Energy  =      -0.9727374929675258 [Eh]
	 SCS Correlation Energy    =      -1.0661376351648195 [Eh]
	 SCS Total Energy          =    -707.5321456626858208 [Eh]
	-----------------------------------------------------------

  Dipole Moment: [D]
     X:     0.0104      Y:     1.5711      Z:    -0.0154     Total:     1.5712

*** Psi4 exiting successfully. Buy a developer a beer!
