                               Psi4 1.4a3.dev225

  ==> Input File <==

--------------------------------------------------------------------------
#psi4
#
memory 32 gb

molecule  {
0 1
  I        3.0501070    -0.1728260     0.0000000
  I       -3.0501070    -0.1728260     0.0000000
  C        0.0000000     0.1252550     0.0000010
  C        1.2422480     1.0065380     0.0000000
  C       -1.2014688     0.9776075     0.0000000
  H        0.0000000    -0.5222500     0.8805730
  H        0.0000000    -0.5222520    -0.8805680
  H        1.2984770     1.6335130    -0.8904590
  H        1.2984780     1.6335140     0.8904580
  H       -1.2984780     1.6335130    -0.8904590
  H       -1.2984780     1.6335130     0.8904590
units angstrom
no_reorient  #important for SAPT in psi4, default
symmetry c1  #important for SAPT in psi4, default
}

set PROPERTIES_ORIGIN ["COM"]
properties('MP2/aug-cc-pvtz', properties = ['dipole'])
--------------------------------------------------------------------------

    Molecular point group: c1
  Charge       = 0
  Multiplicity = 1
  Basis Set: AUG-CC-PVTZ
    Blend: AUG-CC-PVTZ
  Basis Set: (AUG-CC-PVTZ AUX)
    Blend: AUG-CC-PVTZ-JKFIT + DEF2-UNIVERSAL-JKFIT

    Orbital Energies [Eh]
    ---------------------

    Doubly Occupied:

       1A    -11.301352     2A    -11.299491     3A    -11.259806
       4A     -7.718132     5A     -7.716500     6A     -5.549603
       7A     -5.547899     8A     -5.540348     9A     -5.540291
      10A     -5.538750    11A     -5.538661    12A     -2.278924
      13A     -2.277120    14A     -2.274423    15A     -2.274364
      16A     -2.272752    17A     -2.272664    18A     -2.264112
      19A     -2.264111    20A     -2.262522    21A     -2.262520
      22A     -1.118022    23A     -0.993174    24A     -0.895575
      25A     -0.831337    26A     -0.821564    27A     -0.686077
      28A     -0.606370    29A     -0.597855    30A     -0.576928
      31A     -0.517495    32A     -0.473343    33A     -0.430898
      34A     -0.371848    35A     -0.368090    36A     -0.364587
      37A     -0.362898

  @DF-RHF Final Energy:  -706.46329751163387

   => Energetics <=

    Nuclear Repulsion Energy =            332.6849541876371745
    One-Electron Energy =               -1847.7556888840779266
    Two-Electron Energy =                 808.6074371848068267
    Total Energy =                       -706.4632975116338685
  Basis Set: (AUG-CC-PVTZ AUX)
    Blend: AUG-CC-PVTZ-RI + DEF2-QZVPP-RI
    Molecular point group: c1

    Geometry (in Angstrom), charge = 0, multiplicity = 1:

       Center              X                  Y                   Z               Mass
    ------------   -----------------  -----------------  -----------------  -----------------
         I            3.048452987347    -0.128819874477    -0.000000054186   126.904471900000
         I           -3.051761012653    -0.128819874477    -0.000000054186   126.904471900000
         C           -0.001654012653     0.169261125523     0.000000945814    12.000000000000
         C            1.240593987347     1.050544125523    -0.000000054186    12.000000000000
         C           -1.203122812653     1.021613625523    -0.000000054186    12.000000000000
         H           -0.001654012653    -0.478243874477     0.880572945814     1.007825032230
         H           -0.001654012653    -0.478245874477    -0.880568054186     1.007825032230
         H            1.296822987347     1.677519125523    -0.890459054186     1.007825032230
         H            1.296823987347     1.677520125523     0.890457945814     1.007825032230
         H           -1.300132012653     1.677519125523    -0.890459054186     1.007825032230
         H           -1.300132012653     1.677519125523     0.890458945814     1.007825032230

  Basis Set: AUG-CC-PVTZ
    Blend: AUG-CC-PVTZ
  Basis Set: (AUG-CC-PVTZ AUX)
    Blend: AUG-CC-PVTZ-JKFIT + DEF2-UNIVERSAL-JKFIT
	 Reference Energy          =    -706.4632975116338685 [Eh]
	 Singles Energy            =      -0.0000000000000000 [Eh]
	 Same-Spin Energy          =      -0.2806522045377142 [Eh]
	 Opposite-Spin Energy      =      -0.8110470666031626 [Eh]
	 Correlation Energy        =      -1.0916992711408768 [Eh]
	 Total Energy              =    -707.5549967827747651 [Eh]

	 ================> DF-SCS-MP2 Energies <==================
	-----------------------------------------------------------
	 SCS Same-Spin Scale       =       0.3333333333333333 [-]
	 SCS Opposite-Spin Scale   =       1.2000000000000000 [-]
	 SCS Same-Spin Energy      =      -0.0935507348459047 [Eh]
	 SCS Opposite-Spin Energy  =      -0.9732564799237950 [Eh]
	 SCS Correlation Energy    =      -1.0668072147696999 [Eh]
	 SCS Total Energy          =    -707.5301047264035788 [Eh]
	-----------------------------------------------------------

  Dipole Moment: [D]
     X:     0.0754      Y:     1.5912      Z:     0.0000     Total:     1.5930

*** Psi4 exiting successfully. Buy a developer a beer!
