                               Psi4 1.4a3.dev225

  ==> Input File <==

--------------------------------------------------------------------------
#psi4
#
memory 32 gb

molecule  {
0 1
  I        3.0501070    -0.1728260     0.0000000
  I       -3.0501070    -0.1728260     0.0000000
  C        0.0000000     0.1252550     0.0000010
  C        1.2422480     1.0065380     0.0000000
  C       -1.2422490     1.0065380     0.0000000
  H        0.0000000    -0.5222500     0.8805730
  H        0.0000000    -0.5222520    -0.8805680
  H        1.2984770     1.6335130    -0.8904590
  H        1.2933216     1.5760193     0.8088016
  H       -1.2984780     1.6335130    -0.8904590
  H       -1.2984780     1.6335130     0.8904590
units angstrom
no_reorient  #important for SAPT in psi4, default
symmetry c1  #important for SAPT in psi4, default
}

set PROPERTIES_ORIGIN ["COM"]
properties('MP2/aug-cc-pvtz', properties = ['dipole'])
--------------------------------------------------------------------------

    Molecular point group: c1
  Charge       = 0
  Multiplicity = 1
  Basis Set: AUG-CC-PVTZ
    Blend: AUG-CC-PVTZ
  Basis Set: (AUG-CC-PVTZ AUX)
    Blend: AUG-CC-PVTZ-JKFIT + DEF2-UNIVERSAL-JKFIT

    Orbital Energies [Eh]
    ---------------------

    Doubly Occupied:

       1A    -11.298652     2A    -11.287261     3A    -11.261214
       4A     -7.717675     5A     -7.717299     6A     -5.549138
       7A     -5.548722     8A     -5.539897     9A     -5.539838
      10A     -5.539544    11A     -5.539486    12A     -2.278457
      13A     -2.278031    14A     -2.273963    15A     -2.273902
      16A     -2.273564    17A     -2.273503    18A     -2.263664
      19A     -2.263664    20A     -2.263338    21A     -2.263337
      22A     -1.112475    23A     -0.999156    24A     -0.895738
      25A     -0.837060    26A     -0.826251    27A     -0.689529
      28A     -0.612512    29A     -0.597455    30A     -0.570376
      31A     -0.523871    32A     -0.475294    33A     -0.434087
      34A     -0.372138    35A     -0.368293    36A     -0.365633
      37A     -0.361821

  @DF-RHF Final Energy:  -706.46015181185805

   => Energetics <=

    Nuclear Repulsion Energy =            332.8089082152074525
    One-Electron Energy =               -1847.9664442830010103
    Two-Electron Energy =                 808.6973842559353898
    Total Energy =                       -706.4601518118580543
  Basis Set: (AUG-CC-PVTZ AUX)
    Blend: AUG-CC-PVTZ-RI + DEF2-QZVPP-RI
    Molecular point group: c1

    Geometry (in Angstrom), charge = 0, multiplicity = 1:

       Center              X                  Y                   Z               Mass
    ------------   -----------------  -----------------  -----------------  -----------------
         I            3.050124609103    -0.129797449736     0.000278106113   126.904471900000
         I           -3.050089390897    -0.129797449736     0.000278106113   126.904471900000
         C            0.000017609103     0.168283550264     0.000279106113    12.000000000000
         C            1.242265609103     1.049566550264     0.000278106113    12.000000000000
         C           -1.242231390897     1.049566550264     0.000278106113    12.000000000000
         H            0.000017609103    -0.479221449736     0.880851106113     1.007825032230
         H            0.000017609103    -0.479223449736    -0.880289893887     1.007825032230
         H            1.298494609103     1.676541550264    -0.890180893887     1.007825032230
         H            1.293339209103     1.619047850264     0.809079706113     1.007825032230
         H           -1.298460390897     1.676541550264    -0.890180893887     1.007825032230
         H           -1.298460390897     1.676541550264     0.890737106113     1.007825032230

  Basis Set: AUG-CC-PVTZ
    Blend: AUG-CC-PVTZ
  Basis Set: (AUG-CC-PVTZ AUX)
    Blend: AUG-CC-PVTZ-JKFIT + DEF2-UNIVERSAL-JKFIT
	 Reference Energy          =    -706.4601518118580543 [Eh]
	 Singles Energy            =      -0.0000000000000000 [Eh]
	 Same-Spin Energy          =      -0.2800669281403610 [Eh]
	 Opposite-Spin Energy      =      -0.8100490407583316 [Eh]
	 Correlation Energy        =      -1.0901159688986928 [Eh]
	 Total Energy              =    -707.5502677807567125 [Eh]

	 ================> DF-SCS-MP2 Energies <==================
	-----------------------------------------------------------
	 SCS Same-Spin Scale       =       0.3333333333333333 [-]
	 SCS Opposite-Spin Scale   =       1.2000000000000000 [-]
	 SCS Same-Spin Energy      =      -0.0933556427134537 [Eh]
	 SCS Opposite-Spin Energy  =      -0.9720588489099979 [Eh]
	 SCS Correlation Energy    =      -1.0654144916234516 [Eh]
	 SCS Total Energy          =    -707.5255663034814688 [Eh]
	-----------------------------------------------------------

  Dipole Moment: [D]
     X:    -0.0058      Y:     1.5936      Z:    -0.0003     Total:     1.5936

*** Psi4 exiting successfully. Buy a developer a beer!
