                               Psi4 1.4a3.dev225

  ==> Input File <==

--------------------------------------------------------------------------
#psi4
#
memory 32 gb

molecule  {
0 1
  I        3.0501070    -0.1728260     0.0000000
  I       -3.0501070    -0.1728260     0.0000000
  C        0.0000000     0.1252550     0.0000010
  C        1.2422480     1.0065380     0.0000000
  C       -1.2422490     1.0065380     0.0000000
  H        0.0000000    -0.5222500     0.8805730
  H        0.0000000    -0.5518724    -0.9208499
  H        1.2984770     1.6335130    -0.8904590
  H        1.2984780     1.6335140     0.8904580
  H       -1.2984780     1.6335130    -0.8904590
  H       -1.2984780     1.6335130     0.8904590
units angstrom
no_reorient  #important for SAPT in psi4, default
symmetry c1  #important for SAPT in psi4, default
}

set PROPERTIES_ORIGIN ["COM"]
properties('MP2/aug-cc-pvtz', properties = ['dipole'])
--------------------------------------------------------------------------

    Molecular point group: c1
  Charge       = 0
  Multiplicity = 1
  Basis Set: AUG-CC-PVTZ
    Blend: AUG-CC-PVTZ
  Basis Set: (AUG-CC-PVTZ AUX)
    Blend: AUG-CC-PVTZ-JKFIT + DEF2-UNIVERSAL-JKFIT

    Orbital Energies [Eh]
    ---------------------

    Doubly Occupied:

       1A    -11.298873     2A    -11.298872     3A    -11.267531
       4A     -7.717606     5A     -7.717606     6A     -5.549073
       7A     -5.549073     8A     -5.539824     9A     -5.539824
      10A     -5.539767    11A     -5.539767    12A     -2.278395
      13A     -2.278391    14A     -2.273895    15A     -2.273893
      16A     -2.273837    17A     -2.273834    18A     -2.263590
      19A     -2.263590    20A     -2.263589    21A     -2.263589
      22A     -1.107891    23A     -0.993908    24A     -0.893629
      25A     -0.831220    26A     -0.819876    27A     -0.681691
      28A     -0.602899    29A     -0.597212    30A     -0.568235
      31A     -0.516428    32A     -0.474280    33A     -0.433872
      34A     -0.372051    35A     -0.368139    36A     -0.365302
      37A     -0.361896

  @DF-RHF Final Energy:  -706.46382451167005

   => Energetics <=

    Nuclear Repulsion Energy =            332.0463711850815116
    One-Electron Energy =               -1846.5144880510256371
    Two-Electron Energy =                 808.0042923542739572
    Total Energy =                       -706.4638245116700546
  Basis Set: (AUG-CC-PVTZ AUX)
    Blend: AUG-CC-PVTZ-RI + DEF2-QZVPP-RI
    Molecular point group: c1

    Geometry (in Angstrom), charge = 0, multiplicity = 1:

       Center              X                  Y                   Z               Mass
    ------------   -----------------  -----------------  -----------------  -----------------
         I            3.050107043967    -0.129892402779     0.000137165007   126.904471900000
         I           -3.050106956033    -0.129892402779     0.000137165007   126.904471900000
         C            0.000000043967     0.168188597221     0.000138165007    12.000000000000
         C            1.242248043967     1.049471597221     0.000137165007    12.000000000000
         C           -1.242248956033     1.049471597221     0.000137165007    12.000000000000
         H            0.000000043967    -0.479316402779     0.880710165007     1.007825032230
         H            0.000000043967    -0.508938802779    -0.920712734993     1.007825032230
         H            1.298477043967     1.676446597221    -0.890321834993     1.007825032230
         H            1.298478043967     1.676447597221     0.890595165007     1.007825032230
         H           -1.298477956033     1.676446597221    -0.890321834993     1.007825032230
         H           -1.298477956033     1.676446597221     0.890596165007     1.007825032230

  Basis Set: AUG-CC-PVTZ
    Blend: AUG-CC-PVTZ
  Basis Set: (AUG-CC-PVTZ AUX)
    Blend: AUG-CC-PVTZ-JKFIT + DEF2-UNIVERSAL-JKFIT
	 Reference Energy          =    -706.4638245116700546 [Eh]
	 Singles Energy            =      -0.0000000000000000 [Eh]
	 Same-Spin Energy          =      -0.2802993286535194 [Eh]
	 Opposite-Spin Energy      =      -0.8110496246636046 [Eh]
	 Correlation Energy        =      -1.0913489533171241 [Eh]
	 Total Energy              =    -707.5551734649872060 [Eh]

	 ================> DF-SCS-MP2 Energies <==================
	-----------------------------------------------------------
	 SCS Same-Spin Scale       =       0.3333333333333333 [-]
	 SCS Opposite-Spin Scale   =       1.2000000000000000 [-]
	 SCS Same-Spin Energy      =      -0.0934331095511731 [Eh]
	 SCS Opposite-Spin Energy  =      -0.9732595495963255 [Eh]
	 SCS Correlation Energy    =      -1.0666926591474988 [Eh]
	 SCS Total Energy          =    -707.5305171708175749 [Eh]
	-----------------------------------------------------------

  Dipole Moment: [D]
     X:    -0.0000      Y:     1.5862      Z:     0.0081     Total:     1.5863

*** Psi4 exiting successfully. Buy a developer a beer!
