                               Psi4 1.4a3.dev225

  ==> Input File <==

--------------------------------------------------------------------------
#psi4
#
memory 32 gb

molecule  {
0 1
  I        3.0704144    -0.1410949    -0.0000000
  I       -3.0501070    -0.1728260     0.0000000
  C        0.0000000     0.1252550     0.0000010
  C        1.2422480     1.0065380     0.0000000
  C       -1.2422490     1.0065380     0.0000000
  H        0.0000000    -0.5222500     0.8805730
  H        0.0000000    -0.5222520    -0.8805680
  H        1.2984770     1.6335130    -0.8904590
  H        1.2984780     1.6335140     0.8904580
  H       -1.2984780     1.6335130    -0.8904590
  H       -1.2984780     1.6335130     0.8904590
units angstrom
no_reorient  #important for SAPT in psi4, default
symmetry c1  #important for SAPT in psi4, default
}

set PROPERTIES_ORIGIN ["COM"]
properties('MP2/aug-cc-pvtz', properties = ['dipole'])
--------------------------------------------------------------------------

    Molecular point group: c1
  Charge       = 0
  Multiplicity = 1
  Basis Set: AUG-CC-PVTZ
    Blend: AUG-CC-PVTZ
  Basis Set: (AUG-CC-PVTZ AUX)
    Blend: AUG-CC-PVTZ-JKFIT + DEF2-UNIVERSAL-JKFIT

    Orbital Energies [Eh]
    ---------------------

    Doubly Occupied:

       1A    -11.298765     2A    -11.298438     3A    -11.262065
       4A     -7.717761     5A     -7.717586     6A     -5.549223
       7A     -5.549041     8A     -5.539984     9A     -5.539923
      10A     -5.539817    11A     -5.539745    12A     -2.278543
      13A     -2.278358    14A     -2.274050    15A     -2.273986
      16A     -2.273874    17A     -2.273802    18A     -2.263751
      19A     -2.263750    20A     -2.263582    21A     -2.263581
      22A     -1.109347    23A     -0.993782    24A     -0.895747
      25A     -0.831107    26A     -0.822577    27A     -0.684378
      28A     -0.602798    29A     -0.596760    30A     -0.570158
      31A     -0.521721    32A     -0.474776    33A     -0.433882
      34A     -0.372110    35A     -0.368130    36A     -0.365272
      37A     -0.362076

  @DF-RHF Final Energy:  -706.46603809312694

   => Energetics <=

    Nuclear Repulsion Energy =            331.8690119937776899
    One-Electron Energy =               -1846.1416056054385990
    Two-Electron Energy =                 807.8065555185338553
    Total Energy =                       -706.4660380931269401
  Basis Set: (AUG-CC-PVTZ AUX)
    Blend: AUG-CC-PVTZ-RI + DEF2-QZVPP-RI
    Molecular point group: c1

    Geometry (in Angstrom), charge = 0, multiplicity = 1:

       Center              X                  Y                   Z               Mass
    ------------   -----------------  -----------------  -----------------  -----------------
         I            3.061703784740    -0.111872946695    -0.000000054186   126.904471900000
         I           -3.058817615260    -0.143604046695    -0.000000054186   126.904471900000
         C           -0.008710615260     0.154476953305     0.000000945814    12.000000000000
         C            1.233537384740     1.035759953305    -0.000000054186    12.000000000000
         C           -1.250959615260     1.035759953305    -0.000000054186    12.000000000000
         H           -0.008710615260    -0.493028046695     0.880572945814     1.007825032230
         H           -0.008710615260    -0.493030046695    -0.880568054186     1.007825032230
         H            1.289766384740     1.662734953305    -0.890459054186     1.007825032230
         H            1.289767384740     1.662735953305     0.890457945814     1.007825032230
         H           -1.307188615260     1.662734953305    -0.890459054186     1.007825032230
         H           -1.307188615260     1.662734953305     0.890458945814     1.007825032230

  Basis Set: AUG-CC-PVTZ
    Blend: AUG-CC-PVTZ
  Basis Set: (AUG-CC-PVTZ AUX)
    Blend: AUG-CC-PVTZ-JKFIT + DEF2-UNIVERSAL-JKFIT
	 Reference Energy          =    -706.4660380931269401 [Eh]
	 Singles Energy            =      -0.0000000000000000 [Eh]
	 Same-Spin Energy          =      -0.2801785224874446 [Eh]
	 Opposite-Spin Energy      =      -0.8105827667826373 [Eh]
	 Correlation Energy        =      -1.0907612892700818 [Eh]
	 Total Energy              =    -707.5567993823970028 [Eh]

	 ================> DF-SCS-MP2 Energies <==================
	-----------------------------------------------------------
	 SCS Same-Spin Scale       =       0.3333333333333333 [-]
	 SCS Opposite-Spin Scale   =       1.2000000000000000 [-]
	 SCS Same-Spin Energy      =      -0.0933928408291482 [Eh]
	 SCS Opposite-Spin Energy  =      -0.9726993201391647 [Eh]
	 SCS Correlation Energy    =      -1.0660921609683129 [Eh]
	 SCS Total Energy          =    -707.5321302540952502 [Eh]
	-----------------------------------------------------------

  Dipole Moment: [D]
     X:    -0.0200      Y:     1.5641      Z:     0.0000     Total:     1.5642

*** Psi4 exiting successfully. Buy a developer a beer!
