                               Psi4 1.4a3.dev225

  ==> Input File <==

--------------------------------------------------------------------------
#psi4
#
memory 32 gb

molecule  {
0 1
  I        3.0501070    -0.1728260     0.0000000
  I       -3.0501070    -0.1728260     0.0000000
  C        0.0000000     0.1252550     0.0000010
  C        1.2422480     1.0065380     0.0000000
  C       -1.2499704     0.9952530     0.0227964
  H        0.0000000    -0.5222500     0.8805730
  H        0.0000000    -0.5222520    -0.8805680
  H        1.2984770     1.6335130    -0.8904590
  H        1.2984780     1.6335140     0.8904580
  H       -1.2984780     1.6335130    -0.8904590
  H       -1.2984780     1.6335130     0.8904590
units angstrom
no_reorient  #important for SAPT in psi4, default
symmetry c1  #important for SAPT in psi4, default
}

set PROPERTIES_ORIGIN ["COM"]
properties('MP2/aug-cc-pvtz', properties = ['dipole'])
--------------------------------------------------------------------------

    Molecular point group: c1
  Charge       = 0
  Multiplicity = 1
  Basis Set: AUG-CC-PVTZ
    Blend: AUG-CC-PVTZ
  Basis Set: (AUG-CC-PVTZ AUX)
    Blend: AUG-CC-PVTZ-JKFIT + DEF2-UNIVERSAL-JKFIT

    Orbital Energies [Eh]
    ---------------------

    Doubly Occupied:

       1A    -11.298370     2A    -11.298242     3A    -11.261406
       4A     -7.718408     5A     -7.717533     6A     -5.549913
       7A     -5.548995     8A     -5.540626     9A     -5.540558
      10A     -5.539756    11A     -5.539695    12A     -2.279304
      13A     -2.278314    14A     -2.274735    15A     -2.274665
      16A     -2.273821    17A     -2.273758    18A     -2.264380
      19A     -2.264379    20A     -2.263523    21A     -2.263522
      22A     -1.108830    23A     -0.994098    24A     -0.895816
      25A     -0.830924    26A     -0.821892    27A     -0.682902
      28A     -0.602369    29A     -0.595326    30A     -0.568587
      31A     -0.520107    32A     -0.475883    33A     -0.435451
      34A     -0.372342    35A     -0.368225    36A     -0.365316
      37A     -0.362037

  @DF-RHF Final Energy:  -706.46516555903963

   => Energetics <=

    Nuclear Repulsion Energy =            332.4149201347627809
    One-Electron Energy =               -1847.2321602868978516
    Two-Electron Energy =                 808.3520745930954945
    Total Energy =                       -706.4651655590396331
  Basis Set: (AUG-CC-PVTZ AUX)
    Blend: AUG-CC-PVTZ-RI + DEF2-QZVPP-RI
    Molecular point group: c1

    Geometry (in Angstrom), charge = 0, multiplicity = 1:

       Center              X                  Y                   Z               Mass
    ------------   -----------------  -----------------  -----------------  -----------------
         I            3.050420226168    -0.129535581023    -0.000924682715   126.904471900000
         I           -3.049793773832    -0.129535581023    -0.000924682715   126.904471900000
         C            0.000313226168     0.168545418977    -0.000923682715    12.000000000000
         C            1.242561226168     1.049828418977    -0.000924682715    12.000000000000
         C           -1.249657173832     1.038543418977     0.021871717285    12.000000000000
         H            0.000313226168    -0.478959581023     0.879648317285     1.007825032230
         H            0.000313226168    -0.478961581023    -0.881492682715     1.007825032230
         H            1.298790226168     1.676803418977    -0.891383682715     1.007825032230
         H            1.298791226168     1.676804418977     0.889533317285     1.007825032230
         H           -1.298164773832     1.676803418977    -0.891383682715     1.007825032230
         H           -1.298164773832     1.676803418977     0.889534317285     1.007825032230

  Basis Set: AUG-CC-PVTZ
    Blend: AUG-CC-PVTZ
  Basis Set: (AUG-CC-PVTZ AUX)
    Blend: AUG-CC-PVTZ-JKFIT + DEF2-UNIVERSAL-JKFIT
	 Reference Energy          =    -706.4651655590396331 [Eh]
	 Singles Energy            =      -0.0000000000000000 [Eh]
	 Same-Spin Energy          =      -0.2803162516987345 [Eh]
	 Opposite-Spin Energy      =      -0.8108254002661784 [Eh]
	 Correlation Energy        =      -1.0911416519649129 [Eh]
	 Total Energy              =    -707.5563072110045368 [Eh]

	 ================> DF-SCS-MP2 Energies <==================
	-----------------------------------------------------------
	 SCS Same-Spin Scale       =       0.3333333333333333 [-]
	 SCS Opposite-Spin Scale   =       1.2000000000000000 [-]
	 SCS Same-Spin Energy      =      -0.0934387505662448 [Eh]
	 SCS Opposite-Spin Energy  =      -0.9729904803194140 [Eh]
	 SCS Correlation Energy    =      -1.0664292308856589 [Eh]
	 SCS Total Energy          =    -707.5315947899252933 [Eh]
	-----------------------------------------------------------

  Dipole Moment: [D]
     X:    -0.0256      Y:     1.5648      Z:     0.0056     Total:     1.5650

*** Psi4 exiting successfully. Buy a developer a beer!
