                               Psi4 1.4a3.dev225

  ==> Input File <==

--------------------------------------------------------------------------
#psi4
#
memory 32 gb

molecule  {
0 1
  I        3.0501070    -0.1728260     0.0000000
  I       -3.0501070    -0.1728260     0.0000000
  C        0.0000000     0.1252550     0.0000010
  C        1.2422480     1.0065380     0.0000000
  C       -1.2841261     0.9792193     0.0000000
  H        0.0000000    -0.5222500     0.8805730
  H        0.0000000    -0.5222520    -0.8805680
  H        1.2984770     1.6335130    -0.8904590
  H        1.2984780     1.6335140     0.8904580
  H       -1.2984780     1.6335130    -0.8904590
  H       -1.2984780     1.6335130     0.8904590
units angstrom
no_reorient  #important for SAPT in psi4, default
symmetry c1  #important for SAPT in psi4, default
}

set PROPERTIES_ORIGIN ["COM"]
properties('MP2/aug-cc-pvtz', properties = ['dipole'])
--------------------------------------------------------------------------

    Molecular point group: c1
  Charge       = 0
  Multiplicity = 1
  Basis Set: AUG-CC-PVTZ
    Blend: AUG-CC-PVTZ
  Basis Set: (AUG-CC-PVTZ AUX)
    Blend: AUG-CC-PVTZ-JKFIT + DEF2-UNIVERSAL-JKFIT

    Orbital Energies [Eh]
    ---------------------

    Doubly Occupied:

       1A    -11.297741     2A    -11.296773     3A    -11.261116
       4A     -7.720548     5A     -7.717263     6A     -5.552181
       7A     -5.548732     8A     -5.542748     9A     -5.542675
      10A     -5.539482    11A     -5.539419    12A     -2.281809
      13A     -2.278051    14A     -2.276986    15A     -2.276911
      16A     -2.273554    17A     -2.273489    18A     -2.266477
      19A     -2.266476    20A     -2.263241    21A     -2.263240
      22A     -1.104619    23A     -0.995476    24A     -0.897158
      25A     -0.830335    26A     -0.819037    27A     -0.679326
      28A     -0.597531    29A     -0.593989    30A     -0.562493
      31A     -0.518372    32A     -0.479876    33A     -0.439635
      34A     -0.372905    35A     -0.368696    36A     -0.365329
      37A     -0.361900

  @DF-RHF Final Energy:  -706.46404542275081

   => Energetics <=

    Nuclear Repulsion Energy =            332.6145517212705158
    One-Electron Energy =               -1847.6260187379673425
    Two-Electron Energy =                 808.5474215939459555
    Total Energy =                       -706.4640454227508144
  Basis Set: (AUG-CC-PVTZ AUX)
    Blend: AUG-CC-PVTZ-RI + DEF2-QZVPP-RI
    Molecular point group: c1

    Geometry (in Angstrom), charge = 0, multiplicity = 1:

       Center              X                  Y                   Z               Mass
    ------------   -----------------  -----------------  -----------------  -----------------
         I            3.051805591166    -0.128885249548    -0.000000054186   126.904471900000
         I           -3.048408408834    -0.128885249548    -0.000000054186   126.904471900000
         C            0.001698591166     0.169195750452     0.000000945814    12.000000000000
         C            1.243946591166     1.050478750452    -0.000000054186    12.000000000000
         C           -1.282427508834     1.023160050452    -0.000000054186    12.000000000000
         H            0.001698591166    -0.478309249548     0.880572945814     1.007825032230
         H            0.001698591166    -0.478311249548    -0.880568054186     1.007825032230
         H            1.300175591166     1.677453750452    -0.890459054186     1.007825032230
         H            1.300176591166     1.677454750452     0.890457945814     1.007825032230
         H           -1.296779408834     1.677453750452    -0.890459054186     1.007825032230
         H           -1.296779408834     1.677453750452     0.890458945814     1.007825032230

  Basis Set: AUG-CC-PVTZ
    Blend: AUG-CC-PVTZ
  Basis Set: (AUG-CC-PVTZ AUX)
    Blend: AUG-CC-PVTZ-JKFIT + DEF2-UNIVERSAL-JKFIT
	 Reference Energy          =    -706.4640454227508144 [Eh]
	 Singles Energy            =      -0.0000000000000000 [Eh]
	 Same-Spin Energy          =      -0.2804517554007592 [Eh]
	 Opposite-Spin Energy      =      -0.8111458521158693 [Eh]
	 Correlation Energy        =      -1.0915976075166285 [Eh]
	 Total Energy              =    -707.5556430302674471 [Eh]

	 ================> DF-SCS-MP2 Energies <==================
	-----------------------------------------------------------
	 SCS Same-Spin Scale       =       0.3333333333333333 [-]
	 SCS Opposite-Spin Scale   =       1.2000000000000000 [-]
	 SCS Same-Spin Energy      =      -0.0934839184669197 [Eh]
	 SCS Opposite-Spin Energy  =      -0.9733750225390432 [Eh]
	 SCS Correlation Energy    =      -1.0668589410059630 [Eh]
	 SCS Total Energy          =    -707.5309043637568038 [Eh]
	-----------------------------------------------------------

  Dipole Moment: [D]
     X:    -0.1065      Y:     1.5290      Z:     0.0000     Total:     1.5327

*** Psi4 exiting successfully. Buy a developer a beer!
