                               Psi4 1.4a3.dev225

  ==> Input File <==

--------------------------------------------------------------------------
#psi4
#
memory 32 gb

molecule  {
0 1
  I        3.0501070    -0.1728260     0.0000000
  I       -3.0501070    -0.1728260     0.0000000
  C        0.0000000     0.1252550     0.0000010
  C        1.2422480     1.0065380     0.0000000
  C       -1.2422490     1.0065380     0.0000000
  H        0.0000000    -0.5222500     0.8805730
  H        0.0000000    -0.4926316    -0.8402861
  H        1.2984770     1.6335130    -0.8904590
  H        1.2984780     1.6335140     0.8904580
  H       -1.2984780     1.6335130    -0.8904590
  H       -1.2984780     1.6335130     0.8904590
units angstrom
no_reorient  #important for SAPT in psi4, default
symmetry c1  #important for SAPT in psi4, default
}

set PROPERTIES_ORIGIN ["COM"]
properties('MP2/aug-cc-pvtz', properties = ['dipole'])
--------------------------------------------------------------------------

    Molecular point group: c1
  Charge       = 0
  Multiplicity = 1
  Basis Set: AUG-CC-PVTZ
    Blend: AUG-CC-PVTZ
  Basis Set: (AUG-CC-PVTZ AUX)
    Blend: AUG-CC-PVTZ-JKFIT + DEF2-UNIVERSAL-JKFIT

    Orbital Energies [Eh]
    ---------------------

    Doubly Occupied:

       1A    -11.298252     2A    -11.298251     3A    -11.255957
       4A     -7.717605     5A     -7.717604     6A     -5.549055
       7A     -5.549055     8A     -5.539836     9A     -5.539836
      10A     -5.539772    11A     -5.539772    12A     -2.278374
      13A     -2.278371    14A     -2.273890    15A     -2.273888
      16A     -2.273823    17A     -2.273821    18A     -2.263609
      19A     -2.263609    20A     -2.263608    21A     -2.263608
      22A     -1.111384    23A     -0.993586    24A     -0.897179
      25A     -0.831036    26A     -0.826449    27A     -0.687227
      28A     -0.602582    29A     -0.596637    30A     -0.572092
      31A     -0.526236    32A     -0.475530    33A     -0.433558
      34A     -0.372136    35A     -0.368130    36A     -0.365311
      37A     -0.361850

  @DF-RHF Final Energy:  -706.46509368229204

   => Energetics <=

    Nuclear Repulsion Energy =            332.5211782864807333
    One-Electron Energy =               -1847.4275081493640300
    Two-Electron Energy =                 808.4412361805912042
    Total Energy =                       -706.4650936822920357
  Basis Set: (AUG-CC-PVTZ AUX)
    Blend: AUG-CC-PVTZ-RI + DEF2-QZVPP-RI
    Molecular point group: c1

    Geometry (in Angstrom), charge = 0, multiplicity = 1:

       Center              X                  Y                   Z               Mass
    ------------   -----------------  -----------------  -----------------  -----------------
         I            3.050107043967    -0.130094204948    -0.000137273380   126.904471900000
         I           -3.050106956033    -0.130094204948    -0.000137273380   126.904471900000
         C            0.000000043967     0.167986795052    -0.000136273380    12.000000000000
         C            1.242248043967     1.049269795052    -0.000137273380    12.000000000000
         C           -1.242248956033     1.049269795052    -0.000137273380    12.000000000000
         H            0.000000043967    -0.479518204948     0.880435726620     1.007825032230
         H            0.000000043967    -0.449899804948    -0.840423373380     1.007825032230
         H            1.298477043967     1.676244795052    -0.890596273380     1.007825032230
         H            1.298478043967     1.676245795052     0.890320726620     1.007825032230
         H           -1.298477956033     1.676244795052    -0.890596273380     1.007825032230
         H           -1.298477956033     1.676244795052     0.890321726620     1.007825032230

  Basis Set: AUG-CC-PVTZ
    Blend: AUG-CC-PVTZ
  Basis Set: (AUG-CC-PVTZ AUX)
    Blend: AUG-CC-PVTZ-JKFIT + DEF2-UNIVERSAL-JKFIT
	 Reference Energy          =    -706.4650936822920357 [Eh]
	 Singles Energy            =      -0.0000000000000000 [Eh]
	 Same-Spin Energy          =      -0.2801578994766245 [Eh]
	 Opposite-Spin Energy      =      -0.8103161734255778 [Eh]
	 Correlation Energy        =      -1.0904740729022024 [Eh]
	 Total Energy              =    -707.5555677551942608 [Eh]

	 ================> DF-SCS-MP2 Energies <==================
	-----------------------------------------------------------
	 SCS Same-Spin Scale       =       0.3333333333333333 [-]
	 SCS Opposite-Spin Scale   =       1.2000000000000000 [-]
	 SCS Same-Spin Energy      =      -0.0933859664922082 [Eh]
	 SCS Opposite-Spin Energy  =      -0.9723794081106933 [Eh]
	 SCS Correlation Energy    =      -1.0657653746029014 [Eh]
	 SCS Total Energy          =    -707.5308590568948830 [Eh]
	-----------------------------------------------------------

  Dipole Moment: [D]
     X:    -0.0000      Y:     1.5735      Z:    -0.0060     Total:     1.5735

*** Psi4 exiting successfully. Buy a developer a beer!
