                               Psi4 1.4a3.dev225

  ==> Input File <==

--------------------------------------------------------------------------
#psi4
#
memory 32 gb

molecule  {
0 1
  I        2.9169263    -0.3553380     0.0000002
  I       -3.0501070    -0.1728260     0.0000000
  C        0.0000000     0.1252550     0.0000010
  C        1.2422480     1.0065380     0.0000000
  C       -1.2422490     1.0065380     0.0000000
  H        0.0000000    -0.5222500     0.8805730
  H        0.0000000    -0.5222520    -0.8805680
  H        1.2984770     1.6335130    -0.8904590
  H        1.2984780     1.6335140     0.8904580
  H       -1.2984780     1.6335130    -0.8904590
  H       -1.2984780     1.6335130     0.8904590
units angstrom
no_reorient  #important for SAPT in psi4, default
symmetry c1  #important for SAPT in psi4, default
}

set PROPERTIES_ORIGIN ["COM"]
properties('MP2/aug-cc-pvtz', properties = ['dipole'])
--------------------------------------------------------------------------

    Molecular point group: c1
  Charge       = 0
  Multiplicity = 1
  Basis Set: AUG-CC-PVTZ
    Blend: AUG-CC-PVTZ
  Basis Set: (AUG-CC-PVTZ AUX)
    Blend: AUG-CC-PVTZ-JKFIT + DEF2-UNIVERSAL-JKFIT

    Orbital Energies [Eh]
    ---------------------

    Doubly Occupied:

       1A    -11.299074     2A    -11.297055     3A    -11.260518
       4A     -7.717731     5A     -7.716585     6A     -5.549234
       7A     -5.548015     8A     -5.539910     9A     -5.539898
      10A     -5.538825    11A     -5.538769    12A     -2.278569
      13A     -2.277330    14A     -2.274032    15A     -2.274024
      16A     -2.272856    17A     -2.272796    18A     -2.263689
      19A     -2.263687    20A     -2.262616    21A     -2.262615
      22A     -1.110201    23A     -0.993586    24A     -0.891544
      25A     -0.832293    26A     -0.824361    27A     -0.684311
      28A     -0.602292    29A     -0.597890    30A     -0.568644
      31A     -0.521020    32A     -0.476177    33A     -0.432291
      34A     -0.371781    35A     -0.368444    36A     -0.365111
      37A     -0.360265

  @DF-RHF Final Energy:  -706.46377010591232

   => Energetics <=

    Nuclear Repulsion Energy =            334.9926148858577335
    One-Electron Energy =               -1852.4166897202924247
    Two-Electron Energy =                 810.9603047285222601
    Total Energy =                       -706.4637701059123174
  Basis Set: (AUG-CC-PVTZ AUX)
    Blend: AUG-CC-PVTZ-RI + DEF2-QZVPP-RI
    Molecular point group: c1

    Geometry (in Angstrom), charge = 0, multiplicity = 1:

       Center              X                  Y                   Z               Mass
    ------------   -----------------  -----------------  -----------------  -----------------
         I            2.974052893560    -0.234218578989     0.000000060026   126.904471900000
         I           -2.992980406440    -0.051706578989    -0.000000139974   126.904471900000
         C            0.057126593560     0.246374421011     0.000000860026    12.000000000000
         C            1.299374593560     1.127657421011    -0.000000139974    12.000000000000
         C           -1.185122406440     1.127657421011    -0.000000139974    12.000000000000
         H            0.057126593560    -0.401130578989     0.880572860026     1.007825032230
         H            0.057126593560    -0.401132578989    -0.880568139974     1.007825032230
         H            1.355603593560     1.754632421011    -0.890459139974     1.007825032230
         H            1.355604593560     1.754633421011     0.890457860026     1.007825032230
         H           -1.241351406440     1.754632421011    -0.890459139974     1.007825032230
         H           -1.241351406440     1.754632421011     0.890458860026     1.007825032230

  Basis Set: AUG-CC-PVTZ
    Blend: AUG-CC-PVTZ
  Basis Set: (AUG-CC-PVTZ AUX)
    Blend: AUG-CC-PVTZ-JKFIT + DEF2-UNIVERSAL-JKFIT
	 Reference Energy          =    -706.4637701059123174 [Eh]
	 Singles Energy            =      -0.0000000000000000 [Eh]
	 Same-Spin Energy          =      -0.2806270690438587 [Eh]
	 Opposite-Spin Energy      =      -0.8112745412975086 [Eh]
	 Correlation Energy        =      -1.0919016103413672 [Eh]
	 Total Energy              =    -707.5556717162536415 [Eh]

	 ================> DF-SCS-MP2 Energies <==================
	-----------------------------------------------------------
	 SCS Same-Spin Scale       =       0.3333333333333333 [-]
	 SCS Opposite-Spin Scale   =       1.2000000000000000 [-]
	 SCS Same-Spin Energy      =      -0.0935423563479529 [Eh]
	 SCS Opposite-Spin Energy  =      -0.9735294495570104 [Eh]
	 SCS Correlation Energy    =      -1.0670718059049633 [Eh]
	 SCS Total Energy          =    -707.5308419118173333 [Eh]
	-----------------------------------------------------------

  Dipole Moment: [D]
     X:     0.1191      Y:     1.6604      Z:     0.0000     Total:     1.6647

*** Psi4 exiting successfully. Buy a developer a beer!
