                               Psi4 1.4a3.dev225

  ==> Input File <==

--------------------------------------------------------------------------
#psi4
#
memory 32 gb

molecule  {
0 1
  I        3.0501070    -0.1728260     0.0000000
  I       -3.0021404    -0.2367309    -0.1277292
  C        0.0000000     0.1252550     0.0000010
  C        1.2422480     1.0065380     0.0000000
  C       -1.2422490     1.0065380     0.0000000
  H        0.0000000    -0.5222500     0.8805730
  H        0.0000000    -0.5222520    -0.8805680
  H        1.2984770     1.6335130    -0.8904590
  H        1.2984780     1.6335140     0.8904580
  H       -1.2984780     1.6335130    -0.8904590
  H       -1.2984780     1.6335130     0.8904590
units angstrom
no_reorient  #important for SAPT in psi4, default
symmetry c1  #important for SAPT in psi4, default
}

set PROPERTIES_ORIGIN ["COM"]
properties('MP2/aug-cc-pvtz', properties = ['dipole'])
--------------------------------------------------------------------------

    Molecular point group: c1
  Charge       = 0
  Multiplicity = 1
  Basis Set: AUG-CC-PVTZ
    Blend: AUG-CC-PVTZ
  Basis Set: (AUG-CC-PVTZ AUX)
    Blend: AUG-CC-PVTZ-JKFIT + DEF2-UNIVERSAL-JKFIT

    Orbital Energies [Eh]
    ---------------------

    Doubly Occupied:

       1A    -11.298722     2A    -11.298028     3A    -11.261336
       4A     -7.717680     5A     -7.717237     6A     -5.549154
       7A     -5.548685     8A     -5.539888     9A     -5.539846
      10A     -5.539467    11A     -5.539408    12A     -2.278478
      13A     -2.278002    14A     -2.273972    15A     -2.273926
      16A     -2.273518    17A     -2.273456    18A     -2.263662
      19A     -2.263660    20A     -2.263244    21A     -2.263244
      22A     -1.109663    23A     -0.993690    24A     -0.893959
      25A     -0.831281    26A     -0.823663    27A     -0.684308
      28A     -0.602614    29A     -0.597210    30A     -0.569452
      31A     -0.521411    32A     -0.475370    33A     -0.433168
      34A     -0.372046    35A     -0.368137    36A     -0.365270
      37A     -0.361374

  @DF-RHF Final Energy:  -706.46521176069427

   => Energetics <=

    Nuclear Repulsion Energy =            333.2232227035563028
    One-Electron Energy =               -1848.8624132843665393
    Two-Electron Energy =                 809.1739788201159627
    Total Energy =                       -706.4652117606942738
  Basis Set: (AUG-CC-PVTZ AUX)
    Blend: AUG-CC-PVTZ-RI + DEF2-QZVPP-RI
    Molecular point group: c1

    Geometry (in Angstrom), charge = 0, multiplicity = 1:

       Center              X                  Y                   Z               Mass
    ------------   -----------------  -----------------  -----------------  -----------------
         I            3.029532243311    -0.102581926395     0.054788128173   126.904471900000
         I           -3.022715156689    -0.166486826395    -0.072941071827   126.904471900000
         C           -0.020574756689     0.195499073605     0.054789128173    12.000000000000
         C            1.221673243311     1.076782073605     0.054788128173    12.000000000000
         C           -1.262823756689     1.076782073605     0.054788128173    12.000000000000
         H           -0.020574756689    -0.452005926395     0.935361128173     1.007825032230
         H           -0.020574756689    -0.452007926395    -0.825779871827     1.007825032230
         H            1.277902243311     1.703757073605    -0.835670871827     1.007825032230
         H            1.277903243311     1.703758073605     0.945246128173     1.007825032230
         H           -1.319052756689     1.703757073605    -0.835670871827     1.007825032230
         H           -1.319052756689     1.703757073605     0.945247128173     1.007825032230

  Basis Set: AUG-CC-PVTZ
    Blend: AUG-CC-PVTZ
  Basis Set: (AUG-CC-PVTZ AUX)
    Blend: AUG-CC-PVTZ-JKFIT + DEF2-UNIVERSAL-JKFIT
	 Reference Energy          =    -706.4652117606942738 [Eh]
	 Singles Energy            =      -0.0000000000000000 [Eh]
	 Same-Spin Energy          =      -0.2803637065995946 [Eh]
	 Opposite-Spin Energy      =      -0.8108648791434983 [Eh]
	 Correlation Energy        =      -1.0912285857430928 [Eh]
	 Total Energy              =    -707.5564403464373981 [Eh]

	 ================> DF-SCS-MP2 Energies <==================
	-----------------------------------------------------------
	 SCS Same-Spin Scale       =       0.3333333333333333 [-]
	 SCS Opposite-Spin Scale   =       1.2000000000000000 [-]
	 SCS Same-Spin Energy      =      -0.0934545688665315 [Eh]
	 SCS Opposite-Spin Energy  =      -0.9730378549721979 [Eh]
	 SCS Correlation Energy    =      -1.0664924238387294 [Eh]
	 SCS Total Energy          =    -707.5317041845330550 [Eh]
	-----------------------------------------------------------

  Dipole Moment: [D]
     X:    -0.0443      Y:     1.6083      Z:     0.0608     Total:     1.6101

*** Psi4 exiting successfully. Buy a developer a beer!
