                               Psi4 1.4a3.dev225

  ==> Input File <==

--------------------------------------------------------------------------
#psi4
#
memory 32 gb

molecule  {
0 1
  I        3.0501070    -0.1728260     0.0000000
  I       -3.0501070    -0.1728260     0.0000000
  C        0.0000000     0.1252550     0.0000010
  C        1.2422480     1.0065380     0.0000000
  C       -1.2422490     1.0065380     0.0000000
  H        0.0000000    -0.5222500     0.8805730
  H        0.0000000    -0.5222520    -0.8805680
  H        1.2984770     1.6335130    -0.8904590
  H        1.2984780     1.6335140     0.8904580
  H       -1.2984780     1.6335130    -0.8904590
  H       -1.2984780     1.6335130     0.8904590
units angstrom
no_reorient  #important for SAPT in psi4, default
symmetry c1  #important for SAPT in psi4, default
}

set PROPERTIES_ORIGIN ["COM"]
properties('MP2/aug-cc-pvtz', properties = ['dipole'])
--------------------------------------------------------------------------

    Molecular point group: c1
  Charge       = 0
  Multiplicity = 1
  Basis Set: AUG-CC-PVTZ
    Blend: AUG-CC-PVTZ
  Basis Set: (AUG-CC-PVTZ AUX)
    Blend: AUG-CC-PVTZ-JKFIT + DEF2-UNIVERSAL-JKFIT

    Orbital Energies [Eh]
    ---------------------

    Doubly Occupied:

       1A    -11.298540     2A    -11.298540     3A    -11.261832
       4A     -7.717600     5A     -7.717600     6A     -5.549058
       7A     -5.549058     8A     -5.539825     9A     -5.539825
      10A     -5.539765    11A     -5.539765    12A     -2.278378
      13A     -2.278375    14A     -2.273887    15A     -2.273885
      16A     -2.273825    17A     -2.273822    18A     -2.263595
      19A     -2.263595    20A     -2.263595    21A     -2.263594
      22A     -1.109433    23A     -0.993732    24A     -0.895176
      25A     -0.831119    26A     -0.822963    27A     -0.684353
      28A     -0.602725    29A     -0.596893    30A     -0.569938
      31A     -0.521601    32A     -0.474996    33A     -0.433702
      34A     -0.372096    35A     -0.368132    36A     -0.365304
      37A     -0.361868

  @DF-RHF Final Energy:  -706.46600538859525

   => Energetics <=

    Nuclear Repulsion Energy =            332.2777551657758863
    One-Electron Energy =               -1846.9635377133649854
    Two-Electron Energy =                 808.2197771589937929
    Total Energy =                       -706.4660053885952493
  Basis Set: (AUG-CC-PVTZ AUX)
    Blend: AUG-CC-PVTZ-RI + DEF2-QZVPP-RI
    Molecular point group: c1

    Geometry (in Angstrom), charge = 0, multiplicity = 1:

       Center              X                  Y                   Z               Mass
    ------------   -----------------  -----------------  -----------------  -----------------
         I            3.050107043967    -0.129993303863    -0.000000054186   126.904471900000
         I           -3.050106956033    -0.129993303863    -0.000000054186   126.904471900000
         C            0.000000043967     0.168087696137     0.000000945814    12.000000000000
         C            1.242248043967     1.049370696137    -0.000000054186    12.000000000000
         C           -1.242248956033     1.049370696137    -0.000000054186    12.000000000000
         H            0.000000043967    -0.479417303863     0.880572945814     1.007825032230
         H            0.000000043967    -0.479419303863    -0.880568054186     1.007825032230
         H            1.298477043967     1.676345696137    -0.890459054186     1.007825032230
         H            1.298478043967     1.676346696137     0.890457945814     1.007825032230
         H           -1.298477956033     1.676345696137    -0.890459054186     1.007825032230
         H           -1.298477956033     1.676345696137     0.890458945814     1.007825032230

  Basis Set: AUG-CC-PVTZ
    Blend: AUG-CC-PVTZ
  Basis Set: (AUG-CC-PVTZ AUX)
    Blend: AUG-CC-PVTZ-JKFIT + DEF2-UNIVERSAL-JKFIT
	 Reference Energy          =    -706.4660053885952493 [Eh]
	 Singles Energy            =      -0.0000000000000000 [Eh]
	 Same-Spin Energy          =      -0.2802232945170696 [Eh]
	 Opposite-Spin Energy      =      -0.8106473233234621 [Eh]
	 Correlation Energy        =      -1.0908706178405319 [Eh]
	 Total Energy              =    -707.5568760064358003 [Eh]

	 ================> DF-SCS-MP2 Energies <==================
	-----------------------------------------------------------
	 SCS Same-Spin Scale       =       0.3333333333333333 [-]
	 SCS Opposite-Spin Scale   =       1.2000000000000000 [-]
	 SCS Same-Spin Energy      =      -0.0934077648390232 [Eh]
	 SCS Opposite-Spin Energy  =      -0.9727767879881545 [Eh]
	 SCS Correlation Energy    =      -1.0661845528271776 [Eh]
	 SCS Total Energy          =    -707.5321899414224163 [Eh]
	-----------------------------------------------------------

  Dipole Moment: [D]
     X:    -0.0000      Y:     1.5790      Z:     0.0000     Total:     1.5790

*** Psi4 exiting successfully. Buy a developer a beer!
