                               Psi4 1.4a3.dev225

  ==> Input File <==

--------------------------------------------------------------------------
#psi4
#
memory 32 gb

molecule  {
0 1
  I        3.0501070    -0.1728260     0.0000000
  I       -3.0501070    -0.1728260     0.0000000
  C        0.0000000     0.1252550     0.0000010
  C        1.2422480     1.0065380     0.0000000
  C       -1.2422490     1.0065380     0.0000000
  H        0.0000000    -0.5222500     0.8805730
  H        0.0000000    -0.5222520    -0.8805680
  H        1.2984770     1.6335130    -0.8904590
  H        1.2984780     1.6335140     0.8904580
  H       -1.2898558     1.5373721    -0.9513807
  H       -1.2984780     1.6335130     0.8904590
units angstrom
no_reorient  #important for SAPT in psi4, default
symmetry c1  #important for SAPT in psi4, default
}

set PROPERTIES_ORIGIN ["COM"]
properties('MP2/aug-cc-pvtz', properties = ['dipole'])
--------------------------------------------------------------------------

    Molecular point group: c1
  Charge       = 0
  Multiplicity = 1
  Basis Set: AUG-CC-PVTZ
    Blend: AUG-CC-PVTZ
  Basis Set: (AUG-CC-PVTZ AUX)
    Blend: AUG-CC-PVTZ-JKFIT + DEF2-UNIVERSAL-JKFIT

    Orbital Energies [Eh]
    ---------------------

    Doubly Occupied:

       1A    -11.299393     2A    -11.298614     3A    -11.261146
       4A     -7.717699     5A     -7.716991     6A     -5.549162
       7A     -5.548413     8A     -5.539920     9A     -5.539862
      10A     -5.539233    11A     -5.539187    12A     -2.278481
      13A     -2.277732    14A     -2.273986    15A     -2.273926
      16A     -2.273258    17A     -2.273214    18A     -2.263688
      19A     -2.263687    20A     -2.263044    21A     -2.263043
      22A     -1.110204    23A     -0.994212    24A     -0.895014
      25A     -0.830674    26A     -0.820770    27A     -0.688732
      28A     -0.608825    29A     -0.593163    30A     -0.569121
      31A     -0.523028    32A     -0.472318    33A     -0.433184
      34A     -0.371853    35A     -0.368150    36A     -0.365364
      37A     -0.361495

  @DF-RHF Final Energy:  -706.46468623935129

   => Energetics <=

    Nuclear Repulsion Energy =            332.3968906843913373
    One-Electron Energy =               -1847.2035870644301667
    Two-Electron Energy =                 808.3420101406875347
    Total Energy =                       -706.4646862393512947
  Basis Set: (AUG-CC-PVTZ AUX)
    Blend: AUG-CC-PVTZ-RI + DEF2-QZVPP-RI
    Molecular point group: c1

    Geometry (in Angstrom), charge = 0, multiplicity = 1:

       Center              X                  Y                   Z               Mass
    ------------   -----------------  -----------------  -----------------  -----------------
         I            3.050077672678    -0.129665802510     0.000207473923   126.904471900000
         I           -3.050136327322    -0.129665802510     0.000207473923   126.904471900000
         C           -0.000029327322     0.168415197490     0.000208473923    12.000000000000
         C            1.242218672678     1.049698197490     0.000207473923    12.000000000000
         C           -1.242278327322     1.049698197490     0.000207473923    12.000000000000
         H           -0.000029327322    -0.479089802510     0.880780473923     1.007825032230
         H           -0.000029327322    -0.479091802510    -0.880360526077     1.007825032230
         H            1.298447672678     1.676673197490    -0.890251526077     1.007825032230
         H            1.298448672678     1.676674197490     0.890665473923     1.007825032230
         H           -1.289885127322     1.580532297490    -0.951173226077     1.007825032230
         H           -1.298507327322     1.676673197490     0.890666473923     1.007825032230

  Basis Set: AUG-CC-PVTZ
    Blend: AUG-CC-PVTZ
  Basis Set: (AUG-CC-PVTZ AUX)
    Blend: AUG-CC-PVTZ-JKFIT + DEF2-UNIVERSAL-JKFIT
	 Reference Energy          =    -706.4646862393512947 [Eh]
	 Singles Energy            =      -0.0000000000000000 [Eh]
	 Same-Spin Energy          =      -0.2803506850011576 [Eh]
	 Opposite-Spin Energy      =      -0.8108070956301123 [Eh]
	 Correlation Energy        =      -1.0911577806312698 [Eh]
	 Total Energy              =    -707.5558440199826009 [Eh]

	 ================> DF-SCS-MP2 Energies <==================
	-----------------------------------------------------------
	 SCS Same-Spin Scale       =       0.3333333333333333 [-]
	 SCS Opposite-Spin Scale   =       1.2000000000000000 [-]
	 SCS Same-Spin Energy      =      -0.0934502283337192 [Eh]
	 SCS Opposite-Spin Energy  =      -0.9729685147561348 [Eh]
	 SCS Correlation Energy    =      -1.0664187430898540 [Eh]
	 SCS Total Energy          =    -707.5311049824410929 [Eh]
	-----------------------------------------------------------

  Dipole Moment: [D]
     X:     0.0200      Y:     1.5658      Z:    -0.0180     Total:     1.5661

*** Psi4 exiting successfully. Buy a developer a beer!
