                               Psi4 1.4a3.dev225

  ==> Input File <==

--------------------------------------------------------------------------
#psi4
#
memory 32 gb

molecule  {
0 1
  I        3.0501070    -0.1728260     0.0000000
  I       -3.1054812    -0.0663003    -0.1913993
  C        0.0000000     0.1252550     0.0000010
  C        1.2422480     1.0065380     0.0000000
  C       -1.2422490     1.0065380     0.0000000
  H        0.0000000    -0.5222500     0.8805730
  H        0.0000000    -0.5222520    -0.8805680
  H        1.2984770     1.6335130    -0.8904590
  H        1.2984780     1.6335140     0.8904580
  H       -1.2984780     1.6335130    -0.8904590
  H       -1.2984780     1.6335130     0.8904590
units angstrom
no_reorient  #important for SAPT in psi4, default
symmetry c1  #important for SAPT in psi4, default
}

set PROPERTIES_ORIGIN ["COM"]
properties('MP2/aug-cc-pvtz', properties = ['dipole'])
--------------------------------------------------------------------------

    Molecular point group: c1
  Charge       = 0
  Multiplicity = 1
  Basis Set: AUG-CC-PVTZ
    Blend: AUG-CC-PVTZ
  Basis Set: (AUG-CC-PVTZ AUX)
    Blend: AUG-CC-PVTZ-JKFIT + DEF2-UNIVERSAL-JKFIT

    Orbital Energies [Eh]
    ---------------------

    Doubly Occupied:

       1A    -11.299193     2A    -11.298138     3A    -11.262547
       4A     -7.718066     5A     -7.717674     6A     -5.549536
       7A     -5.549145     8A     -5.540284     9A     -5.540222
      10A     -5.539911    11A     -5.539807    12A     -2.278856
      13A     -2.278460    14A     -2.274359    15A     -2.274294
      16A     -2.273982    17A     -2.273890    18A     -2.264045
      19A     -2.264044    20A     -2.263653    21A     -2.263650
      22A     -1.109211    23A     -0.994012    24A     -0.897026
      25A     -0.831170    26A     -0.821644    27A     -0.684423
      28A     -0.603056    29A     -0.596509    30A     -0.570579
      31A     -0.522081    32A     -0.474142    33A     -0.433984
      34A     -0.372177    35A     -0.368092    36A     -0.365018
      37A     -0.362471

  @DF-RHF Final Energy:  -706.46486038329863

   => Energetics <=

    Nuclear Repulsion Energy =            331.1077830126823187
    One-Electron Energy =               -1844.6065905901241422
    Two-Electron Energy =                 807.0339471941431384
    Total Energy =                       -706.4648603832986282
  Basis Set: (AUG-CC-PVTZ AUX)
    Blend: AUG-CC-PVTZ-RI + DEF2-QZVPP-RI
    Molecular point group: c1

    Geometry (in Angstrom), charge = 0, multiplicity = 1:

       Center              X                  Y                   Z               Mass
    ------------   -----------------  -----------------  -----------------  -----------------
         I            3.073859261687    -0.175686453727     0.082098790493   126.904471900000
         I           -3.081728938313    -0.069160753727    -0.109300509507   126.904471900000
         C            0.023752261687     0.122394546273     0.082099790493    12.000000000000
         C            1.266000261687     1.003677546273     0.082098790493    12.000000000000
         C           -1.218496738313     1.003677546273     0.082098790493    12.000000000000
         H            0.023752261687    -0.525110453727     0.962671790493     1.007825032230
         H            0.023752261687    -0.525112453727    -0.798469209507     1.007825032230
         H            1.322229261687     1.630652546273    -0.808360209507     1.007825032230
         H            1.322230261687     1.630653546273     0.972556790493     1.007825032230
         H           -1.274725738313     1.630652546273    -0.808360209507     1.007825032230
         H           -1.274725738313     1.630652546273     0.972557790493     1.007825032230

  Basis Set: AUG-CC-PVTZ
    Blend: AUG-CC-PVTZ
  Basis Set: (AUG-CC-PVTZ AUX)
    Blend: AUG-CC-PVTZ-JKFIT + DEF2-UNIVERSAL-JKFIT
	 Reference Energy          =    -706.4648603832986282 [Eh]
	 Singles Energy            =      -0.0000000000000000 [Eh]
	 Same-Spin Energy          =      -0.2801586298234454 [Eh]
	 Opposite-Spin Energy      =      -0.8105798247779543 [Eh]
	 Correlation Energy        =      -1.0907384546013996 [Eh]
	 Total Energy              =    -707.5555988378999928 [Eh]

	 ================> DF-SCS-MP2 Energies <==================
	-----------------------------------------------------------
	 SCS Same-Spin Scale       =       0.3333333333333333 [-]
	 SCS Opposite-Spin Scale   =       1.2000000000000000 [-]
	 SCS Same-Spin Energy      =      -0.0933862099411485 [Eh]
	 SCS Opposite-Spin Energy  =      -0.9726957897335451 [Eh]
	 SCS Correlation Energy    =      -1.0660819996746935 [Eh]
	 SCS Total Energy          =    -707.5309423829733078 [Eh]
	-----------------------------------------------------------

  Dipole Moment: [D]
     X:     0.0575      Y:     1.5283      Z:     0.0930     Total:     1.5322

*** Psi4 exiting successfully. Buy a developer a beer!
