                               Psi4 1.4a3.dev225

  ==> Input File <==

--------------------------------------------------------------------------
#psi4
#
memory 32 gb

molecule  {
0 1
  I        3.0501070    -0.1728260     0.0000000
  I       -3.0501070    -0.1728260     0.0000000
  C        0.0000000     0.1252550     0.0000010
  C        1.2422480     1.0065380     0.0000000
  C       -1.2254982     1.0174655     0.0000000
  H        0.0000000    -0.5222500     0.8805730
  H        0.0000000    -0.5222520    -0.8805680
  H        1.2984770     1.6335130    -0.8904590
  H        1.2984780     1.6335140     0.8904580
  H       -1.2984780     1.6335130    -0.8904590
  H       -1.2984780     1.6335130     0.8904590
units angstrom
no_reorient  #important for SAPT in psi4, default
symmetry c1  #important for SAPT in psi4, default
}

set PROPERTIES_ORIGIN ["COM"]
properties('MP2/aug-cc-pvtz', properties = ['dipole'])
--------------------------------------------------------------------------

    Molecular point group: c1
  Charge       = 0
  Multiplicity = 1
  Basis Set: AUG-CC-PVTZ
    Blend: AUG-CC-PVTZ
  Basis Set: (AUG-CC-PVTZ AUX)
    Blend: AUG-CC-PVTZ-JKFIT + DEF2-UNIVERSAL-JKFIT

    Orbital Energies [Eh]
    ---------------------

    Doubly Occupied:

       1A    -11.299518     2A    -11.298939     3A    -11.262232
       4A     -7.717789     5A     -7.716322     6A     -5.549244
       7A     -5.547709     8A     -5.540016     9A     -5.539956
      10A     -5.538561    11A     -5.538505    12A     -2.278563
      13A     -2.276919    14A     -2.274074    15A     -2.274012
      16A     -2.272549    17A     -2.272491    18A     -2.263789
      19A     -2.263788    20A     -2.262353    21A     -2.262353
      22A     -1.111514    23A     -0.993259    24A     -0.894435
      25A     -0.831445    26A     -0.824413    27A     -0.686524
      28A     -0.604758    29A     -0.598421    30A     -0.572779
      31A     -0.522904    32A     -0.473590    33A     -0.430760
      34A     -0.371762    35A     -0.367987    36A     -0.365111
      37A     -0.361740

  @DF-RHF Final Energy:  -706.46594553991872

   => Energetics <=

    Nuclear Repulsion Energy =            332.1504749820863935
    One-Electron Energy =               -1846.7106780085455284
    Two-Electron Energy =                 808.0942574865403003
    Total Energy =                       -706.4659455399187209
  Basis Set: (AUG-CC-PVTZ AUX)
    Blend: AUG-CC-PVTZ-RI + DEF2-QZVPP-RI
    Molecular point group: c1

    Geometry (in Angstrom), charge = 0, multiplicity = 1:

       Center              X                  Y                   Z               Mass
    ------------   -----------------  -----------------  -----------------  -----------------
         I            3.049427626710    -0.130436526401    -0.000000054186   126.904471900000
         I           -3.050786373290    -0.130436526401    -0.000000054186   126.904471900000
         C           -0.000679373290     0.167644473599     0.000000945814    12.000000000000
         C            1.241568626710     1.048927473599    -0.000000054186    12.000000000000
         C           -1.226177573290     1.059854973599    -0.000000054186    12.000000000000
         H           -0.000679373290    -0.479860526401     0.880572945814     1.007825032230
         H           -0.000679373290    -0.479862526401    -0.880568054186     1.007825032230
         H            1.297797626710     1.675902473599    -0.890459054186     1.007825032230
         H            1.297798626710     1.675903473599     0.890457945814     1.007825032230
         H           -1.299157373290     1.675902473599    -0.890459054186     1.007825032230
         H           -1.299157373290     1.675902473599     0.890458945814     1.007825032230

  Basis Set: AUG-CC-PVTZ
    Blend: AUG-CC-PVTZ
  Basis Set: (AUG-CC-PVTZ AUX)
    Blend: AUG-CC-PVTZ-JKFIT + DEF2-UNIVERSAL-JKFIT
	 Reference Energy          =    -706.4659455399187209 [Eh]
	 Singles Energy            =      -0.0000000000000000 [Eh]
	 Same-Spin Energy          =      -0.2801703045793131 [Eh]
	 Opposite-Spin Energy      =      -0.8104987873933589 [Eh]
	 Correlation Energy        =      -1.0906690919726720 [Eh]
	 Total Energy              =    -707.5566146318914207 [Eh]

	 ================> DF-SCS-MP2 Energies <==================
	-----------------------------------------------------------
	 SCS Same-Spin Scale       =       0.3333333333333333 [-]
	 SCS Opposite-Spin Scale   =       1.2000000000000000 [-]
	 SCS Same-Spin Energy      =      -0.0933901015264377 [Eh]
	 SCS Opposite-Spin Energy  =      -0.9725985448720307 [Eh]
	 SCS Correlation Energy    =      -1.0659886463984685 [Eh]
	 SCS Total Energy          =    -707.5319341863172440 [Eh]
	-----------------------------------------------------------

  Dipole Moment: [D]
     X:     0.0466      Y:     1.5993      Z:     0.0000     Total:     1.6000

*** Psi4 exiting successfully. Buy a developer a beer!
