                               Psi4 1.4a3.dev225

  ==> Input File <==

--------------------------------------------------------------------------
#psi4
#
memory 32 gb

molecule  {
0 1
  I        3.0501070    -0.1728260     0.0000000
  I       -3.0501070    -0.1728260     0.0000000
  C        0.0000000     0.1252550     0.0000010
  C        1.2422480     1.0065380     0.0000000
  C       -1.2422490     1.0065380     0.0000000
  H        0.0000000    -0.5222500     0.8805730
  H        0.0000000    -0.5222520    -0.8805680
  H        1.2984770     1.6335130    -0.8904590
  H        1.2984780     1.6335140     0.8904580
  H       -1.2956678     1.6021787    -0.9118855
  H       -1.2984780     1.6335130     0.8904590
units angstrom
no_reorient  #important for SAPT in psi4, default
symmetry c1  #important for SAPT in psi4, default
}

set PROPERTIES_ORIGIN ["COM"]
properties('MP2/aug-cc-pvtz', properties = ['dipole'])
--------------------------------------------------------------------------

    Molecular point group: c1
  Charge       = 0
  Multiplicity = 1
  Basis Set: AUG-CC-PVTZ
    Blend: AUG-CC-PVTZ
  Basis Set: (AUG-CC-PVTZ AUX)
    Blend: AUG-CC-PVTZ-JKFIT + DEF2-UNIVERSAL-JKFIT

    Orbital Energies [Eh]
    ---------------------

    Doubly Occupied:

       1A    -11.298828     2A    -11.298561     3A    -11.261591
       4A     -7.717631     5A     -7.717395     6A     -5.549090
       7A     -5.548840     8A     -5.539855     9A     -5.539795
      10A     -5.539625    11A     -5.539571    12A     -2.278409
      13A     -2.278159    14A     -2.273917    15A     -2.273855
      16A     -2.273674    17A     -2.273618    18A     -2.263624
      19A     -2.263623    20A     -2.263410    21A     -2.263409
      22A     -1.109667    23A     -0.993870    24A     -0.895116
      25A     -0.830927    26A     -0.822250    27A     -0.685749
      28A     -0.604800    29A     -0.595654    30A     -0.569674
      31A     -0.522155    32A     -0.474133    33A     -0.433542
      34A     -0.372009    35A     -0.368144    36A     -0.365332
      37A     -0.361750

  @DF-RHF Final Energy:  -706.46584795298520

   => Energetics <=

    Nuclear Repulsion Energy =            332.3157215957468793
    One-Electron Energy =               -1847.0406356649712052
    Two-Electron Energy =                 808.2590661162390688
    Total Energy =                       -706.4658479529852002
  Basis Set: (AUG-CC-PVTZ AUX)
    Blend: AUG-CC-PVTZ-RI + DEF2-QZVPP-RI
    Molecular point group: c1

    Geometry (in Angstrom), charge = 0, multiplicity = 1:

       Center              X                  Y                   Z               Mass
    ------------   -----------------  -----------------  -----------------  -----------------
         I            3.050097471097    -0.129886564425     0.000072934602   126.904471900000
         I           -3.050116528903    -0.129886564425     0.000072934602   126.904471900000
         C           -0.000009528903     0.168194435575     0.000073934602    12.000000000000
         C            1.242238471097     1.049477435575     0.000072934602    12.000000000000
         C           -1.242258528903     1.049477435575     0.000072934602    12.000000000000
         H           -0.000009528903    -0.479310564425     0.880645934602     1.007825032230
         H           -0.000009528903    -0.479312564425    -0.880495065398     1.007825032230
         H            1.298467471097     1.676452435575    -0.890386065398     1.007825032230
         H            1.298468471097     1.676453435575     0.890530934602     1.007825032230
         H           -1.295677328903     1.645118135575    -0.911812565398     1.007825032230
         H           -1.298487528903     1.676452435575     0.890531934602     1.007825032230

  Basis Set: AUG-CC-PVTZ
    Blend: AUG-CC-PVTZ
  Basis Set: (AUG-CC-PVTZ AUX)
    Blend: AUG-CC-PVTZ-JKFIT + DEF2-UNIVERSAL-JKFIT
	 Reference Energy          =    -706.4658479529852002 [Eh]
	 Singles Energy            =      -0.0000000000000000 [Eh]
	 Same-Spin Energy          =      -0.2802525753909366 [Eh]
	 Opposite-Spin Energy      =      -0.8106805565211309 [Eh]
	 Correlation Energy        =      -1.0909331319120674 [Eh]
	 Total Energy              =    -707.5567810848972385 [Eh]

	 ================> DF-SCS-MP2 Energies <==================
	-----------------------------------------------------------
	 SCS Same-Spin Scale       =       0.3333333333333333 [-]
	 SCS Opposite-Spin Scale   =       1.2000000000000000 [-]
	 SCS Same-Spin Energy      =      -0.0934175251303122 [Eh]
	 SCS Opposite-Spin Energy  =      -0.9728166678253570 [Eh]
	 SCS Correlation Energy    =      -1.0662341929556691 [Eh]
	 SCS Total Energy          =    -707.5320821459408762 [Eh]
	-----------------------------------------------------------

  Dipole Moment: [D]
     X:     0.0065      Y:     1.5747      Z:    -0.0068     Total:     1.5747

*** Psi4 exiting successfully. Buy a developer a beer!
