                               Psi4 1.4a3.dev225

  ==> Input File <==

--------------------------------------------------------------------------
#psi4
#
memory 32 gb

molecule  {
0 1
  I        3.0501070    -0.1728260     0.0000000
  I       -3.0501070    -0.1728260     0.0000000
  C        0.0000000     0.1252550     0.0000010
  C        1.2422480     1.0065380     0.0000000
  C       -1.2422490     1.0065380     0.0000000
  H        0.0000000    -0.5222500     0.8805730
  H        0.0000000    -0.5222520    -0.8805680
  H        1.2984770     1.6335130    -0.8904590
  H        1.2984780     1.6335140     0.8904580
  H       -1.2998576     1.6488960    -0.8793372
  H       -1.2984780     1.6335130     0.8904590
units angstrom
no_reorient  #important for SAPT in psi4, default
symmetry c1  #important for SAPT in psi4, default
}

set PROPERTIES_ORIGIN ["COM"]
properties('MP2/aug-cc-pvtz', properties = ['dipole'])
--------------------------------------------------------------------------

    Molecular point group: c1
  Charge       = 0
  Multiplicity = 1
  Basis Set: AUG-CC-PVTZ
    Blend: AUG-CC-PVTZ
  Basis Set: (AUG-CC-PVTZ AUX)
    Blend: AUG-CC-PVTZ-JKFIT + DEF2-UNIVERSAL-JKFIT

    Orbital Energies [Eh]
    ---------------------

    Doubly Occupied:

       1A    -11.298531     2A    -11.298395     3A    -11.261957
       4A     -7.717704     5A     -7.717585     6A     -5.549168
       7A     -5.549043     8A     -5.539926     9A     -5.539862
      10A     -5.539811    11A     -5.539750    12A     -2.278487
      13A     -2.278361    14A     -2.273993    15A     -2.273927
      16A     -2.273871    17A     -2.273808    18A     -2.263688
      19A     -2.263688    20A     -2.263581    21A     -2.263581
      22A     -1.109325    23A     -0.993673    24A     -0.895207
      25A     -0.831236    26A     -0.823309    27A     -0.683680
      28A     -0.601707    29A     -0.597477    30A     -0.570066
      31A     -0.521291    32A     -0.475417    33A     -0.433779
      34A     -0.372141    35A     -0.368124    36A     -0.365286
      37A     -0.361924

  @DF-RHF Final Energy:  -706.46597838731259

   => Energetics <=

    Nuclear Repulsion Energy =            332.2594275317984511
    One-Electron Energy =               -1846.9260936739444787
    Two-Electron Energy =                 808.2006877548333250
    Total Energy =                       -706.4659783873125889
  Basis Set: (AUG-CC-PVTZ AUX)
    Blend: AUG-CC-PVTZ-RI + DEF2-QZVPP-RI
    Molecular point group: c1

    Geometry (in Angstrom), charge = 0, multiplicity = 1:

       Center              X                  Y                   Z               Mass
    ------------   -----------------  -----------------  -----------------  -----------------
         I            3.050111743537    -0.130045705633    -0.000037940294   126.904471900000
         I           -3.050102256463    -0.130045705633    -0.000037940294   126.904471900000
         C            0.000004743537     0.168035294367    -0.000036940294    12.000000000000
         C            1.242252743537     1.049318294367    -0.000037940294    12.000000000000
         C           -1.242244256463     1.049318294367    -0.000037940294    12.000000000000
         H            0.000004743537    -0.479469705633     0.880535059706     1.007825032230
         H            0.000004743537    -0.479471705633    -0.880605940294     1.007825032230
         H            1.298481743537     1.676293294367    -0.890496940294     1.007825032230
         H            1.298482743537     1.676294294367     0.890420059706     1.007825032230
         H           -1.299852856463     1.691676294367    -0.879375140294     1.007825032230
         H           -1.298473256463     1.676293294367     0.890421059706     1.007825032230

  Basis Set: AUG-CC-PVTZ
    Blend: AUG-CC-PVTZ
  Basis Set: (AUG-CC-PVTZ AUX)
    Blend: AUG-CC-PVTZ-JKFIT + DEF2-UNIVERSAL-JKFIT
	 Reference Energy          =    -706.4659783873125889 [Eh]
	 Singles Energy            =      -0.0000000000000000 [Eh]
	 Same-Spin Energy          =      -0.2802136564993022 [Eh]
	 Opposite-Spin Energy      =      -0.8106385263703375 [Eh]
	 Correlation Energy        =      -1.0908521828696398 [Eh]
	 Total Energy              =    -707.5568305701822283 [Eh]

	 ================> DF-SCS-MP2 Energies <==================
	-----------------------------------------------------------
	 SCS Same-Spin Scale       =       0.3333333333333333 [-]
	 SCS Opposite-Spin Scale   =       1.2000000000000000 [-]
	 SCS Same-Spin Energy      =      -0.0934045521664341 [Eh]
	 SCS Opposite-Spin Energy  =      -0.9727662316444050 [Eh]
	 SCS Correlation Energy    =      -1.0661707838108390 [Eh]
	 SCS Total Energy          =    -707.5321491711234785 [Eh]
	-----------------------------------------------------------

  Dipole Moment: [D]
     X:    -0.0032      Y:     1.5811      Z:     0.0037     Total:     1.5811

*** Psi4 exiting successfully. Buy a developer a beer!
