                               Psi4 1.4a3.dev225

  ==> Input File <==

--------------------------------------------------------------------------
#psi4
#
memory 32 gb

molecule  {
0 1
  I        3.0901649    -0.1090142    -0.0000001
  I       -3.0501070    -0.1728260     0.0000000
  C        0.0000000     0.1252550     0.0000010
  C        1.2422480     1.0065380     0.0000000
  C       -1.2422490     1.0065380     0.0000000
  H        0.0000000    -0.5222500     0.8805730
  H        0.0000000    -0.5222520    -0.8805680
  H        1.2984770     1.6335130    -0.8904590
  H        1.2984780     1.6335140     0.8904580
  H       -1.2984780     1.6335130    -0.8904590
  H       -1.2984780     1.6335130     0.8904590
units angstrom
no_reorient  #important for SAPT in psi4, default
symmetry c1  #important for SAPT in psi4, default
}

set PROPERTIES_ORIGIN ["COM"]
properties('MP2/aug-cc-pvtz', properties = ['dipole'])
--------------------------------------------------------------------------

    Molecular point group: c1
  Charge       = 0
  Multiplicity = 1
  Basis Set: AUG-CC-PVTZ
    Blend: AUG-CC-PVTZ
  Basis Set: (AUG-CC-PVTZ AUX)
    Blend: AUG-CC-PVTZ-JKFIT + DEF2-UNIVERSAL-JKFIT

    Orbital Energies [Eh]
    ---------------------

    Doubly Occupied:

       1A    -11.298984     2A    -11.298332     3A    -11.262301
       4A     -7.717920     5A     -7.717574     6A     -5.549386
       7A     -5.549029     8A     -5.540140     9A     -5.540078
      10A     -5.539810    11A     -5.539728    12A     -2.278706
      13A     -2.278344    14A     -2.274210    15A     -2.274146
      16A     -2.273865    17A     -2.273784    18A     -2.263904
      19A     -2.263903    20A     -2.263570    21A     -2.263568
      22A     -1.109271    23A     -0.993838    24A     -0.896310
      25A     -0.831127    26A     -0.822167    27A     -0.684407
      28A     -0.602871    29A     -0.596637    30A     -0.570377
      31A     -0.521847    32A     -0.474551    33A     -0.434044
      34A     -0.372117    35A     -0.368143    36A     -0.365223
      37A     -0.362270

  @DF-RHF Final Energy:  -706.46598090513692

   => Energetics <=

    Nuclear Repulsion Energy =            331.4722295219419266
    One-Electron Energy =               -1845.3434609500136503
    Two-Electron Energy =                 807.4052505229348071
    Total Energy =                       -706.4659809051369166
  Basis Set: (AUG-CC-PVTZ AUX)
    Blend: AUG-CC-PVTZ-RI + DEF2-QZVPP-RI
    Molecular point group: c1

    Geometry (in Angstrom), charge = 0, multiplicity = 1:

       Center              X                  Y                   Z               Mass
    ------------   -----------------  -----------------  -----------------  -----------------
         I            3.072982502284    -0.093552947003    -0.000000111292   126.904471900000
         I           -3.067289397716    -0.157364747003    -0.000000011292   126.904471900000
         C           -0.017182397716     0.140716252997     0.000000988708    12.000000000000
         C            1.225065602284     1.021999252997    -0.000000011292    12.000000000000
         C           -1.259431397716     1.021999252997    -0.000000011292    12.000000000000
         H           -0.017182397716    -0.506788747003     0.880572988708     1.007825032230
         H           -0.017182397716    -0.506790747003    -0.880568011292     1.007825032230
         H            1.281294602284     1.648974252997    -0.890459011292     1.007825032230
         H            1.281295602284     1.648975252997     0.890457988708     1.007825032230
         H           -1.315660397716     1.648974252997    -0.890459011292     1.007825032230
         H           -1.315660397716     1.648974252997     0.890458988708     1.007825032230

  Basis Set: AUG-CC-PVTZ
    Blend: AUG-CC-PVTZ
  Basis Set: (AUG-CC-PVTZ AUX)
    Blend: AUG-CC-PVTZ-JKFIT + DEF2-UNIVERSAL-JKFIT
	 Reference Energy          =    -706.4659809051369166 [Eh]
	 Singles Energy            =      -0.0000000000000000 [Eh]
	 Same-Spin Energy          =      -0.2801396614188325 [Eh]
	 Opposite-Spin Energy      =      -0.8105289161507624 [Eh]
	 Correlation Energy        =      -1.0906685775695948 [Eh]
	 Total Energy              =    -707.5566494827064616 [Eh]

	 ================> DF-SCS-MP2 Energies <==================
	-----------------------------------------------------------
	 SCS Same-Spin Scale       =       0.3333333333333333 [-]
	 SCS Opposite-Spin Scale   =       1.2000000000000000 [-]
	 SCS Same-Spin Energy      =      -0.0933798871396108 [Eh]
	 SCS Opposite-Spin Energy  =      -0.9726346993809148 [Eh]
	 SCS Correlation Energy    =      -1.0660145865205257 [Eh]
	 SCS Total Energy          =    -707.5319954916574261 [Eh]
	-----------------------------------------------------------

  Dipole Moment: [D]
     X:    -0.0399      Y:     1.5489      Z:     0.0000     Total:     1.5494

*** Psi4 exiting successfully. Buy a developer a beer!
