                               Psi4 1.4a3.dev225

  ==> Input File <==

--------------------------------------------------------------------------
#psi4
#
memory 32 gb

molecule  {
0 1
  I        3.0501070    -0.1728260     0.0000000
  I       -3.0501070    -0.1728260     0.0000000
  C        0.0000000     0.1252550     0.0000010
  C        1.4097563     0.8972633     0.0000000
  C       -1.2422490     1.0065380     0.0000000
  H        0.0000000    -0.5222500     0.8805730
  H        0.0000000    -0.5222520    -0.8805680
  H        1.2984770     1.6335130    -0.8904590
  H        1.2984780     1.6335140     0.8904580
  H       -1.2984780     1.6335130    -0.8904590
  H       -1.2984780     1.6335130     0.8904590
units angstrom
no_reorient  #important for SAPT in psi4, default
symmetry c1  #important for SAPT in psi4, default
}

set PROPERTIES_ORIGIN ["COM"]
properties('MP2/aug-cc-pvtz', properties = ['dipole'])
--------------------------------------------------------------------------

    Molecular point group: c1
  Charge       = 0
  Multiplicity = 1
  Basis Set: AUG-CC-PVTZ
    Blend: AUG-CC-PVTZ
  Basis Set: (AUG-CC-PVTZ AUX)
    Blend: AUG-CC-PVTZ-JKFIT + DEF2-UNIVERSAL-JKFIT

    Orbital Energies [Eh]
    ---------------------

    Doubly Occupied:

       1A    -11.296964     2A    -11.296843     3A    -11.261337
       4A     -7.727454     5A     -7.717273     6A     -5.559652
       7A     -5.549652     8A     -5.549538     9A     -5.548801
      10A     -5.539458    11A     -5.539385    12A     -2.290645
      13A     -2.284435    14A     -2.284319    15A     -2.278124
      16A     -2.273593    17A     -2.273521    18A     -2.273402
      19A     -2.273401    20A     -2.263170    21A     -2.263169
      22A     -1.093969    23A     -1.006798    24A     -0.902937
      25A     -0.828395    26A     -0.805004    27A     -0.668077
      28A     -0.589638    29A     -0.582374    30A     -0.544312
      31A     -0.509354    32A     -0.500489    33A     -0.447494
      34A     -0.373822    35A     -0.368436    36A     -0.364476
      37A     -0.359968

  @DF-RHF Final Energy:  -706.43602885749544

   => Energetics <=

    Nuclear Repulsion Energy =            333.8315638145793969
    One-Electron Energy =               -1849.9558251050330000
    Two-Electron Energy =                 809.6882324329582161
    Total Energy =                       -706.4360288574954438
  Basis Set: (AUG-CC-PVTZ AUX)
    Blend: AUG-CC-PVTZ-RI + DEF2-QZVPP-RI
    Molecular point group: c1

    Geometry (in Angstrom), charge = 0, multiplicity = 1:

       Center              X                  Y                   Z               Mass
    ------------   -----------------  -----------------  -----------------  -----------------
         I            3.043312859227    -0.125561090659    -0.000000054186   126.904471900000
         I           -3.056901140773    -0.125561090659    -0.000000054186   126.904471900000
         C           -0.006794140773     0.172519909341     0.000000945814    12.000000000000
         C            1.402962159227     0.944528209341    -0.000000054186    12.000000000000
         C           -1.249043140773     1.053802909341    -0.000000054186    12.000000000000
         H           -0.006794140773    -0.474985090659     0.880572945814     1.007825032230
         H           -0.006794140773    -0.474987090659    -0.880568054186     1.007825032230
         H            1.291682859227     1.680777909341    -0.890459054186     1.007825032230
         H            1.291683859227     1.680778909341     0.890457945814     1.007825032230
         H           -1.305272140773     1.680777909341    -0.890459054186     1.007825032230
         H           -1.305272140773     1.680777909341     0.890458945814     1.007825032230

  Basis Set: AUG-CC-PVTZ
    Blend: AUG-CC-PVTZ
  Basis Set: (AUG-CC-PVTZ AUX)
    Blend: AUG-CC-PVTZ-JKFIT + DEF2-UNIVERSAL-JKFIT
	 Reference Energy          =    -706.4360288574954438 [Eh]
	 Singles Energy            =      -0.0000000000000000 [Eh]
	 Same-Spin Energy          =      -0.2821098886838735 [Eh]
	 Opposite-Spin Energy      =      -0.8139575179715581 [Eh]
	 Correlation Energy        =      -1.0960674066554317 [Eh]
	 Total Energy              =    -707.5320962641508231 [Eh]

	 ================> DF-SCS-MP2 Energies <==================
	-----------------------------------------------------------
	 SCS Same-Spin Scale       =       0.3333333333333333 [-]
	 SCS Opposite-Spin Scale   =       1.2000000000000000 [-]
	 SCS Same-Spin Energy      =      -0.0940366295612912 [Eh]
	 SCS Opposite-Spin Energy  =      -0.9767490215658697 [Eh]
	 SCS Correlation Energy    =      -1.0707856511271610 [Eh]
	 SCS Total Energy          =    -707.5068145086225968 [Eh]
	-----------------------------------------------------------

  Dipole Moment: [D]
     X:     0.3371      Y:     1.3916      Z:     0.0000     Total:     1.4319

*** Psi4 exiting successfully. Buy a developer a beer!
