                               Psi4 1.4a3.dev225

  ==> Input File <==

--------------------------------------------------------------------------
#psi4
#
memory 32 gb

molecule  {
0 1
  I        3.0501070    -0.1728260     0.0000000
  I       -3.0501070    -0.1728260     0.0000000
  C        0.0000000     0.1252550     0.0000010
  C        1.2422480     1.0065380     0.0000000
  C       -1.2573111     0.9837031     0.0455859
  H        0.0000000    -0.5222500     0.8805730
  H        0.0000000    -0.5222520    -0.8805680
  H        1.2984770     1.6335130    -0.8904590
  H        1.2984780     1.6335140     0.8904580
  H       -1.2984780     1.6335130    -0.8904590
  H       -1.2984780     1.6335130     0.8904590
units angstrom
no_reorient  #important for SAPT in psi4, default
symmetry c1  #important for SAPT in psi4, default
}

set PROPERTIES_ORIGIN ["COM"]
properties('MP2/aug-cc-pvtz', properties = ['dipole'])
--------------------------------------------------------------------------

    Molecular point group: c1
  Charge       = 0
  Multiplicity = 1
  Basis Set: AUG-CC-PVTZ
    Blend: AUG-CC-PVTZ
  Basis Set: (AUG-CC-PVTZ AUX)
    Blend: AUG-CC-PVTZ-JKFIT + DEF2-UNIVERSAL-JKFIT

    Orbital Energies [Eh]
    ---------------------

    Doubly Occupied:

       1A    -11.298226     2A    -11.298105     3A    -11.261080
       4A     -7.719226     5A     -7.717480     6A     -5.550781
       7A     -5.548946     8A     -5.541438     9A     -5.541358
      10A     -5.539701    11A     -5.539639    12A     -2.280247
      13A     -2.278266    14A     -2.275597    15A     -2.275519
      16A     -2.273770    17A     -2.273706    18A     -2.265172
      19A     -2.265170    20A     -2.263464    21A     -2.263464
      22A     -1.108312    23A     -0.994568    24A     -0.896501
      25A     -0.830872    26A     -0.821035    27A     -0.681397
      28A     -0.603864    29A     -0.592387    30A     -0.567214
      31A     -0.518305    32A     -0.476640    33A     -0.437081
      34A     -0.372630    35A     -0.368268    36A     -0.365286
      37A     -0.362157

  @DF-RHF Final Energy:  -706.46305720075225

   => Energetics <=

    Nuclear Repulsion Energy =            332.5501859048296751
    One-Electron Energy =               -1847.4927330795478611
    Two-Electron Energy =                 808.4794899739658831
    Total Energy =                       -706.4630572007522460
  Basis Set: (AUG-CC-PVTZ AUX)
    Blend: AUG-CC-PVTZ-RI + DEF2-QZVPP-RI
    Molecular point group: c1

    Geometry (in Angstrom), charge = 0, multiplicity = 1:

       Center              X                  Y                   Z               Mass
    ------------   -----------------  -----------------  -----------------  -----------------
         I            3.050717967067    -0.129067113763    -0.001849031378   126.904471900000
         I           -3.049496032933    -0.129067113763    -0.001849031378   126.904471900000
         C            0.000610967067     0.169013886237    -0.001848031378    12.000000000000
         C            1.242858967067     1.050296886237    -0.001849031378    12.000000000000
         C           -1.256700132933     1.027461986237     0.043736868622    12.000000000000
         H            0.000610967067    -0.478491113763     0.878723968622     1.007825032230
         H            0.000610967067    -0.478493113763    -0.882417031378     1.007825032230
         H            1.299087967067     1.677271886237    -0.892308031378     1.007825032230
         H            1.299088967067     1.677272886237     0.888608968622     1.007825032230
         H           -1.297867032933     1.677271886237    -0.892308031378     1.007825032230
         H           -1.297867032933     1.677271886237     0.888609968622     1.007825032230

  Basis Set: AUG-CC-PVTZ
    Blend: AUG-CC-PVTZ
  Basis Set: (AUG-CC-PVTZ AUX)
    Blend: AUG-CC-PVTZ-JKFIT + DEF2-UNIVERSAL-JKFIT
	 Reference Energy          =    -706.4630572007522460 [Eh]
	 Singles Energy            =      -0.0000000000000000 [Eh]
	 Same-Spin Energy          =      -0.2804298986865303 [Eh]
	 Opposite-Spin Energy      =      -0.8110678349228253 [Eh]
	 Correlation Energy        =      -1.0914977336093556 [Eh]
	 Total Energy              =    -707.5545549343615903 [Eh]

	 ================> DF-SCS-MP2 Energies <==================
	-----------------------------------------------------------
	 SCS Same-Spin Scale       =       0.3333333333333333 [-]
	 SCS Opposite-Spin Scale   =       1.2000000000000000 [-]
	 SCS Same-Spin Energy      =      -0.0934766328955101 [Eh]
	 SCS Opposite-Spin Energy  =      -0.9732814019073903 [Eh]
	 SCS Correlation Energy    =      -1.0667580348029004 [Eh]
	 SCS Total Energy          =    -707.5298152355551338 [Eh]
	-----------------------------------------------------------

  Dipole Moment: [D]
     X:    -0.0503      Y:     1.5488      Z:     0.0117     Total:     1.5496

*** Psi4 exiting successfully. Buy a developer a beer!
