                               Psi4 1.4a3.dev225

  ==> Input File <==

--------------------------------------------------------------------------
#psi4
#
memory 32 gb

molecule  {
0 1
  I        3.0501070    -0.1728260     0.0000000
  I       -3.0501070    -0.1728260     0.0000000
  C        0.0000000     0.1252550     0.0000010
  C        1.2422480     1.0065380     0.0000000
  C       -1.2076045     1.0489602    -0.0911162
  H        0.0000000    -0.5222500     0.8805730
  H        0.0000000    -0.5222520    -0.8805680
  H        1.2984770     1.6335130    -0.8904590
  H        1.2984780     1.6335140     0.8904580
  H       -1.2984780     1.6335130    -0.8904590
  H       -1.2984780     1.6335130     0.8904590
units angstrom
no_reorient  #important for SAPT in psi4, default
symmetry c1  #important for SAPT in psi4, default
}

set PROPERTIES_ORIGIN ["COM"]
properties('MP2/aug-cc-pvtz', properties = ['dipole'])
--------------------------------------------------------------------------

    Molecular point group: c1
  Charge       = 0
  Multiplicity = 1
  Basis Set: AUG-CC-PVTZ
    Blend: AUG-CC-PVTZ
  Basis Set: (AUG-CC-PVTZ AUX)
    Blend: AUG-CC-PVTZ-JKFIT + DEF2-UNIVERSAL-JKFIT

    Orbital Energies [Eh]
    ---------------------

    Doubly Occupied:

       1A    -11.301324     2A    -11.299513     3A    -11.264614
       4A     -7.718032     5A     -7.714436     6A     -5.549477
       7A     -5.545734     8A     -5.540267     9A     -5.540203
      10A     -5.536690    11A     -5.536628    12A     -2.278795
      13A     -2.274778    14A     -2.274315    15A     -2.274248
      16A     -2.270586    17A     -2.270528    18A     -2.264046
      19A     -2.264046    20A     -2.260498    21A     -2.260495
      22A     -1.112730    23A     -0.993629    24A     -0.893425
      25A     -0.835479    26A     -0.827446    27A     -0.689148
      28A     -0.620761    29A     -0.590778    30A     -0.574516
      31A     -0.524173    32A     -0.471009    33A     -0.425585
      34A     -0.371397    35A     -0.367857    36A     -0.364510
      37A     -0.360792

  @DF-RHF Final Energy:  -706.45451930910951

   => Energetics <=

    Nuclear Repulsion Energy =            331.7223103409988880
    One-Electron Energy =               -1845.8286779761606340
    Two-Electron Energy =                 807.6518483260523453
    Total Energy =                       -706.4545193091095143
  Basis Set: (AUG-CC-PVTZ AUX)
    Blend: AUG-CC-PVTZ-RI + DEF2-QZVPP-RI
    Molecular point group: c1

    Geometry (in Angstrom), charge = 0, multiplicity = 1:

       Center              X                  Y                   Z               Mass
    ------------   -----------------  -----------------  -----------------  -----------------
         I            3.048701853100    -0.131713960475     0.003695645045   126.904471900000
         I           -3.051512146900    -0.131713960475     0.003695645045   126.904471900000
         C           -0.001405146900     0.166367039525     0.003696645045    12.000000000000
         C            1.240842853100     1.047650039525     0.003695645045    12.000000000000
         C           -1.209009646900     1.090072239525    -0.087420554955    12.000000000000
         H           -0.001405146900    -0.481137960475     0.884268645045     1.007825032230
         H           -0.001405146900    -0.481139960475    -0.876872354955     1.007825032230
         H            1.297071853100     1.674625039525    -0.886763354955     1.007825032230
         H            1.297072853100     1.674626039525     0.894153645045     1.007825032230
         H           -1.299883146900     1.674625039525    -0.886763354955     1.007825032230
         H           -1.299883146900     1.674625039525     0.894154645045     1.007825032230

  Basis Set: AUG-CC-PVTZ
    Blend: AUG-CC-PVTZ
  Basis Set: (AUG-CC-PVTZ AUX)
    Blend: AUG-CC-PVTZ-JKFIT + DEF2-UNIVERSAL-JKFIT
	 Reference Energy          =    -706.4545193091095143 [Eh]
	 Singles Energy            =      -0.0000000000000000 [Eh]
	 Same-Spin Energy          =      -0.2800786471047514 [Eh]
	 Opposite-Spin Energy      =      -0.8106398492979348 [Eh]
	 Correlation Energy        =      -1.0907184964026861 [Eh]
	 Total Energy              =    -707.5452378055122153 [Eh]

	 ================> DF-SCS-MP2 Energies <==================
	-----------------------------------------------------------
	 SCS Same-Spin Scale       =       0.3333333333333333 [-]
	 SCS Opposite-Spin Scale   =       1.2000000000000000 [-]
	 SCS Same-Spin Energy      =      -0.0933595490349171 [Eh]
	 SCS Opposite-Spin Energy  =      -0.9727678191575216 [Eh]
	 SCS Correlation Energy    =      -1.0661273681924388 [Eh]
	 SCS Total Energy          =    -707.5206466773018974 [Eh]
	-----------------------------------------------------------

  Dipole Moment: [D]
     X:     0.1109      Y:     1.6172      Z:    -0.0183     Total:     1.6211

*** Psi4 exiting successfully. Buy a developer a beer!
