                               Psi4 1.4a3.dev225

  ==> Input File <==

--------------------------------------------------------------------------
#psi4
#
memory 32 gb

molecule  {
0 1
  I        2.9634349    -0.2960630     0.0000001
  I       -3.0501070    -0.1728260     0.0000000
  C        0.0000000     0.1252550     0.0000010
  C        1.2422480     1.0065380     0.0000000
  C       -1.2422490     1.0065380     0.0000000
  H        0.0000000    -0.5222500     0.8805730
  H        0.0000000    -0.5222520    -0.8805680
  H        1.2984770     1.6335130    -0.8904590
  H        1.2984780     1.6335140     0.8904580
  H       -1.2984780     1.6335130    -0.8904590
  H       -1.2984780     1.6335130     0.8904590
units angstrom
no_reorient  #important for SAPT in psi4, default
symmetry c1  #important for SAPT in psi4, default
}

set PROPERTIES_ORIGIN ["COM"]
properties('MP2/aug-cc-pvtz', properties = ['dipole'])
--------------------------------------------------------------------------

    Molecular point group: c1
  Charge       = 0
  Multiplicity = 1
  Basis Set: AUG-CC-PVTZ
    Blend: AUG-CC-PVTZ
  Basis Set: (AUG-CC-PVTZ AUX)
    Blend: AUG-CC-PVTZ-JKFIT + DEF2-UNIVERSAL-JKFIT

    Orbital Energies [Eh]
    ---------------------

    Doubly Occupied:

       1A    -11.298913     2A    -11.297577     3A    -11.260939
       4A     -7.717680     5A     -7.716932     6A     -5.549162
       7A     -5.548372     8A     -5.539870     9A     -5.539857
      10A     -5.539167    11A     -5.539109    12A     -2.278490
      13A     -2.277688    14A     -2.273970    15A     -2.273944
      16A     -2.273208    17A     -2.273148    18A     -2.263656
      19A     -2.263655    20A     -2.262951    21A     -2.262950
      22A     -1.109891    23A     -0.993606    24A     -0.892796
      25A     -0.831643    26A     -0.824113    27A     -0.684302
      28A     -0.602437    29A     -0.597519    30A     -0.569065
      31A     -0.521181    32A     -0.475808    33A     -0.432821
      34A     -0.371935    35A     -0.368290    36A     -0.365242
      37A     -0.360872

  @DF-RHF Final Energy:  -706.46492424408007

   => Energetics <=

    Nuclear Repulsion Energy =            334.0362681151509605
    One-Electron Energy =               -1850.4968669292377399
    Two-Electron Energy =                 809.9956745700067131
    Total Energy =                       -706.4649242440800663
  Basis Set: (AUG-CC-PVTZ AUX)
    Blend: AUG-CC-PVTZ-RI + DEF2-QZVPP-RI
    Molecular point group: c1

    Geometry (in Angstrom), charge = 0, multiplicity = 1:

       Center              X                  Y                   Z               Mass
    ------------   -----------------  -----------------  -----------------  -----------------
         I            3.000612087645    -0.200369006451     0.000000002920   126.904471900000
         I           -3.012929812355    -0.077132006451    -0.000000097080   126.904471900000
         C            0.037177187645     0.220948993549     0.000000902920    12.000000000000
         C            1.279425187645     1.102231993549    -0.000000097080    12.000000000000
         C           -1.205071812355     1.102231993549    -0.000000097080    12.000000000000
         H            0.037177187645    -0.426556006451     0.880572902920     1.007825032230
         H            0.037177187645    -0.426558006451    -0.880568097080     1.007825032230
         H            1.335654187645     1.729206993549    -0.890459097080     1.007825032230
         H            1.335655187645     1.729207993549     0.890457902920     1.007825032230
         H           -1.261300812355     1.729206993549    -0.890459097080     1.007825032230
         H           -1.261300812355     1.729206993549     0.890458902920     1.007825032230

  Basis Set: AUG-CC-PVTZ
    Blend: AUG-CC-PVTZ
  Basis Set: (AUG-CC-PVTZ AUX)
    Blend: AUG-CC-PVTZ-JKFIT + DEF2-UNIVERSAL-JKFIT
	 Reference Energy          =    -706.4649242440800663 [Eh]
	 Singles Energy            =      -0.0000000000000000 [Eh]
	 Same-Spin Energy          =      -0.2804652331181944 [Eh]
	 Opposite-Spin Energy      =      -0.8110177015450334 [Eh]
	 Correlation Energy        =      -1.0914829346632278 [Eh]
	 Total Energy              =    -707.5564071787432567 [Eh]

	 ================> DF-SCS-MP2 Energies <==================
	-----------------------------------------------------------
	 SCS Same-Spin Scale       =       0.3333333333333333 [-]
	 SCS Opposite-Spin Scale   =       1.2000000000000000 [-]
	 SCS Same-Spin Energy      =      -0.0934884110393981 [Eh]
	 SCS Opposite-Spin Energy  =      -0.9732212418540400 [Eh]
	 SCS Correlation Energy    =      -1.0667096528934381 [Eh]
	 SCS Total Energy          =    -707.5316338969735170 [Eh]
	-----------------------------------------------------------

  Dipole Moment: [D]
     X:     0.0797      Y:     1.6348      Z:     0.0000     Total:     1.6367

*** Psi4 exiting successfully. Buy a developer a beer!
