                               Psi4 1.4a3.dev225

  ==> Input File <==

--------------------------------------------------------------------------
#psi4
#
memory 32 gb

molecule  {
0 1
  I        3.0501070    -0.1728260     0.0000000
  I       -3.0501070    -0.1728260     0.0000000
  C        0.0000000     0.1252550     0.0000010
  C        1.2422480     1.0065380     0.0000000
  C       -1.2422490     1.0065380     0.0000000
  H        0.0000000    -0.5222500     0.8805730
  H        0.0000000    -0.5222520    -0.8805680
  H        1.2984770     1.6335130    -0.8904590
  H        1.2984780     1.6335140     0.8904580
  H       -1.3064841     1.7227846    -0.8197812
  H       -1.2984780     1.6335130     0.8904590
units angstrom
no_reorient  #important for SAPT in psi4, default
symmetry c1  #important for SAPT in psi4, default
}

set PROPERTIES_ORIGIN ["COM"]
properties('MP2/aug-cc-pvtz', properties = ['dipole'])
--------------------------------------------------------------------------

    Molecular point group: c1
  Charge       = 0
  Multiplicity = 1
  Basis Set: AUG-CC-PVTZ
    Blend: AUG-CC-PVTZ
  Basis Set: (AUG-CC-PVTZ AUX)
    Blend: AUG-CC-PVTZ-JKFIT + DEF2-UNIVERSAL-JKFIT

    Orbital Energies [Eh]
    ---------------------

    Doubly Occupied:

       1A    -11.298492     2A    -11.297662     3A    -11.262615
       4A     -7.718226     5A     -7.717516     6A     -5.549724
       7A     -5.548970     8A     -5.540436     9A     -5.540353
      10A     -5.539746    11A     -5.539682    12A     -2.279043
      13A     -2.278289    14A     -2.274537    15A     -2.274451
      16A     -2.273802    17A     -2.273736    18A     -2.264159
      19A     -2.264158    20A     -2.263517    21A     -2.263516
      22A     -1.108857    23A     -0.993465    24A     -0.895384
      25A     -0.832086    26A     -0.824877    27A     -0.680563
      28A     -0.601292    29A     -0.595594    30A     -0.570676
      31A     -0.519370    32A     -0.477414    33A     -0.434127
      34A     -0.372384    35A     -0.368055    36A     -0.365164
      37A     -0.362188

  @DF-RHF Final Energy:  -706.46478739994802

   => Energetics <=

    Nuclear Repulsion Energy =            332.1743530587456803
    One-Electron Energy =               -1846.7500261410677922
    Two-Electron Energy =                 808.1108856823740325
    Total Energy =                       -706.4647873999480225
  Basis Set: (AUG-CC-PVTZ AUX)
    Blend: AUG-CC-PVTZ-RI + DEF2-QZVPP-RI
    Molecular point group: c1

    Geometry (in Angstrom), charge = 0, multiplicity = 1:

       Center              X                  Y                   Z               Mass
    ------------   -----------------  -----------------  -----------------  -----------------
         I            3.050134316528    -0.130297405133    -0.000240816184   126.904471900000
         I           -3.050079683472    -0.130297405133    -0.000240816184   126.904471900000
         C            0.000027316528     0.167783594867    -0.000239816184    12.000000000000
         C            1.242275316528     1.049066594867    -0.000240816184    12.000000000000
         C           -1.242221683472     1.049066594867    -0.000240816184    12.000000000000
         H            0.000027316528    -0.479721405133     0.880332183816     1.007825032230
         H            0.000027316528    -0.479723405133    -0.880808816184     1.007825032230
         H            1.298504316528     1.676041594867    -0.890699816184     1.007825032230
         H            1.298505316528     1.676042594867     0.890217183816     1.007825032230
         H           -1.306456783472     1.765313194867    -0.820022016184     1.007825032230
         H           -1.298450683472     1.676041594867     0.890218183816     1.007825032230

  Basis Set: AUG-CC-PVTZ
    Blend: AUG-CC-PVTZ
  Basis Set: (AUG-CC-PVTZ AUX)
    Blend: AUG-CC-PVTZ-JKFIT + DEF2-UNIVERSAL-JKFIT
	 Reference Energy          =    -706.4647873999480225 [Eh]
	 Singles Energy            =      -0.0000000000000000 [Eh]
	 Same-Spin Energy          =      -0.2802162113504386 [Eh]
	 Opposite-Spin Energy      =      -0.8106765612301595 [Eh]
	 Correlation Energy        =      -1.0908927725805981 [Eh]
	 Total Energy              =    -707.5556801725285823 [Eh]

	 ================> DF-SCS-MP2 Energies <==================
	-----------------------------------------------------------
	 SCS Same-Spin Scale       =       0.3333333333333333 [-]
	 SCS Opposite-Spin Scale   =       1.2000000000000000 [-]
	 SCS Same-Spin Energy      =      -0.0934054037834795 [Eh]
	 SCS Opposite-Spin Energy  =      -0.9728118734761914 [Eh]
	 SCS Correlation Energy    =      -1.0662172772596710 [Eh]
	 SCS Total Energy          =    -707.5310046772076475 [Eh]
	-----------------------------------------------------------

  Dipole Moment: [D]
     X:    -0.0190      Y:     1.5915      Z:     0.0251     Total:     1.5918

*** Psi4 exiting successfully. Buy a developer a beer!
