                               Psi4 1.4a3.dev225

  ==> Input File <==

--------------------------------------------------------------------------
#psi4
#
memory 32 gb

molecule  {
0 1
  I        3.0501070    -0.1728260     0.0000000
  I       -3.0501070    -0.1728260     0.0000000
  C        0.0000000     0.1252550     0.0000010
  C        1.2422480     1.0065380     0.0000000
  C       -1.2422490     1.0065380     0.0000000
  H        0.0000000    -0.5222500     0.8805730
  H        0.0000000    -0.5222520    -0.8805680
  H        1.2984770     1.6335130    -0.8904590
  H        1.2984780     1.6335140     0.8904580
  H       -1.2970813     1.6179390    -0.9013095
  H       -1.2984780     1.6335130     0.8904590
units angstrom
no_reorient  #important for SAPT in psi4, default
symmetry c1  #important for SAPT in psi4, default
}

set PROPERTIES_ORIGIN ["COM"]
properties('MP2/aug-cc-pvtz', properties = ['dipole'])
--------------------------------------------------------------------------

    Molecular point group: c1
  Charge       = 0
  Multiplicity = 1
  Basis Set: AUG-CC-PVTZ
    Blend: AUG-CC-PVTZ
  Basis Set: (AUG-CC-PVTZ AUX)
    Blend: AUG-CC-PVTZ-JKFIT + DEF2-UNIVERSAL-JKFIT

    Orbital Energies [Eh]
    ---------------------

    Doubly Occupied:

       1A    -11.298685     2A    -11.298550     3A    -11.261710
       4A     -7.717615     5A     -7.717497     6A     -5.549074
       7A     -5.548949     8A     -5.539840     9A     -5.539780
      10A     -5.539725    11A     -5.539668    12A     -2.278393
      13A     -2.278268    14A     -2.273901    15A     -2.273839
      16A     -2.273780    17A     -2.273720    18A     -2.263609
      19A     -2.263609    20A     -2.263502    21A     -2.263501
      22A     -1.109548    23A     -0.993798    24A     -0.895145
      25A     -0.831016    26A     -0.822610    27A     -0.685043
      28A     -0.603763    29A     -0.596278    30A     -0.569807
      31A     -0.521888    32A     -0.474568    33A     -0.433624
      34A     -0.372052    35A     -0.368139    36A     -0.365319
      37A     -0.361809

  @DF-RHF Final Energy:  -706.46596192138099

   => Energetics <=

    Nuclear Repulsion Energy =            332.2965199934233169
    One-Electron Energy =               -1847.0017193209519064
    Two-Electron Energy =                 808.2392374061475948
    Total Energy =                       -706.4659619213809947
  Basis Set: (AUG-CC-PVTZ AUX)
    Blend: AUG-CC-PVTZ-RI + DEF2-QZVPP-RI
    Molecular point group: c1

    Geometry (in Angstrom), charge = 0, multiplicity = 1:

       Center              X                  Y                   Z               Mass
    ------------   -----------------  -----------------  -----------------  -----------------
         I            3.050102286146    -0.129940251457     0.000036907746   126.904471900000
         I           -3.050111713854    -0.129940251457     0.000036907746   126.904471900000
         C           -0.000004713854     0.168140748543     0.000037907746    12.000000000000
         C            1.242243286146     1.049423748543     0.000036907746    12.000000000000
         C           -1.242253713854     1.049423748543     0.000036907746    12.000000000000
         H           -0.000004713854    -0.479364251457     0.880609907746     1.007825032230
         H           -0.000004713854    -0.479366251457    -0.880531092254     1.007825032230
         H            1.298472286146     1.676398748543    -0.890422092254     1.007825032230
         H            1.298473286146     1.676399748543     0.890494907746     1.007825032230
         H           -1.297086013854     1.660824748543    -0.901272592254     1.007825032230
         H           -1.298482713854     1.676398748543     0.890495907746     1.007825032230

  Basis Set: AUG-CC-PVTZ
    Blend: AUG-CC-PVTZ
  Basis Set: (AUG-CC-PVTZ AUX)
    Blend: AUG-CC-PVTZ-JKFIT + DEF2-UNIVERSAL-JKFIT
	 Reference Energy          =    -706.4659619213809947 [Eh]
	 Singles Energy            =      -0.0000000000000000 [Eh]
	 Same-Spin Energy          =      -0.2802362734392901 [Eh]
	 Opposite-Spin Energy      =      -0.8106613644079647 [Eh]
	 Correlation Energy        =      -1.0908976378472548 [Eh]
	 Total Energy              =    -707.5568595592282009 [Eh]

	 ================> DF-SCS-MP2 Energies <==================
	-----------------------------------------------------------
	 SCS Same-Spin Scale       =       0.3333333333333333 [-]
	 SCS Opposite-Spin Scale   =       1.2000000000000000 [-]
	 SCS Same-Spin Energy      =      -0.0934120911464300 [Eh]
	 SCS Opposite-Spin Energy  =      -0.9727936372895576 [Eh]
	 SCS Correlation Energy    =      -1.0662057284359876 [Eh]
	 SCS Total Energy          =    -707.5321676498169836 [Eh]
	-----------------------------------------------------------

  Dipole Moment: [D]
     X:     0.0033      Y:     1.5769      Z:    -0.0035     Total:     1.5769

*** Psi4 exiting successfully. Buy a developer a beer!
