                               Psi4 1.4a3.dev225

  ==> Input File <==

--------------------------------------------------------------------------
#psi4
#
memory 32 gb

molecule  {
0 1
  I        3.0501070    -0.1728260     0.0000000
  I       -3.0501070    -0.1728260     0.0000000
  C        0.0000000     0.1252550     0.0000010
  C        1.2422480     1.0065380     0.0000000
  C       -1.2259369     0.9949658     0.0000000
  H        0.0000000    -0.5222500     0.8805730
  H        0.0000000    -0.5222520    -0.8805680
  H        1.2984770     1.6335130    -0.8904590
  H        1.2984780     1.6335140     0.8904580
  H       -1.2984780     1.6335130    -0.8904590
  H       -1.2984780     1.6335130     0.8904590
units angstrom
no_reorient  #important for SAPT in psi4, default
symmetry c1  #important for SAPT in psi4, default
}

set PROPERTIES_ORIGIN ["COM"]
properties('MP2/aug-cc-pvtz', properties = ['dipole'])
--------------------------------------------------------------------------

    Molecular point group: c1
  Charge       = 0
  Multiplicity = 1
  Basis Set: AUG-CC-PVTZ
    Blend: AUG-CC-PVTZ
  Basis Set: (AUG-CC-PVTZ AUX)
    Blend: AUG-CC-PVTZ-JKFIT + DEF2-UNIVERSAL-JKFIT

    Orbital Energies [Eh]
    ---------------------

    Doubly Occupied:

       1A    -11.299624     2A    -11.298895     3A    -11.261045
       4A     -7.717802     5A     -7.717168     6A     -5.549264
       7A     -5.548602     8A     -5.540023     9A     -5.539964
      10A     -5.539403    11A     -5.539331    12A     -2.278584
      13A     -2.277881    14A     -2.274089    15A     -2.274028
      16A     -2.273440    17A     -2.273367    18A     -2.263791
      19A     -2.263790    20A     -2.263174    21A     -2.263173
      22A     -1.112698    23A     -0.993457    24A     -0.895364
      25A     -0.831042    26A     -0.822573    27A     -0.684958
      28A     -0.600688    29A     -0.600518    30A     -0.572849
      31A     -0.520126    32A     -0.474253    33A     -0.432713
      34A     -0.372012    35A     -0.368060    36A     -0.365076
      37A     -0.362307

  @DF-RHF Final Energy:  -706.46548562727901

   => Energetics <=

    Nuclear Repulsion Energy =            332.4382695945476485
    One-Electron Energy =               -1847.2772422082759931
    Two-Electron Energy =                 808.3734869864493930
    Total Energy =                       -706.4654856272790084
  Basis Set: (AUG-CC-PVTZ AUX)
    Blend: AUG-CC-PVTZ-RI + DEF2-QZVPP-RI
    Molecular point group: c1

    Geometry (in Angstrom), charge = 0, multiplicity = 1:

       Center              X                  Y                   Z               Mass
    ------------   -----------------  -----------------  -----------------  -----------------
         I            3.049445420508    -0.129523932109    -0.000000054186   126.904471900000
         I           -3.050768579492    -0.129523932109    -0.000000054186   126.904471900000
         C           -0.000661579492     0.168557067891     0.000000945814    12.000000000000
         C            1.241586420508     1.049840067891    -0.000000054186    12.000000000000
         C           -1.226598479492     1.038267867891    -0.000000054186    12.000000000000
         H           -0.000661579492    -0.478947932109     0.880572945814     1.007825032230
         H           -0.000661579492    -0.478949932109    -0.880568054186     1.007825032230
         H            1.297815420508     1.676815067891    -0.890459054186     1.007825032230
         H            1.297816420508     1.676816067891     0.890457945814     1.007825032230
         H           -1.299139579492     1.676815067891    -0.890459054186     1.007825032230
         H           -1.299139579492     1.676815067891     0.890458945814     1.007825032230

  Basis Set: AUG-CC-PVTZ
    Blend: AUG-CC-PVTZ
  Basis Set: (AUG-CC-PVTZ AUX)
    Blend: AUG-CC-PVTZ-JKFIT + DEF2-UNIVERSAL-JKFIT
	 Reference Energy          =    -706.4654856272790084 [Eh]
	 Singles Energy            =      -0.0000000000000000 [Eh]
	 Same-Spin Energy          =      -0.2803707916803140 [Eh]
	 Opposite-Spin Energy      =      -0.8107676376944305 [Eh]
	 Correlation Energy        =      -1.0911384293747446 [Eh]
	 Total Energy              =    -707.5566240566537317 [Eh]

	 ================> DF-SCS-MP2 Energies <==================
	-----------------------------------------------------------
	 SCS Same-Spin Scale       =       0.3333333333333333 [-]
	 SCS Opposite-Spin Scale   =       1.2000000000000000 [-]
	 SCS Same-Spin Energy      =      -0.0934569305601047 [Eh]
	 SCS Opposite-Spin Energy  =      -0.9729211652333165 [Eh]
	 SCS Correlation Energy    =      -1.0663780957934212 [Eh]
	 SCS Total Energy          =    -707.5318637230724335 [Eh]
	-----------------------------------------------------------

  Dipole Moment: [D]
     X:     0.0286      Y:     1.5844      Z:     0.0000     Total:     1.5847

*** Psi4 exiting successfully. Buy a developer a beer!
