                               Psi4 1.4a3.dev225

  ==> Input File <==

--------------------------------------------------------------------------
#psi4
#
memory 32 gb

molecule  {
0 1
  I        3.0501070    -0.1728260     0.0000000
  I       -3.0501070    -0.1728260     0.0000000
  C        0.0000000     0.1252550     0.0000010
  C        1.2422480     1.0065380     0.0000000
  C       -1.2422490     1.0065380     0.0000000
  H        0.0000000    -0.5104019     0.8644602
  H        0.0000000    -0.5222520    -0.8805680
  H        1.2984770     1.6335130    -0.8904590
  H        1.2984780     1.6335140     0.8904580
  H       -1.2984780     1.6335130    -0.8904590
  H       -1.2984780     1.6335130     0.8904590
units angstrom
no_reorient  #important for SAPT in psi4, default
symmetry c1  #important for SAPT in psi4, default
}

set PROPERTIES_ORIGIN ["COM"]
properties('MP2/aug-cc-pvtz', properties = ['dipole'])
--------------------------------------------------------------------------

    Molecular point group: c1
  Charge       = 0
  Multiplicity = 1
  Basis Set: AUG-CC-PVTZ
    Blend: AUG-CC-PVTZ
  Basis Set: (AUG-CC-PVTZ AUX)
    Blend: AUG-CC-PVTZ-JKFIT + DEF2-UNIVERSAL-JKFIT

    Orbital Energies [Eh]
    ---------------------

    Doubly Occupied:

       1A    -11.298420     2A    -11.298419     3A    -11.259501
       4A     -7.717601     5A     -7.717601     6A     -5.549056
       7A     -5.549055     8A     -5.539828     9A     -5.539828
      10A     -5.539767    11A     -5.539767    12A     -2.278375
      13A     -2.278372    14A     -2.273887    15A     -2.273885
      16A     -2.273823    17A     -2.273820    18A     -2.263600
      19A     -2.263600    20A     -2.263599    21A     -2.263599
      22A     -1.110161    23A     -0.993671    24A     -0.895916
      25A     -0.831083    26A     -0.824312    27A     -0.685480
      28A     -0.602665    29A     -0.596783    30A     -0.570745
      31A     -0.523527    32A     -0.475227    33A     -0.433642
      34A     -0.372113    35A     -0.368131    36A     -0.365306
      37A     -0.361859

  @DF-RHF Final Energy:  -706.46606203780436

   => Energetics <=

    Nuclear Repulsion Energy =            332.3735892244500860
    One-Electron Energy =               -1847.1472571188919574
    Two-Electron Energy =                 808.3076058566374513
    Total Energy =                       -706.4660620378043632
  Basis Set: (AUG-CC-PVTZ AUX)
    Blend: AUG-CC-PVTZ-RI + DEF2-QZVPP-RI
    Molecular point group: c1

    Geometry (in Angstrom), charge = 0, multiplicity = 1:

       Center              X                  Y                   Z               Mass
    ------------   -----------------  -----------------  -----------------  -----------------
         I            3.050107043967    -0.130033664093     0.000054833627   126.904471900000
         I           -3.050106956033    -0.130033664093     0.000054833627   126.904471900000
         C            0.000000043967     0.168047335907     0.000055833627    12.000000000000
         C            1.242248043967     1.049330335907     0.000054833627    12.000000000000
         C           -1.242248956033     1.049330335907     0.000054833627    12.000000000000
         H            0.000000043967    -0.467609564093     0.864515033627     1.007825032230
         H            0.000000043967    -0.479459664093    -0.880513166373     1.007825032230
         H            1.298477043967     1.676305335907    -0.890404166373     1.007825032230
         H            1.298478043967     1.676306335907     0.890512833627     1.007825032230
         H           -1.298477956033     1.676305335907    -0.890404166373     1.007825032230
         H           -1.298477956033     1.676305335907     0.890513833627     1.007825032230

  Basis Set: AUG-CC-PVTZ
    Blend: AUG-CC-PVTZ
  Basis Set: (AUG-CC-PVTZ AUX)
    Blend: AUG-CC-PVTZ-JKFIT + DEF2-UNIVERSAL-JKFIT
	 Reference Energy          =    -706.4660620378043632 [Eh]
	 Singles Energy            =      -0.0000000000000000 [Eh]
	 Same-Spin Energy          =      -0.2801956095001313 [Eh]
	 Opposite-Spin Energy      =      -0.8105054574701958 [Eh]
	 Correlation Energy        =      -1.0907010669703270 [Eh]
	 Total Energy              =    -707.5567631047747454 [Eh]

	 ================> DF-SCS-MP2 Energies <==================
	-----------------------------------------------------------
	 SCS Same-Spin Scale       =       0.3333333333333333 [-]
	 SCS Opposite-Spin Scale   =       1.2000000000000000 [-]
	 SCS Same-Spin Energy      =      -0.0933985365000438 [Eh]
	 SCS Opposite-Spin Energy  =      -0.9726065489642348 [Eh]
	 SCS Correlation Energy    =      -1.0660050854642786 [Eh]
	 SCS Total Energy          =    -707.5320671232686891 [Eh]
	-----------------------------------------------------------

  Dipole Moment: [D]
     X:    -0.0000      Y:     1.5766      Z:     0.0026     Total:     1.5766

*** Psi4 exiting successfully. Buy a developer a beer!
