                               Psi4 1.4a3.dev225

  ==> Input File <==

--------------------------------------------------------------------------
#psi4
#
memory 32 gb

molecule  {
0 1
  I        3.0501070    -0.1728260     0.0000000
  I       -3.0389327    -0.1893536    -0.0319566
  C        0.0000000     0.1252550     0.0000010
  C        1.2422480     1.0065380     0.0000000
  C       -1.2422490     1.0065380     0.0000000
  H        0.0000000    -0.5222500     0.8805730
  H        0.0000000    -0.5222520    -0.8805680
  H        1.2984770     1.6335130    -0.8904590
  H        1.2984780     1.6335140     0.8904580
  H       -1.2984780     1.6335130    -0.8904590
  H       -1.2984780     1.6335130     0.8904590
units angstrom
no_reorient  #important for SAPT in psi4, default
symmetry c1  #important for SAPT in psi4, default
}

set PROPERTIES_ORIGIN ["COM"]
properties('MP2/aug-cc-pvtz', properties = ['dipole'])
--------------------------------------------------------------------------

    Molecular point group: c1
  Charge       = 0
  Multiplicity = 1
  Basis Set: AUG-CC-PVTZ
    Blend: AUG-CC-PVTZ
  Basis Set: (AUG-CC-PVTZ AUX)
    Blend: AUG-CC-PVTZ-JKFIT + DEF2-UNIVERSAL-JKFIT

    Orbital Energies [Eh]
    ---------------------

    Doubly Occupied:

       1A    -11.298592     2A    -11.298418     3A    -11.261710
       4A     -7.717612     5A     -7.717513     6A     -5.549072
       7A     -5.548969     8A     -5.539833     9A     -5.539778
      10A     -5.539739    11A     -5.539679    12A     -2.278391
      13A     -2.278287    14A     -2.273897    15A     -2.273839
      16A     -2.273798    17A     -2.273735    18A     -2.263605
      19A     -2.263604    20A     -2.263511    21A     -2.263510
      22A     -1.109484    23A     -0.993712    24A     -0.894871
      25A     -0.831140    26A     -0.823155    27A     -0.684342
      28A     -0.602690    29A     -0.596967    30A     -0.569820
      31A     -0.521542    32A     -0.475105    33A     -0.433594
      34A     -0.372085    35A     -0.368136    36A     -0.365310
      37A     -0.361751

  @DF-RHF Final Energy:  -706.46592485772476

   => Energetics <=

    Nuclear Repulsion Energy =            332.5015484507918586
    One-Electron Energy =               -1847.4133582881511302
    Two-Electron Energy =                 808.4458849796344566
    Total Energy =                       -706.4659248577247581
  Basis Set: (AUG-CC-PVTZ AUX)
    Blend: AUG-CC-PVTZ-RI + DEF2-QZVPP-RI
    Molecular point group: c1

    Geometry (in Angstrom), charge = 0, multiplicity = 1:

       Center              X                  Y                   Z               Mass
    ------------   -----------------  -----------------  -----------------  -----------------
         I            3.045313938035    -0.122903952620     0.013707414649   126.904471900000
         I           -3.043725761965    -0.139431552620    -0.018249185351   126.904471900000
         C           -0.004793061965     0.175177047380     0.013708414649    12.000000000000
         C            1.237454938035     1.056460047380     0.013707414649    12.000000000000
         C           -1.247042061965     1.056460047380     0.013707414649    12.000000000000
         H           -0.004793061965    -0.472327952620     0.894280414649     1.007825032230
         H           -0.004793061965    -0.472329952620    -0.866860585351     1.007825032230
         H            1.293683938035     1.683435047380    -0.876751585351     1.007825032230
         H            1.293684938035     1.683436047380     0.904165414649     1.007825032230
         H           -1.303271061965     1.683435047380    -0.876751585351     1.007825032230
         H           -1.303271061965     1.683435047380     0.904166414649     1.007825032230

  Basis Set: AUG-CC-PVTZ
    Blend: AUG-CC-PVTZ
  Basis Set: (AUG-CC-PVTZ AUX)
    Blend: AUG-CC-PVTZ-JKFIT + DEF2-UNIVERSAL-JKFIT
	 Reference Energy          =    -706.4659248577247581 [Eh]
	 Singles Energy            =      -0.0000000000000000 [Eh]
	 Same-Spin Energy          =      -0.2802510369909456 [Eh]
	 Opposite-Spin Energy      =      -0.8106887009854117 [Eh]
	 Correlation Energy        =      -1.0909397379763572 [Eh]
	 Total Energy              =    -707.5568645957010858 [Eh]

	 ================> DF-SCS-MP2 Energies <==================
	-----------------------------------------------------------
	 SCS Same-Spin Scale       =       0.3333333333333333 [-]
	 SCS Opposite-Spin Scale   =       1.2000000000000000 [-]
	 SCS Same-Spin Energy      =      -0.0934170123303152 [Eh]
	 SCS Opposite-Spin Energy  =      -0.9728264411824940 [Eh]
	 SCS Correlation Energy    =      -1.0662434535128091 [Eh]
	 SCS Total Energy          =    -707.5321683112375695 [Eh]
	-----------------------------------------------------------

  Dipole Moment: [D]
     X:    -0.0107      Y:     1.5866      Z:     0.0153     Total:     1.5868

*** Psi4 exiting successfully. Buy a developer a beer!
