                               Psi4 1.4a3.dev225

  ==> Input File <==

--------------------------------------------------------------------------
#psi4
#
memory 32 gb

molecule  {
0 1
  I        3.0501070    -0.1728260     0.0000000
  I       -3.0501070    -0.1728260     0.0000000
  C        0.0000000     0.1252550     0.0000010
  C        1.2422480     1.0065380     0.0000000
  C       -1.2422490     1.0065380     0.0000000
  H        0.0000000    -0.5222500     0.8805730
  H        0.0000000    -0.5222520    -0.8805680
  H        1.2984770     1.6335130    -0.8904590
  H        1.2984780     1.6335140     0.8904580
  H       -1.3038894     1.6938527    -0.8443788
  H       -1.2984780     1.6335130     0.8904590
units angstrom
no_reorient  #important for SAPT in psi4, default
symmetry c1  #important for SAPT in psi4, default
}

set PROPERTIES_ORIGIN ["COM"]
properties('MP2/aug-cc-pvtz', properties = ['dipole'])
--------------------------------------------------------------------------

    Molecular point group: c1
  Charge       = 0
  Multiplicity = 1
  Basis Set: AUG-CC-PVTZ
    Blend: AUG-CC-PVTZ
  Basis Set: (AUG-CC-PVTZ AUX)
    Blend: AUG-CC-PVTZ-JKFIT + DEF2-UNIVERSAL-JKFIT

    Orbital Energies [Eh]
    ---------------------

    Doubly Occupied:

       1A    -11.298506     2A    -11.297957     3A    -11.262346
       4A     -7.718016     5A     -7.717543     6A     -5.549500
       7A     -5.548998     8A     -5.540231     9A     -5.540156
      10A     -5.539771    11A     -5.539709    12A     -2.278819
      13A     -2.278317    14A     -2.274318    15A     -2.274240
      16A     -2.273829    17A     -2.273764    18A     -2.263970
      19A     -2.263969    20A     -2.263542    21A     -2.263541
      22A     -1.109029    23A     -0.993529    24A     -0.895310
      25A     -0.831686    26A     -0.824288    27A     -0.681761
      28A     -0.600227    29A     -0.597600    30A     -0.570438
      31A     -0.520217    32A     -0.476636    33A     -0.433994
      34A     -0.372284    35A     -0.368088    36A     -0.365220
      37A     -0.362087

  @DF-RHF Final Energy:  -706.46547488448698

   => Energetics <=

    Nuclear Repulsion Energy =            332.2070681204360199
    One-Electron Energy =               -1846.8182103014635231
    Two-Electron Energy =                 808.1456672965404096
    Total Energy =                       -706.4654748844869800
  Basis Set: (AUG-CC-PVTZ AUX)
    Blend: AUG-CC-PVTZ-RI + DEF2-QZVPP-RI
    Molecular point group: c1

    Geometry (in Angstrom), charge = 0, multiplicity = 1:

       Center              X                  Y                   Z               Mass
    ------------   -----------------  -----------------  -----------------  -----------------
         I            3.050125477753    -0.130198849405    -0.000157025130   126.904471900000
         I           -3.050088522247    -0.130198849405    -0.000157025130   126.904471900000
         C            0.000018477753     0.167882150595    -0.000156025130    12.000000000000
         C            1.242266477753     1.049165150595    -0.000157025130    12.000000000000
         C           -1.242230522247     1.049165150595    -0.000157025130    12.000000000000
         H            0.000018477753    -0.479622849405     0.880415974870     1.007825032230
         H            0.000018477753    -0.479624849405    -0.880725025130     1.007825032230
         H            1.298495477753     1.676140150595    -0.890616025130     1.007825032230
         H            1.298496477753     1.676141150595     0.890300974870     1.007825032230
         H           -1.303870922247     1.736479850595    -0.844535825130     1.007825032230
         H           -1.298459522247     1.676140150595     0.890301974870     1.007825032230

  Basis Set: AUG-CC-PVTZ
    Blend: AUG-CC-PVTZ
  Basis Set: (AUG-CC-PVTZ AUX)
    Blend: AUG-CC-PVTZ-JKFIT + DEF2-UNIVERSAL-JKFIT
	 Reference Energy          =    -706.4654748844869800 [Eh]
	 Singles Energy            =      -0.0000000000000000 [Eh]
	 Same-Spin Energy          =      -0.2802049709604471 [Eh]
	 Opposite-Spin Energy      =      -0.8106445663982136 [Eh]
	 Correlation Energy        =      -1.0908495373586606 [Eh]
	 Total Energy              =    -707.5563244218456020 [Eh]

	 ================> DF-SCS-MP2 Energies <==================
	-----------------------------------------------------------
	 SCS Same-Spin Scale       =       0.3333333333333333 [-]
	 SCS Opposite-Spin Scale   =       1.2000000000000000 [-]
	 SCS Same-Spin Energy      =      -0.0934016569868157 [Eh]
	 SCS Opposite-Spin Energy  =      -0.9727734796778562 [Eh]
	 SCS Correlation Energy    =      -1.0661751366646719 [Eh]
	 SCS Total Energy          =    -707.5316500211516768 [Eh]
	-----------------------------------------------------------

  Dipole Moment: [D]
     X:    -0.0128      Y:     1.5873      Z:     0.0159     Total:     1.5875

*** Psi4 exiting successfully. Buy a developer a beer!
