                               Psi4 1.4a3.dev225

  ==> Input File <==

--------------------------------------------------------------------------
#psi4
#
memory 32 gb

molecule  {
0 1
  I        3.0501070    -0.1728260     0.0000000
  I       -3.0501070    -0.1728260     0.0000000
  C        0.0000000     0.1252550     0.0000010
  C        1.2422480     1.0065380     0.0000000
  C       -1.2341492     1.0175545    -0.0227964
  H        0.0000000    -0.5222500     0.8805730
  H        0.0000000    -0.5222520    -0.8805680
  H        1.2984770     1.6335130    -0.8904590
  H        1.2984780     1.6335140     0.8904580
  H       -1.2984780     1.6335130    -0.8904590
  H       -1.2984780     1.6335130     0.8904590
units angstrom
no_reorient  #important for SAPT in psi4, default
symmetry c1  #important for SAPT in psi4, default
}

set PROPERTIES_ORIGIN ["COM"]
properties('MP2/aug-cc-pvtz', properties = ['dipole'])
--------------------------------------------------------------------------

    Molecular point group: c1
  Charge       = 0
  Multiplicity = 1
  Basis Set: AUG-CC-PVTZ
    Blend: AUG-CC-PVTZ
  Basis Set: (AUG-CC-PVTZ AUX)
    Blend: AUG-CC-PVTZ-JKFIT + DEF2-UNIVERSAL-JKFIT

    Orbital Energies [Eh]
    ---------------------

    Doubly Occupied:

       1A    -11.298997     2A    -11.298739     3A    -11.262364
       4A     -7.717683     5A     -7.716801     6A     -5.549137
       7A     -5.548215     8A     -5.539910     9A     -5.539850
      10A     -5.539033    11A     -5.538977    12A     -2.278456
      13A     -2.277462    14A     -2.273968    15A     -2.273904
      16A     -2.273049    17A     -2.272991    18A     -2.263683
      19A     -2.263682    20A     -2.262817    21A     -2.262816
      22A     -1.110123    23A     -0.993485    24A     -0.894595
      25A     -0.831534    26A     -0.824194    27A     -0.685725
      28A     -0.606020    29A     -0.595987    30A     -0.571226
      31A     -0.522753    32A     -0.474033    33A     -0.431838
      34A     -0.371884    35A     -0.368018    36A     -0.365232
      37A     -0.361657

  @DF-RHF Final Energy:  -706.46546777999436

   => Energetics <=

    Nuclear Repulsion Energy =            332.1393220633123065
    One-Electron Energy =               -1846.6879042565362852
    Two-Electron Energy =                 808.0831144132295094
    Total Energy =                       -706.4654677799943556
  Basis Set: (AUG-CC-PVTZ AUX)
    Blend: AUG-CC-PVTZ-RI + DEF2-QZVPP-RI
    Molecular point group: c1

    Geometry (in Angstrom), charge = 0, multiplicity = 1:

       Center              X                  Y                   Z               Mass
    ------------   -----------------  -----------------  -----------------  -----------------
         I            3.049778513753    -0.130440136266     0.000924574343   126.904471900000
         I           -3.050435486247    -0.130440136266     0.000924574343   126.904471900000
         C           -0.000328486247     0.167640863734     0.000925574343    12.000000000000
         C            1.241919513753     1.048923863734     0.000924574343    12.000000000000
         C           -1.234477686247     1.059940363734    -0.021871825657    12.000000000000
         H           -0.000328486247    -0.479864136266     0.881497574343     1.007825032230
         H           -0.000328486247    -0.479866136266    -0.879643425657     1.007825032230
         H            1.298148513753     1.675898863734    -0.889534425657     1.007825032230
         H            1.298149513753     1.675899863734     0.891382574343     1.007825032230
         H           -1.298806486247     1.675898863734    -0.889534425657     1.007825032230
         H           -1.298806486247     1.675898863734     0.891383574343     1.007825032230

  Basis Set: AUG-CC-PVTZ
    Blend: AUG-CC-PVTZ
  Basis Set: (AUG-CC-PVTZ AUX)
    Blend: AUG-CC-PVTZ-JKFIT + DEF2-UNIVERSAL-JKFIT
	 Reference Energy          =    -706.4654677799943556 [Eh]
	 Singles Energy            =      -0.0000000000000000 [Eh]
	 Same-Spin Energy          =      -0.2801520644776465 [Eh]
	 Opposite-Spin Energy      =      -0.8105366071854352 [Eh]
	 Correlation Energy        =      -1.0906886716630817 [Eh]
	 Total Energy              =    -707.5561564516574435 [Eh]

	 ================> DF-SCS-MP2 Energies <==================
	-----------------------------------------------------------
	 SCS Same-Spin Scale       =       0.3333333333333333 [-]
	 SCS Opposite-Spin Scale   =       1.2000000000000000 [-]
	 SCS Same-Spin Energy      =      -0.0933840214925488 [Eh]
	 SCS Opposite-Spin Energy  =      -0.9726439286225221 [Eh]
	 SCS Correlation Energy    =      -1.0660279501150709 [Eh]
	 SCS Total Energy          =    -707.5314957301094410 [Eh]
	-----------------------------------------------------------

  Dipole Moment: [D]
     X:     0.0264      Y:     1.5914      Z:    -0.0051     Total:     1.5916

*** Psi4 exiting successfully. Buy a developer a beer!
