                               Psi4 1.4a3.dev225

  ==> Input File <==

--------------------------------------------------------------------------
#psi4
#
memory 32 gb

molecule  {
0 1
  I        3.0501070    -0.1728260     0.0000000
  I       -3.0501070    -0.1728260     0.0000000
  C        0.0000000     0.1252550     0.0000010
  C        1.2422480     1.0065380     0.0000000
  C       -1.2708414     0.9598223     0.0911162
  H        0.0000000    -0.5222500     0.8805730
  H        0.0000000    -0.5222520    -0.8805680
  H        1.2984770     1.6335130    -0.8904590
  H        1.2984780     1.6335140     0.8904580
  H       -1.2984780     1.6335130    -0.8904590
  H       -1.2984780     1.6335130     0.8904590
units angstrom
no_reorient  #important for SAPT in psi4, default
symmetry c1  #important for SAPT in psi4, default
}

set PROPERTIES_ORIGIN ["COM"]
properties('MP2/aug-cc-pvtz', properties = ['dipole'])
--------------------------------------------------------------------------

    Molecular point group: c1
  Charge       = 0
  Multiplicity = 1
  Basis Set: AUG-CC-PVTZ
    Blend: AUG-CC-PVTZ
  Basis Set: (AUG-CC-PVTZ AUX)
    Blend: AUG-CC-PVTZ-JKFIT + DEF2-UNIVERSAL-JKFIT

    Orbital Energies [Eh]
    ---------------------

    Doubly Occupied:

       1A    -11.298322     2A    -11.298014     3A    -11.260720
       4A     -7.720901     5A     -7.717417     6A     -5.552564
       7A     -5.548891     8A     -5.543095     9A     -5.542989
      10A     -5.539634    11A     -5.539569    12A     -2.282181
      13A     -2.278211    14A     -2.277365    15A     -2.277266
      16A     -2.273712    17A     -2.273645    18A     -2.266783
      19A     -2.266780    20A     -2.263389    21A     -2.263388
      22A     -1.107523    23A     -0.995761    24A     -0.897969
      25A     -0.831054    26A     -0.819990    27A     -0.678325
      28A     -0.607764    29A     -0.586936    30A     -0.564602
      31A     -0.514132    32A     -0.477443    33A     -0.439992
      34A     -0.373343    35A     -0.368141    36A     -0.365154
      37A     -0.362191

  @DF-RHF Final Energy:  -706.45547070046405

   => Energetics <=

    Nuclear Repulsion Energy =            332.8124259704455312
    One-Electron Energy =               -1847.9854851588102065
    Two-Electron Energy =                 808.7175884879006844
    Total Energy =                       -706.4554707004640477
  Basis Set: (AUG-CC-PVTZ AUX)
    Blend: AUG-CC-PVTZ-RI + DEF2-QZVPP-RI
    Molecular point group: c1

    Geometry (in Angstrom), charge = 0, multiplicity = 1:

       Center              X                  Y                   Z               Mass
    ------------   -----------------  -----------------  -----------------  -----------------
         I            3.051266759920    -0.128098501659    -0.003695753417   126.904471900000
         I           -3.048947240080    -0.128098501659    -0.003695753417   126.904471900000
         C            0.001159759920     0.169982498341    -0.003694753417    12.000000000000
         C            1.243407759920     1.051265498341    -0.003695753417    12.000000000000
         C           -1.269681640080     1.004549798341     0.087420446583    12.000000000000
         H            0.001159759920    -0.477522501659     0.876877246583     1.007825032230
         H            0.001159759920    -0.477524501659    -0.884263753417     1.007825032230
         H            1.299636759920     1.678240498341    -0.894154753417     1.007825032230
         H            1.299637759920     1.678241498341     0.886762246583     1.007825032230
         H           -1.297318240080     1.678240498341    -0.894154753417     1.007825032230
         H           -1.297318240080     1.678240498341     0.886763246583     1.007825032230

  Basis Set: AUG-CC-PVTZ
    Blend: AUG-CC-PVTZ
  Basis Set: (AUG-CC-PVTZ AUX)
    Blend: AUG-CC-PVTZ-JKFIT + DEF2-UNIVERSAL-JKFIT
	 Reference Energy          =    -706.4554707004640477 [Eh]
	 Singles Energy            =      -0.0000000000000000 [Eh]
	 Same-Spin Energy          =      -0.2807151281707368 [Eh]
	 Opposite-Spin Energy      =      -0.8117349142754746 [Eh]
	 Correlation Energy        =      -1.0924500424462114 [Eh]
	 Total Energy              =    -707.5479207429102644 [Eh]

	 ================> DF-SCS-MP2 Energies <==================
	-----------------------------------------------------------
	 SCS Same-Spin Scale       =       0.3333333333333333 [-]
	 SCS Opposite-Spin Scale   =       1.2000000000000000 [-]
	 SCS Same-Spin Energy      =      -0.0935717093902456 [Eh]
	 SCS Opposite-Spin Energy  =      -0.9740818971305695 [Eh]
	 SCS Correlation Energy    =      -1.0676536065208151 [Eh]
	 SCS Total Energy          =    -707.5231243069848688 [Eh]
	-----------------------------------------------------------

  Dipole Moment: [D]
     X:    -0.0974      Y:     1.5117      Z:     0.0256     Total:     1.5151

*** Psi4 exiting successfully. Buy a developer a beer!
