                               Psi4 1.4a3.dev225

  ==> Input File <==

--------------------------------------------------------------------------
#psi4
#
memory 32 gb

molecule  {
0 1
  I        3.0501070    -0.1728260     0.0000000
  I       -3.0501070    -0.1728260     0.0000000
  C        0.0000000     0.1252550     0.0000010
  C        1.2422480     1.0065380     0.0000000
  C       -1.2422490     1.0065380     0.0000000
  H        0.0000000    -0.5222500     0.8805730
  H        0.0000000    -0.5222520    -0.8805680
  H        1.2984770     1.6335130    -0.8904590
  H        1.3010562     1.6622614     0.9312862
  H       -1.2984780     1.6335130    -0.8904590
  H       -1.2984780     1.6335130     0.8904590
units angstrom
no_reorient  #important for SAPT in psi4, default
symmetry c1  #important for SAPT in psi4, default
}

set PROPERTIES_ORIGIN ["COM"]
properties('MP2/aug-cc-pvtz', properties = ['dipole'])
--------------------------------------------------------------------------

    Molecular point group: c1
  Charge       = 0
  Multiplicity = 1
  Basis Set: AUG-CC-PVTZ
    Blend: AUG-CC-PVTZ
  Basis Set: (AUG-CC-PVTZ AUX)
    Blend: AUG-CC-PVTZ-JKFIT + DEF2-UNIVERSAL-JKFIT

    Orbital Energies [Eh]
    ---------------------

    Doubly Occupied:

       1A    -11.303929     2A    -11.298486     3A    -11.262211
       4A     -7.717836     5A     -7.717565     6A     -5.549314
       7A     -5.549020     8A     -5.540049     9A     -5.539988
      10A     -5.539792    11A     -5.539730    12A     -2.278638
      13A     -2.278339    14A     -2.274134    15A     -2.274070
      16A     -2.273850    17A     -2.273786    18A     -2.263805
      19A     -2.263804    20A     -2.263563    21A     -2.263562
      22A     -1.108389    23A     -0.991697    24A     -0.895031
      25A     -0.830048    26A     -0.820283    27A     -0.682149
      28A     -0.599913    29A     -0.594460    30A     -0.569603
      31A     -0.520121    32A     -0.474805    33A     -0.433546
      34A     -0.372111    35A     -0.368072    36A     -0.365143
      37A     -0.361914

  @DF-RHF Final Energy:  -706.46370403615299

   => Energetics <=

    Nuclear Repulsion Energy =            332.0326291357421269
    One-Electron Energy =               -1846.4871537605179128
    Two-Electron Energy =                 807.9908205886227961
    Total Energy =                       -706.4637040361529898
  Basis Set: (AUG-CC-PVTZ AUX)
    Blend: AUG-CC-PVTZ-RI + DEF2-QZVPP-RI
    Molecular point group: c1

    Geometry (in Angstrom), charge = 0, multiplicity = 1:

       Center              X                  Y                   Z               Mass
    ------------   -----------------  -----------------  -----------------  -----------------
         I            3.050098261399    -0.130091231097    -0.000139134336   126.904471900000
         I           -3.050115738601    -0.130091231097    -0.000139134336   126.904471900000
         C           -0.000008738601     0.167989768903    -0.000138134336    12.000000000000
         C            1.242239261399     1.049272768903    -0.000139134336    12.000000000000
         C           -1.242257738601     1.049272768903    -0.000139134336    12.000000000000
         H           -0.000008738601    -0.479515231097     0.880433865664     1.007825032230
         H           -0.000008738601    -0.479517231097    -0.880707134336     1.007825032230
         H            1.298468261399     1.676247768903    -0.890598134336     1.007825032230
         H            1.301047461399     1.704996168903     0.931147065664     1.007825032230
         H           -1.298486738601     1.676247768903    -0.890598134336     1.007825032230
         H           -1.298486738601     1.676247768903     0.890319865664     1.007825032230

  Basis Set: AUG-CC-PVTZ
    Blend: AUG-CC-PVTZ
  Basis Set: (AUG-CC-PVTZ AUX)
    Blend: AUG-CC-PVTZ-JKFIT + DEF2-UNIVERSAL-JKFIT
	 Reference Energy          =    -706.4637040361529898 [Eh]
	 Singles Energy            =      -0.0000000000000000 [Eh]
	 Same-Spin Energy          =      -0.2803227609766431 [Eh]
	 Opposite-Spin Energy      =      -0.8110747383240603 [Eh]
	 Correlation Energy        =      -1.0913974993007034 [Eh]
	 Total Energy              =    -707.5551015354536730 [Eh]

	 ================> DF-SCS-MP2 Energies <==================
	-----------------------------------------------------------
	 SCS Same-Spin Scale       =       0.3333333333333333 [-]
	 SCS Opposite-Spin Scale   =       1.2000000000000000 [-]
	 SCS Same-Spin Energy      =      -0.0934409203255477 [Eh]
	 SCS Opposite-Spin Energy  =      -0.9732896859888723 [Eh]
	 SCS Correlation Energy    =      -1.0667306063144200 [Eh]
	 SCS Total Energy          =    -707.5304346424674122 [Eh]
	-----------------------------------------------------------

  Dipole Moment: [D]
     X:     0.0046      Y:     1.5669      Z:    -0.0035     Total:     1.5669

*** Psi4 exiting successfully. Buy a developer a beer!
