                               Psi4 1.4a3.dev225

  ==> Input File <==

--------------------------------------------------------------------------
#psi4
#
memory 32 gb

molecule  {
0 1
  I        3.0501070    -0.1728260     0.0000000
  I       -3.0708004    -0.1386983    -0.0639035
  C        0.0000000     0.1252550     0.0000010
  C        1.2422480     1.0065380     0.0000000
  C       -1.2422490     1.0065380     0.0000000
  H        0.0000000    -0.5222500     0.8805730
  H        0.0000000    -0.5222520    -0.8805680
  H        1.2984770     1.6335130    -0.8904590
  H        1.2984780     1.6335140     0.8904580
  H       -1.2984780     1.6335130    -0.8904590
  H       -1.2984780     1.6335130     0.8904590
units angstrom
no_reorient  #important for SAPT in psi4, default
symmetry c1  #important for SAPT in psi4, default
}

set PROPERTIES_ORIGIN ["COM"]
properties('MP2/aug-cc-pvtz', properties = ['dipole'])
--------------------------------------------------------------------------

    Molecular point group: c1
  Charge       = 0
  Multiplicity = 1
  Basis Set: AUG-CC-PVTZ
    Blend: AUG-CC-PVTZ
  Basis Set: (AUG-CC-PVTZ AUX)
    Blend: AUG-CC-PVTZ-JKFIT + DEF2-UNIVERSAL-JKFIT

    Orbital Energies [Eh]
    ---------------------

    Doubly Occupied:

       1A    -11.298774     2A    -11.298425     3A    -11.262075
       4A     -7.717767     5A     -7.717596     6A     -5.549229
       7A     -5.549054     8A     -5.539989     9A     -5.539928
      10A     -5.539828    11A     -5.539754    12A     -2.278548
      13A     -2.278371    14A     -2.274055    15A     -2.273992
      16A     -2.273886    17A     -2.273813    18A     -2.263756
      19A     -2.263755    20A     -2.263591    21A     -2.263590
      22A     -1.109345    23A     -0.993795    24A     -0.895787
      25A     -0.831107    26A     -0.822552    27A     -0.684377
      28A     -0.602813    29A     -0.596753    30A     -0.570165
      31A     -0.521739    32A     -0.474747    33A     -0.433867
      34A     -0.372117    35A     -0.368120    36A     -0.365257
      37A     -0.362088

  @DF-RHF Final Energy:  -706.46593307244086

   => Energetics <=

    Nuclear Repulsion Energy =            331.8550179372518869
    One-Electron Energy =               -1846.1130905815350616
    Two-Electron Energy =                 807.7921395718423128
    Total Energy =                       -706.4659330724408619
  Basis Set: (AUG-CC-PVTZ AUX)
    Blend: AUG-CC-PVTZ-RI + DEF2-QZVPP-RI
    Molecular point group: c1

    Geometry (in Angstrom), charge = 0, multiplicity = 1:

       Center              X                  Y                   Z               Mass
    ------------   -----------------  -----------------  -----------------  -----------------
         I            3.058983274091    -0.144632044661     0.027410722765   126.904471900000
         I           -3.061924125909    -0.110504344661    -0.036492777235   126.904471900000
         C            0.008876274091     0.153448955339     0.027411722765    12.000000000000
         C            1.251124274091     1.034731955339     0.027410722765    12.000000000000
         C           -1.233372725909     1.034731955339     0.027410722765    12.000000000000
         H            0.008876274091    -0.494056044661     0.907983722765     1.007825032230
         H            0.008876274091    -0.494058044661    -0.853157277235     1.007825032230
         H            1.307353274091     1.661706955339    -0.863048277235     1.007825032230
         H            1.307354274091     1.661707955339     0.917868722765     1.007825032230
         H           -1.289601725909     1.661706955339    -0.863048277235     1.007825032230
         H           -1.289601725909     1.661706955339     0.917869722765     1.007825032230

  Basis Set: AUG-CC-PVTZ
    Blend: AUG-CC-PVTZ
  Basis Set: (AUG-CC-PVTZ AUX)
    Blend: AUG-CC-PVTZ-JKFIT + DEF2-UNIVERSAL-JKFIT
	 Reference Energy          =    -706.4659330724408619 [Eh]
	 Singles Energy            =      -0.0000000000000000 [Eh]
	 Same-Spin Energy          =      -0.2801824174640155 [Eh]
	 Opposite-Spin Energy      =      -0.8105904467544629 [Eh]
	 Correlation Energy        =      -1.0907728642184784 [Eh]
	 Total Energy              =    -707.5567059366593412 [Eh]

	 ================> DF-SCS-MP2 Energies <==================
	-----------------------------------------------------------
	 SCS Same-Spin Scale       =       0.3333333333333333 [-]
	 SCS Opposite-Spin Scale   =       1.2000000000000000 [-]
	 SCS Same-Spin Energy      =      -0.0933941391546718 [Eh]
	 SCS Opposite-Spin Energy  =      -0.9727085361053555 [Eh]
	 SCS Correlation Energy    =      -1.0661026752600273 [Eh]
	 SCS Total Energy          =    -707.5320357477008884 [Eh]
	-----------------------------------------------------------

  Dipole Moment: [D]
     X:     0.0206      Y:     1.5630      Z:     0.0308     Total:     1.5634

*** Psi4 exiting successfully. Buy a developer a beer!
