                               Psi4 1.4a3.dev225

  ==> Input File <==

--------------------------------------------------------------------------
#psi4
#
memory 32 gb

molecule  {
0 1
  I        3.0501070    -0.1728260     0.0000000
  I       -3.0501070    -0.1728260     0.0000000
  C        0.0000000     0.1252550     0.0000010
  C        1.2422480     1.0065380     0.0000000
  C       -1.2422490     1.0065380     0.0000000
  H        0.0000000    -0.5222500     0.8805730
  H        0.0000000    -0.5222520    -0.8805680
  H        1.2984770     1.6335130    -0.8904590
  H        1.2974467     1.6220151     0.8741267
  H       -1.2984780     1.6335130    -0.8904590
  H       -1.2984780     1.6335130     0.8904590
units angstrom
no_reorient  #important for SAPT in psi4, default
symmetry c1  #important for SAPT in psi4, default
}

set PROPERTIES_ORIGIN ["COM"]
properties('MP2/aug-cc-pvtz', properties = ['dipole'])
--------------------------------------------------------------------------

    Molecular point group: c1
  Charge       = 0
  Multiplicity = 1
  Basis Set: AUG-CC-PVTZ
    Blend: AUG-CC-PVTZ
  Basis Set: (AUG-CC-PVTZ AUX)
    Blend: AUG-CC-PVTZ-JKFIT + DEF2-UNIVERSAL-JKFIT

    Orbital Energies [Eh]
    ---------------------

    Doubly Occupied:

       1A    -11.298563     2A    -11.296330     3A    -11.261694
       4A     -7.717615     5A     -7.717522     6A     -5.549074
       7A     -5.548972     8A     -5.539839     9A     -5.539779
      10A     -5.539751    11A     -5.539691    12A     -2.278393
      13A     -2.278289    14A     -2.273901    15A     -2.273839
      16A     -2.273804    17A     -2.273741    18A     -2.263609
      19A     -2.263608    20A     -2.263527    21A     -2.263526
      22A     -1.109931    23A     -0.994665    24A     -0.895257
      25A     -0.831839    26A     -0.823907    27A     -0.685310
      28A     -0.604543    29A     -0.597192    30A     -0.570042
      31A     -0.522121    32A     -0.475062    33A     -0.433772
      34A     -0.372097    35A     -0.368160    36A     -0.365369
      37A     -0.361853

  @DF-RHF Final Energy:  -706.46609676930950

   => Energetics <=

    Nuclear Repulsion Energy =            332.3793677155997557
    One-Electron Energy =               -1847.1585533556849441
    Two-Electron Energy =                 808.3130888707756867
    Total Energy =                       -706.4660967693095017
  Basis Set: (AUG-CC-PVTZ AUX)
    Blend: AUG-CC-PVTZ-RI + DEF2-QZVPP-RI
    Molecular point group: c1

    Geometry (in Angstrom), charge = 0, multiplicity = 1:

       Center              X                  Y                   Z               Mass
    ------------   -----------------  -----------------  -----------------  -----------------
         I            3.050110557062    -0.129954133174     0.000055577942   126.904471900000
         I           -3.050103442938    -0.129954133174     0.000055577942   126.904471900000
         C            0.000003557062     0.168126866826     0.000056577942    12.000000000000
         C            1.242251557062     1.049409866826     0.000055577942    12.000000000000
         C           -1.242245442938     1.049409866826     0.000055577942    12.000000000000
         H            0.000003557062    -0.479378133174     0.880628577942     1.007825032230
         H            0.000003557062    -0.479380133174    -0.880512422058     1.007825032230
         H            1.298480557062     1.676384866826    -0.890403422058     1.007825032230
         H            1.297450257062     1.664886966826     0.874182277942     1.007825032230
         H           -1.298474442938     1.676384866826    -0.890403422058     1.007825032230
         H           -1.298474442938     1.676384866826     0.890514577942     1.007825032230

  Basis Set: AUG-CC-PVTZ
    Blend: AUG-CC-PVTZ
  Basis Set: (AUG-CC-PVTZ AUX)
    Blend: AUG-CC-PVTZ-JKFIT + DEF2-UNIVERSAL-JKFIT
	 Reference Energy          =    -706.4660967693095017 [Eh]
	 Singles Energy            =      -0.0000000000000000 [Eh]
	 Same-Spin Energy          =      -0.2801867135574248 [Eh]
	 Opposite-Spin Energy      =      -0.8104979472182411 [Eh]
	 Correlation Energy        =      -1.0906846607756659 [Eh]
	 Total Energy              =    -707.5567814300851524 [Eh]

	 ================> DF-SCS-MP2 Energies <==================
	-----------------------------------------------------------
	 SCS Same-Spin Scale       =       0.3333333333333333 [-]
	 SCS Opposite-Spin Scale   =       1.2000000000000000 [-]
	 SCS Same-Spin Energy      =      -0.0933955711858083 [Eh]
	 SCS Opposite-Spin Energy  =      -0.9725975366618893 [Eh]
	 SCS Correlation Energy    =      -1.0659931078476976 [Eh]
	 SCS Total Energy          =    -707.5320898771572047 [Eh]
	-----------------------------------------------------------

  Dipole Moment: [D]
     X:    -0.0015      Y:     1.5829      Z:     0.0007     Total:     1.5829

*** Psi4 exiting successfully. Buy a developer a beer!
