                               Psi4 1.4a3.dev225

  ==> Input File <==

--------------------------------------------------------------------------
#psi4
#
memory 32 gb

molecule  {
0 1
  I        3.0292489    -0.2041979     0.0000000
  I       -3.0501070    -0.1728260     0.0000000
  C        0.0000000     0.1252550     0.0000010
  C        1.2422480     1.0065380     0.0000000
  C       -1.2422490     1.0065380     0.0000000
  H        0.0000000    -0.5222500     0.8805730
  H        0.0000000    -0.5222520    -0.8805680
  H        1.2984770     1.6335130    -0.8904590
  H        1.2984780     1.6335140     0.8904580
  H       -1.2984780     1.6335130    -0.8904590
  H       -1.2984780     1.6335130     0.8904590
units angstrom
no_reorient  #important for SAPT in psi4, default
symmetry c1  #important for SAPT in psi4, default
}

set PROPERTIES_ORIGIN ["COM"]
properties('MP2/aug-cc-pvtz', properties = ['dipole'])
--------------------------------------------------------------------------

    Molecular point group: c1
  Charge       = 0
  Multiplicity = 1
  Basis Set: AUG-CC-PVTZ
    Blend: AUG-CC-PVTZ
  Basis Set: (AUG-CC-PVTZ AUX)
    Blend: AUG-CC-PVTZ-JKFIT + DEF2-UNIVERSAL-JKFIT

    Orbital Energies [Eh]
    ---------------------

    Doubly Occupied:

       1A    -11.298639     2A    -11.298309     3A    -11.261603
       4A     -7.717617     5A     -7.717437     6A     -5.549078
       7A     -5.548890     8A     -5.539835     9A     -5.539786
      10A     -5.539664    11A     -5.539604    12A     -2.278399
      13A     -2.278208    14A     -2.273902    15A     -2.273849
      16A     -2.273720    17A     -2.273658    18A     -2.263609
      19A     -2.263609    20A     -2.263437    21A     -2.263437
      22A     -1.109530    23A     -0.993690    24A     -0.894595
      25A     -0.831170    26A     -0.823317    27A     -0.684333
      28A     -0.602653    29A     -0.597035    30A     -0.569718
      31A     -0.521486    32A     -0.475209    33A     -0.433506
      34A     -0.372072    35A     -0.368149    36A     -0.365316
      37A     -0.361643

  @DF-RHF Final Energy:  -706.46588039874655

   => Energetics <=

    Nuclear Repulsion Energy =            332.6986497710556137
    One-Electron Energy =               -1847.8096325505182449
    Two-Electron Energy =                 808.6451023807160254
    Total Energy =                       -706.4658803987465490
  Basis Set: (AUG-CC-PVTZ AUX)
    Blend: AUG-CC-PVTZ-RI + DEF2-QZVPP-RI
    Molecular point group: c1

    Geometry (in Angstrom), charge = 0, multiplicity = 1:

       Center              X                  Y                   Z               Mass
    ------------   -----------------  -----------------  -----------------  -----------------
         I            3.038195820534    -0.147908536334    -0.000000054186   126.904471900000
         I           -3.041160079466    -0.116536636334    -0.000000054186   126.904471900000
         C            0.008946920534     0.181544363666     0.000000945814    12.000000000000
         C            1.251194920534     1.062827363666    -0.000000054186    12.000000000000
         C           -1.233302079466     1.062827363666    -0.000000054186    12.000000000000
         H            0.008946920534    -0.465960636334     0.880572945814     1.007825032230
         H            0.008946920534    -0.465962636334    -0.880568054186     1.007825032230
         H            1.307423920534     1.689802363666    -0.890459054186     1.007825032230
         H            1.307424920534     1.689803363666     0.890457945814     1.007825032230
         H           -1.289531079466     1.689802363666    -0.890459054186     1.007825032230
         H           -1.289531079466     1.689802363666     0.890458945814     1.007825032230

  Basis Set: AUG-CC-PVTZ
    Blend: AUG-CC-PVTZ
  Basis Set: (AUG-CC-PVTZ AUX)
    Blend: AUG-CC-PVTZ-JKFIT + DEF2-UNIVERSAL-JKFIT
	 Reference Energy          =    -706.4658803987465490 [Eh]
	 Singles Energy            =      -0.0000000000000000 [Eh]
	 Same-Spin Energy          =      -0.2802741506316136 [Eh]
	 Opposite-Spin Energy      =      -0.8107228198029837 [Eh]
	 Correlation Energy        =      -1.0909969704345972 [Eh]
	 Total Energy              =    -707.5568773691811657 [Eh]

	 ================> DF-SCS-MP2 Energies <==================
	-----------------------------------------------------------
	 SCS Same-Spin Scale       =       0.3333333333333333 [-]
	 SCS Opposite-Spin Scale   =       1.2000000000000000 [-]
	 SCS Same-Spin Energy      =      -0.0934247168772045 [Eh]
	 SCS Opposite-Spin Energy  =      -0.9728673837635804 [Eh]
	 SCS Correlation Energy    =      -1.0662921006407848 [Eh]
	 SCS Total Energy          =    -707.5321724993873431 [Eh]
	-----------------------------------------------------------

  Dipole Moment: [D]
     X:     0.0200      Y:     1.5935      Z:     0.0000     Total:     1.5936

*** Psi4 exiting successfully. Buy a developer a beer!
