                               Psi4 1.4a3.dev225

  ==> Input File <==

--------------------------------------------------------------------------
#psi4
#
memory 32 gb

molecule  {
0 1
  I        3.1279714    -0.0438433    -0.0000001
  I       -3.0501070    -0.1728260     0.0000000
  C        0.0000000     0.1252550     0.0000010
  C        1.2422480     1.0065380     0.0000000
  C       -1.2422490     1.0065380     0.0000000
  H        0.0000000    -0.5222500     0.8805730
  H        0.0000000    -0.5222520    -0.8805680
  H        1.2984770     1.6335130    -0.8904590
  H        1.2984780     1.6335140     0.8904580
  H       -1.2984780     1.6335130    -0.8904590
  H       -1.2984780     1.6335130     0.8904590
units angstrom
no_reorient  #important for SAPT in psi4, default
symmetry c1  #important for SAPT in psi4, default
}

set PROPERTIES_ORIGIN ["COM"]
properties('MP2/aug-cc-pvtz', properties = ['dipole'])
--------------------------------------------------------------------------

    Molecular point group: c1
  Charge       = 0
  Multiplicity = 1
  Basis Set: AUG-CC-PVTZ
    Blend: AUG-CC-PVTZ
  Basis Set: (AUG-CC-PVTZ AUX)
    Blend: AUG-CC-PVTZ-JKFIT + DEF2-UNIVERSAL-JKFIT

    Orbital Energies [Eh]
    ---------------------

    Doubly Occupied:

       1A    -11.299403     2A    -11.298109     3A    -11.262781
       4A     -7.718229     5A     -7.717558     6A     -5.549703
       7A     -5.549016     8A     -5.540445     9A     -5.540382
      10A     -5.539802    11A     -5.539698    12A     -2.279024
      13A     -2.278329    14A     -2.274524    15A     -2.274459
      16A     -2.273858    17A     -2.273760    18A     -2.264202
      19A     -2.264202    20A     -2.263549    21A     -2.263547
      22A     -1.109145    23A     -0.993972    24A     -0.897410
      25A     -0.831236    26A     -0.821294    27A     -0.684474
      28A     -0.603020    29A     -0.596418    30A     -0.570811
      31A     -0.522112    32A     -0.474080    33A     -0.434312
      34A     -0.372107    35A     -0.368209    36A     -0.365078
      37A     -0.362616

  @DF-RHF Final Energy:  -706.46560531149441

   => Energetics <=

    Nuclear Repulsion Energy =            330.7138051997131356
    One-Electron Energy =               -1843.8170711514565028
    Two-Electron Energy =                 806.6376606402490097
    Total Energy =                       -706.4656053114944143
  Basis Set: (AUG-CC-PVTZ AUX)
    Blend: AUG-CC-PVTZ-RI + DEF2-QZVPP-RI
    Molecular point group: c1

    Geometry (in Angstrom), charge = 0, multiplicity = 1:

       Center              X                  Y                   Z               Mass
    ------------   -----------------  -----------------  -----------------  -----------------
         I            3.094572276458    -0.056336462702    -0.000000111292   126.904471900000
         I           -3.083506123542    -0.185319162702    -0.000000011292   126.904471900000
         C           -0.033399123542     0.112761837298     0.000000988708    12.000000000000
         C            1.208848876458     0.994044837298    -0.000000011292    12.000000000000
         C           -1.275648123542     0.994044837298    -0.000000011292    12.000000000000
         H           -0.033399123542    -0.534743162702     0.880572988708     1.007825032230
         H           -0.033399123542    -0.534745162702    -0.880568011292     1.007825032230
         H            1.265077876458     1.621019837298    -0.890459011292     1.007825032230
         H            1.265078876458     1.621020837298     0.890457988708     1.007825032230
         H           -1.331877123542     1.621019837298    -0.890459011292     1.007825032230
         H           -1.331877123542     1.621019837298     0.890458988708     1.007825032230

  Basis Set: AUG-CC-PVTZ
    Blend: AUG-CC-PVTZ
  Basis Set: (AUG-CC-PVTZ AUX)
    Blend: AUG-CC-PVTZ-JKFIT + DEF2-UNIVERSAL-JKFIT
	 Reference Energy          =    -706.4656053114944143 [Eh]
	 Singles Energy            =      -0.0000000000000000 [Eh]
	 Same-Spin Energy          =      -0.2800790511288437 [Eh]
	 Opposite-Spin Energy      =      -0.8104525048462916 [Eh]
	 Correlation Energy        =      -1.0905315559751352 [Eh]
	 Total Energy              =    -707.5561368674696041 [Eh]

	 ================> DF-SCS-MP2 Energies <==================
	-----------------------------------------------------------
	 SCS Same-Spin Scale       =       0.3333333333333333 [-]
	 SCS Opposite-Spin Scale   =       1.2000000000000000 [-]
	 SCS Same-Spin Energy      =      -0.0933596837096146 [Eh]
	 SCS Opposite-Spin Energy  =      -0.9725430058155499 [Eh]
	 SCS Correlation Energy    =      -1.0659026895251644 [Eh]
	 SCS Total Energy          =    -707.5315080010195743 [Eh]
	-----------------------------------------------------------

  Dipole Moment: [D]
     X:    -0.0794      Y:     1.5175      Z:     0.0000     Total:     1.5195

*** Psi4 exiting successfully. Buy a developer a beer!
