                               Psi4 1.4a3.dev225

  ==> Input File <==

--------------------------------------------------------------------------
#psi4
#
memory 32 gb

molecule  {
0 1
  I        3.0501070    -0.1728260     0.0000000
  I       -3.0501070    -0.1728260     0.0000000
  C        0.0000000     0.1252550     0.0000010
  C        1.2422480     1.0065380     0.0000000
  C       -1.1606886     0.9486770     0.0000001
  H        0.0000000    -0.5222500     0.8805730
  H        0.0000000    -0.5222520    -0.8805680
  H        1.2984770     1.6335130    -0.8904590
  H        1.2984780     1.6335140     0.8904580
  H       -1.2984780     1.6335130    -0.8904590
  H       -1.2984780     1.6335130     0.8904590
units angstrom
no_reorient  #important for SAPT in psi4, default
symmetry c1  #important for SAPT in psi4, default
}

set PROPERTIES_ORIGIN ["COM"]
properties('MP2/aug-cc-pvtz', properties = ['dipole'])
--------------------------------------------------------------------------

    Molecular point group: c1
  Charge       = 0
  Multiplicity = 1
  Basis Set: AUG-CC-PVTZ
    Blend: AUG-CC-PVTZ
  Basis Set: (AUG-CC-PVTZ AUX)
    Blend: AUG-CC-PVTZ-JKFIT + DEF2-UNIVERSAL-JKFIT

    Orbital Energies [Eh]
    ---------------------

    Doubly Occupied:

       1A    -11.304467     2A    -11.300684     3A    -11.257610
       4A     -7.718773     5A     -7.715309     6A     -5.550259
       7A     -5.546649     8A     -5.540979     9A     -5.540925
      10A     -5.537582    11A     -5.537465    12A     -2.279583
      13A     -2.275774    14A     -2.275071    15A     -2.275015
      16A     -2.271527    17A     -2.271414    18A     -2.264734
      19A     -2.264733    20A     -2.261358    21A     -2.261355
      22A     -1.128148    23A     -0.993112    24A     -0.895675
      25A     -0.832651    26A     -0.819028    27A     -0.688548
      28A     -0.616782    29A     -0.593965    30A     -0.583271
      31A     -0.511867    32A     -0.472367    33A     -0.427022
      34A     -0.371495    35A     -0.368426    36A     -0.363707
      37A     -0.363456

  @DF-RHF Final Energy:  -706.45543325089056

   => Energetics <=

    Nuclear Repulsion Energy =            333.1149227218803048
    One-Electron Energy =               -1848.5791494388915908
    Two-Electron Energy =                 809.0087934661207782
    Total Energy =                       -706.4554332508905645
  Basis Set: (AUG-CC-PVTZ AUX)
    Blend: AUG-CC-PVTZ-RI + DEF2-QZVPP-RI
    Molecular point group: c1

    Geometry (in Angstrom), charge = 0, multiplicity = 1:

       Center              X                  Y                   Z               Mass
    ------------   -----------------  -----------------  -----------------  -----------------
         I            3.046798930727    -0.127646445092    -0.000000058242   126.904471900000
         I           -3.053415069273    -0.127646445092    -0.000000058242   126.904471900000
         C           -0.003308069273     0.170434554908     0.000000941758    12.000000000000
         C            1.238939930727     1.051717554908    -0.000000058242    12.000000000000
         C           -1.163996669273     0.993856554908     0.000000041758    12.000000000000
         H           -0.003308069273    -0.477070445092     0.880572941758     1.007825032230
         H           -0.003308069273    -0.477072445092    -0.880568058242     1.007825032230
         H            1.295168930727     1.678692554908    -0.890459058242     1.007825032230
         H            1.295169930727     1.678693554908     0.890457941758     1.007825032230
         H           -1.301786069273     1.678692554908    -0.890459058242     1.007825032230
         H           -1.301786069273     1.678692554908     0.890458941758     1.007825032230

  Basis Set: AUG-CC-PVTZ
    Blend: AUG-CC-PVTZ
  Basis Set: (AUG-CC-PVTZ AUX)
    Blend: AUG-CC-PVTZ-JKFIT + DEF2-UNIVERSAL-JKFIT
	 Reference Energy          =    -706.4554332508905645 [Eh]
	 Singles Energy            =      -0.0000000000000000 [Eh]
	 Same-Spin Energy          =      -0.2812915403160909 [Eh]
	 Opposite-Spin Energy      =      -0.8117890016427275 [Eh]
	 Correlation Energy        =      -1.0930805419588183 [Eh]
	 Total Energy              =    -707.5485137928493486 [Eh]

	 ================> DF-SCS-MP2 Energies <==================
	-----------------------------------------------------------
	 SCS Same-Spin Scale       =       0.3333333333333333 [-]
	 SCS Opposite-Spin Scale   =       1.2000000000000000 [-]
	 SCS Same-Spin Energy      =      -0.0937638467720303 [Eh]
	 SCS Opposite-Spin Energy  =      -0.9741468019712729 [Eh]
	 SCS Correlation Energy    =      -1.0679106487433032 [Eh]
	 SCS Total Energy          =    -707.5233438996339146 [Eh]
	-----------------------------------------------------------

  Dipole Moment: [D]
     X:     0.1657      Y:     1.5985      Z:     0.0000     Total:     1.6071

*** Psi4 exiting successfully. Buy a developer a beer!
