                               Psi4 1.4a3.dev225

  ==> Input File <==

--------------------------------------------------------------------------
#psi4
#
memory 32 gb

molecule  {
0 1
  I        3.0501070    -0.1728260     0.0000000
  I       -3.0501070    -0.1728260     0.0000000
  C        0.0000000     0.1252550     0.0000010
  C        1.2422480     1.0065380     0.0000000
  C       -1.3238094     1.0643990    -0.0000001
  H        0.0000000    -0.5222500     0.8805730
  H        0.0000000    -0.5222520    -0.8805680
  H        1.2984770     1.6335130    -0.8904590
  H        1.2984780     1.6335140     0.8904580
  H       -1.2984780     1.6335130    -0.8904590
  H       -1.2984780     1.6335130     0.8904590
units angstrom
no_reorient  #important for SAPT in psi4, default
symmetry c1  #important for SAPT in psi4, default
}

set PROPERTIES_ORIGIN ["COM"]
properties('MP2/aug-cc-pvtz', properties = ['dipole'])
--------------------------------------------------------------------------

    Molecular point group: c1
  Charge       = 0
  Multiplicity = 1
  Basis Set: AUG-CC-PVTZ
    Blend: AUG-CC-PVTZ
  Basis Set: (AUG-CC-PVTZ AUX)
    Blend: AUG-CC-PVTZ-JKFIT + DEF2-UNIVERSAL-JKFIT

    Orbital Energies [Eh]
    ---------------------

    Doubly Occupied:

       1A    -11.297158     2A    -11.294127     3A    -11.265264
       4A     -7.719697     5A     -7.716764     6A     -5.551285
       7A     -5.548203     8A     -5.541865     9A     -5.541863
      10A     -5.539003    11A     -5.538934    12A     -2.280806
      13A     -2.277518    14A     -2.276062    15A     -2.276044
      16A     -2.273045    17A     -2.272972    18A     -2.265627
      19A     -2.265626    20A     -2.262781    21A     -2.262781
      22A     -1.096018    23A     -0.995862    24A     -0.893912
      25A     -0.833983    26A     -0.822284    27A     -0.682849
      28A     -0.613552    29A     -0.583137    30A     -0.552673
      31A     -0.526352    32A     -0.480173    33A     -0.436116
      34A     -0.372181    35A     -0.369417    36A     -0.365472
      37A     -0.358989

  @DF-RHF Final Energy:  -706.45921751738797

   => Energetics <=

    Nuclear Repulsion Energy =            331.5094340724084532
    One-Electron Energy =               -1845.4365172580755825
    Two-Electron Energy =                 807.4678656682790461
    Total Energy =                       -706.4592175173879696
  Basis Set: (AUG-CC-PVTZ AUX)
    Blend: AUG-CC-PVTZ-RI + DEF2-QZVPP-RI
    Molecular point group: c1

    Geometry (in Angstrom), charge = 0, multiplicity = 1:

       Center              X                  Y                   Z               Mass
    ------------   -----------------  -----------------  -----------------  -----------------
         I            3.053415157207    -0.132340162635    -0.000000050130   126.904471900000
         I           -3.046798842793    -0.132340162635    -0.000000050130   126.904471900000
         C            0.003308157207     0.165740837365     0.000000949870    12.000000000000
         C            1.245556157207     1.047023837365    -0.000000050130    12.000000000000
         C           -1.320501242793     1.104884837365    -0.000000150130    12.000000000000
         H            0.003308157207    -0.481764162635     0.880572949870     1.007825032230
         H            0.003308157207    -0.481766162635    -0.880568050130     1.007825032230
         H            1.301785157207     1.673998837365    -0.890459050130     1.007825032230
         H            1.301786157207     1.673999837365     0.890457949870     1.007825032230
         H           -1.295169842793     1.673998837365    -0.890459050130     1.007825032230
         H           -1.295169842793     1.673998837365     0.890458949870     1.007825032230

  Basis Set: AUG-CC-PVTZ
    Blend: AUG-CC-PVTZ
  Basis Set: (AUG-CC-PVTZ AUX)
    Blend: AUG-CC-PVTZ-JKFIT + DEF2-UNIVERSAL-JKFIT
	 Reference Energy          =    -706.4592175173879696 [Eh]
	 Singles Energy            =      -0.0000000000000000 [Eh]
	 Same-Spin Energy          =      -0.2799255265084300 [Eh]
	 Opposite-Spin Energy      =      -0.8107850939474583 [Eh]
	 Correlation Energy        =      -1.0907106204558883 [Eh]
	 Total Energy              =    -707.5499281378438354 [Eh]

	 ================> DF-SCS-MP2 Energies <==================
	-----------------------------------------------------------
	 SCS Same-Spin Scale       =       0.3333333333333333 [-]
	 SCS Opposite-Spin Scale   =       1.2000000000000000 [-]
	 SCS Same-Spin Energy      =      -0.0933085088361433 [Eh]
	 SCS Opposite-Spin Energy  =      -0.9729421127369500 [Eh]
	 SCS Correlation Energy    =      -1.0662506215730934 [Eh]
	 SCS Total Energy          =    -707.5254681389610596 [Eh]
	-----------------------------------------------------------

  Dipole Moment: [D]
     X:    -0.1184      Y:     1.5413      Z:     0.0000     Total:     1.5458

*** Psi4 exiting successfully. Buy a developer a beer!
