                               Psi4 1.4a3.dev225

  ==> Input File <==

--------------------------------------------------------------------------
#psi4
#
memory 32 gb

molecule  {
0 1
  I        3.0501070    -0.1728260     0.0000000
  I       -3.0501070    -0.1728260     0.0000000
  C        0.0000000     0.1252550     0.0000010
  C        1.2589988     0.9956105     0.0000000
  C       -1.2422490     1.0065380     0.0000000
  H        0.0000000    -0.5222500     0.8805730
  H        0.0000000    -0.5222520    -0.8805680
  H        1.2984770     1.6335130    -0.8904590
  H        1.2984780     1.6335140     0.8904580
  H       -1.2984780     1.6335130    -0.8904590
  H       -1.2984780     1.6335130     0.8904590
units angstrom
no_reorient  #important for SAPT in psi4, default
symmetry c1  #important for SAPT in psi4, default
}

set PROPERTIES_ORIGIN ["COM"]
properties('MP2/aug-cc-pvtz', properties = ['dipole'])
--------------------------------------------------------------------------

    Molecular point group: c1
  Charge       = 0
  Multiplicity = 1
  Basis Set: AUG-CC-PVTZ
    Blend: AUG-CC-PVTZ
  Basis Set: (AUG-CC-PVTZ AUX)
    Blend: AUG-CC-PVTZ-JKFIT + DEF2-UNIVERSAL-JKFIT

    Orbital Energies [Eh]
    ---------------------

    Doubly Occupied:

       1A    -11.298187     2A    -11.297717     3A    -11.261497
       4A     -7.718822     5A     -7.717442     6A     -5.550350
       7A     -5.548904     8A     -5.541035     9A     -5.540970
      10A     -5.539665    11A     -5.539604    12A     -2.279786
      13A     -2.278223    14A     -2.275168    15A     -2.275100
      16A     -2.273730    17A     -2.273667    18A     -2.264786
      19A     -2.264785    20A     -2.263432    21A     -2.263431
      22A     -1.107439    23A     -0.994329    24A     -0.895951
      25A     -0.830800    26A     -0.821442    27A     -0.682271
      28A     -0.600663    29A     -0.595592    30A     -0.566990
      31A     -0.520303    32A     -0.476715    33A     -0.436328
      34A     -0.372431    35A     -0.368349    36A     -0.365369
      37A     -0.361925

  @DF-RHF Final Energy:  -706.46559738747965

   => Energetics <=

    Nuclear Repulsion Energy =            332.4091222619996415
    One-Electron Energy =               -1847.2230457433593074
    Two-Electron Energy =                 808.3483260938801322
    Total Energy =                       -706.4655973874796473
  Basis Set: (AUG-CC-PVTZ AUX)
    Blend: AUG-CC-PVTZ-RI + DEF2-QZVPP-RI
    Molecular point group: c1

    Geometry (in Angstrom), charge = 0, multiplicity = 1:

       Center              X                  Y                   Z               Mass
    ------------   -----------------  -----------------  -----------------  -----------------
         I            3.049427626710    -0.129550081326    -0.000000054186   126.904471900000
         I           -3.050786373290    -0.129550081326    -0.000000054186   126.904471900000
         C           -0.000679373290     0.168530918674     0.000000945814    12.000000000000
         C            1.258319426710     1.038886418674    -0.000000054186    12.000000000000
         C           -1.242928373290     1.049813918674    -0.000000054186    12.000000000000
         H           -0.000679373290    -0.478974081326     0.880572945814     1.007825032230
         H           -0.000679373290    -0.478976081326    -0.880568054186     1.007825032230
         H            1.297797626710     1.676788918674    -0.890459054186     1.007825032230
         H            1.297798626710     1.676789918674     0.890457945814     1.007825032230
         H           -1.299157373290     1.676788918674    -0.890459054186     1.007825032230
         H           -1.299157373290     1.676788918674     0.890458945814     1.007825032230

  Basis Set: AUG-CC-PVTZ
    Blend: AUG-CC-PVTZ
  Basis Set: (AUG-CC-PVTZ AUX)
    Blend: AUG-CC-PVTZ-JKFIT + DEF2-UNIVERSAL-JKFIT
	 Reference Energy          =    -706.4655973874796473 [Eh]
	 Singles Energy            =      -0.0000000000000000 [Eh]
	 Same-Spin Energy          =      -0.2802977005269794 [Eh]
	 Opposite-Spin Energy      =      -0.8108242320408223 [Eh]
	 Correlation Energy        =      -1.0911219325678019 [Eh]
	 Total Energy              =    -707.5567193200474776 [Eh]

	 ================> DF-SCS-MP2 Energies <==================
	-----------------------------------------------------------
	 SCS Same-Spin Scale       =       0.3333333333333333 [-]
	 SCS Opposite-Spin Scale   =       1.2000000000000000 [-]
	 SCS Same-Spin Energy      =      -0.0934325668423265 [Eh]
	 SCS Opposite-Spin Energy  =      -0.9729890784489867 [Eh]
	 SCS Correlation Energy    =      -1.0664216452913131 [Eh]
	 SCS Total Energy          =    -707.5320190327709042 [Eh]
	-----------------------------------------------------------

  Dipole Moment: [D]
     X:     0.0444      Y:     1.5588      Z:     0.0000     Total:     1.5594

*** Psi4 exiting successfully. Buy a developer a beer!
