                               Psi4 1.4a3.dev225

  ==> Input File <==

--------------------------------------------------------------------------
#psi4
#
memory 32 gb

molecule  {
0 1
  I        3.0501070    -0.1728260     0.0000000
  I       -3.0501070    -0.1728260     0.0000000
  C        0.0000000     0.1252550     0.0000010
  C        1.2422480     1.0065380     0.0000000
  C       -1.2585611     1.0181102    -0.0000000
  H        0.0000000    -0.5222500     0.8805730
  H        0.0000000    -0.5222520    -0.8805680
  H        1.2984770     1.6335130    -0.8904590
  H        1.2984780     1.6335140     0.8904580
  H       -1.2984780     1.6335130    -0.8904590
  H       -1.2984780     1.6335130     0.8904590
units angstrom
no_reorient  #important for SAPT in psi4, default
symmetry c1  #important for SAPT in psi4, default
}

set PROPERTIES_ORIGIN ["COM"]
properties('MP2/aug-cc-pvtz', properties = ['dipole'])
--------------------------------------------------------------------------

    Molecular point group: c1
  Charge       = 0
  Multiplicity = 1
  Basis Set: AUG-CC-PVTZ
    Blend: AUG-CC-PVTZ
  Basis Set: (AUG-CC-PVTZ AUX)
    Blend: AUG-CC-PVTZ-JKFIT + DEF2-UNIVERSAL-JKFIT

    Orbital Energies [Eh]
    ---------------------

    Doubly Occupied:

       1A    -11.298215     2A    -11.297518     3A    -11.262588
       4A     -7.718025     5A     -7.717412     6A     -5.549507
       7A     -5.548865     8A     -5.540240     9A     -5.540191
      10A     -5.539640    11A     -5.539578    12A     -2.278866
      13A     -2.278183    14A     -2.274326    15A     -2.274272
      16A     -2.273696    17A     -2.273632    18A     -2.264009
      19A     -2.264008    20A     -2.263412    21A     -2.263411
      22A     -1.106380    23A     -0.994068    24A     -0.894958
      25A     -0.831417    26A     -0.823122    27A     -0.683857
      28A     -0.604847    29A     -0.593541    30A     -0.566839
      31A     -0.522874    32A     -0.475845    33A     -0.434517
      34A     -0.372158    35A     -0.368282    36A     -0.365450
      37A     -0.361389

  @DF-RHF Final Energy:  -706.46583452141624

   => Energetics <=

    Nuclear Repulsion Energy =            332.1199794701157657
    One-Electron Energy =               -1846.6533563713903732
    Two-Electron Energy =                 808.0675423798583097
    Total Energy =                       -706.4658345214162409
  Basis Set: (AUG-CC-PVTZ AUX)
    Blend: AUG-CC-PVTZ-RI + DEF2-QZVPP-RI
    Molecular point group: c1

    Geometry (in Angstrom), charge = 0, multiplicity = 1:

       Center              X                  Y                   Z               Mass
    ------------   -----------------  -----------------  -----------------  -----------------
         I            3.050768667426    -0.130462675618    -0.000000054186   126.904471900000
         I           -3.049445332574    -0.130462675618    -0.000000054186   126.904471900000
         C            0.000661667426     0.167618324382     0.000000945814    12.000000000000
         C            1.242909667426     1.048901324382    -0.000000054186    12.000000000000
         C           -1.257899432574     1.060473524382    -0.000000054186    12.000000000000
         H            0.000661667426    -0.479886675618     0.880572945814     1.007825032230
         H            0.000661667426    -0.479888675618    -0.880568054186     1.007825032230
         H            1.299138667426     1.675876324382    -0.890459054186     1.007825032230
         H            1.299139667426     1.675877324382     0.890457945814     1.007825032230
         H           -1.297816332574     1.675876324382    -0.890459054186     1.007825032230
         H           -1.297816332574     1.675876324382     0.890458945814     1.007825032230

  Basis Set: AUG-CC-PVTZ
    Blend: AUG-CC-PVTZ
  Basis Set: (AUG-CC-PVTZ AUX)
    Blend: AUG-CC-PVTZ-JKFIT + DEF2-UNIVERSAL-JKFIT
	 Reference Energy          =    -706.4658345214162409 [Eh]
	 Singles Energy            =      -0.0000000000000000 [Eh]
	 Same-Spin Energy          =      -0.2801065528863818 [Eh]
	 Opposite-Spin Energy      =      -0.8105780893384905 [Eh]
	 Correlation Energy        =      -1.0906846422248724 [Eh]
	 Total Energy              =    -707.5565191636411555 [Eh]

	 ================> DF-SCS-MP2 Energies <==================
	-----------------------------------------------------------
	 SCS Same-Spin Scale       =       0.3333333333333333 [-]
	 SCS Opposite-Spin Scale   =       1.2000000000000000 [-]
	 SCS Same-Spin Energy      =      -0.0933688509621272 [Eh]
	 SCS Opposite-Spin Energy  =      -0.9726937072061885 [Eh]
	 SCS Correlation Energy    =      -1.0660625581683159 [Eh]
	 SCS Total Energy          =    -707.5318970795846099 [Eh]
	-----------------------------------------------------------

  Dipole Moment: [D]
     X:    -0.0268      Y:     1.5728      Z:     0.0000     Total:     1.5730

*** Psi4 exiting successfully. Buy a developer a beer!
