                               Psi4 1.4a3.dev225

  ==> Input File <==

--------------------------------------------------------------------------
#psi4
#
memory 32 gb

molecule  {
0 1
  I        3.0501070    -0.1728260     0.0000000
  I       -3.0501070    -0.1728260     0.0000000
  C        0.0000000     0.1252550     0.0000010
  C        1.2422480     1.0065380     0.0000000
  C       -1.2422490     1.0065380     0.0000000
  H        0.0000000    -0.5222500     0.8805730
  H        0.0000000    -0.5222520    -0.8805680
  H        1.2984770     1.6335130    -0.8904590
  H        1.3036344     1.6910087     0.9721144
  H       -1.2984780     1.6335130    -0.8904590
  H       -1.2984780     1.6335130     0.8904590
units angstrom
no_reorient  #important for SAPT in psi4, default
symmetry c1  #important for SAPT in psi4, default
}

set PROPERTIES_ORIGIN ["COM"]
properties('MP2/aug-cc-pvtz', properties = ['dipole'])
--------------------------------------------------------------------------

    Molecular point group: c1
  Charge       = 0
  Multiplicity = 1
  Basis Set: AUG-CC-PVTZ
    Blend: AUG-CC-PVTZ
  Basis Set: (AUG-CC-PVTZ AUX)
    Blend: AUG-CC-PVTZ-JKFIT + DEF2-UNIVERSAL-JKFIT

    Orbital Energies [Eh]
    ---------------------

    Doubly Occupied:

       1A    -11.309103     2A    -11.298434     3A    -11.262636
       4A     -7.718131     5A     -7.717533     6A     -5.549631
       7A     -5.548986     8A     -5.540331     9A     -5.540270
      10A     -5.539763    11A     -5.539700    12A     -2.278961
      13A     -2.278304    14A     -2.274440    15A     -2.274377
      16A     -2.273818    17A     -2.273753    18A     -2.264072
      19A     -2.264071    20A     -2.263535    21A     -2.263534
      22A     -1.107591    23A     -0.990039    24A     -0.894963
      25A     -0.829550    26A     -0.817606    27A     -0.680217
      28A     -0.599405    29A     -0.590010    30A     -0.569096
      31A     -0.518348    32A     -0.474559    33A     -0.433409
      34A     -0.372155    35A     -0.368024    36A     -0.364990
      37A     -0.361973

  @DF-RHF Final Energy:  -706.45904593762998

   => Energetics <=

    Nuclear Repulsion Energy =            331.7990929106791782
    One-Electron Energy =               -1846.0256369671476477
    Two-Electron Energy =                 807.7674981188383754
    Total Energy =                       -706.4590459376299805
  Basis Set: (AUG-CC-PVTZ AUX)
    Blend: AUG-CC-PVTZ-RI + DEF2-QZVPP-RI
    Molecular point group: c1

    Geometry (in Angstrom), charge = 0, multiplicity = 1:

       Center              X                  Y                   Z               Mass
    ------------   -----------------  -----------------  -----------------  -----------------
         I            3.050089478831    -0.130189157990    -0.000278214485   126.904471900000
         I           -3.050124521169    -0.130189157990    -0.000278214485   126.904471900000
         C           -0.000017521169     0.167891842010    -0.000277214485    12.000000000000
         C            1.242230478831     1.049174842010    -0.000278214485    12.000000000000
         C           -1.242266521169     1.049174842010    -0.000278214485    12.000000000000
         H           -0.000017521169    -0.479613157990     0.880294785515     1.007825032230
         H           -0.000017521169    -0.479615157990    -0.880846214485     1.007825032230
         H            1.298459478831     1.676149842010    -0.890737214485     1.007825032230
         H            1.303616878831     1.733645542010     0.971836185515     1.007825032230
         H           -1.298495521169     1.676149842010    -0.890737214485     1.007825032230
         H           -1.298495521169     1.676149842010     0.890180785515     1.007825032230

  Basis Set: AUG-CC-PVTZ
    Blend: AUG-CC-PVTZ
  Basis Set: (AUG-CC-PVTZ AUX)
    Blend: AUG-CC-PVTZ-JKFIT + DEF2-UNIVERSAL-JKFIT
	 Reference Energy          =    -706.4590459376299805 [Eh]
	 Singles Energy            =      -0.0000000000000000 [Eh]
	 Same-Spin Energy          =      -0.2804298309528022 [Eh]
	 Opposite-Spin Energy      =      -0.8115674337731951 [Eh]
	 Correlation Energy        =      -1.0919972647259972 [Eh]
	 Total Energy              =    -707.5510432023560270 [Eh]

	 ================> DF-SCS-MP2 Energies <==================
	-----------------------------------------------------------
	 SCS Same-Spin Scale       =       0.3333333333333333 [-]
	 SCS Opposite-Spin Scale   =       1.2000000000000000 [-]
	 SCS Same-Spin Energy      =      -0.0934766103176007 [Eh]
	 SCS Opposite-Spin Energy  =      -0.9738809205278340 [Eh]
	 SCS Correlation Energy    =      -1.0673575308454348 [Eh]
	 SCS Total Energy          =    -707.5264034684754506 [Eh]
	-----------------------------------------------------------

  Dipole Moment: [D]
     X:     0.0102      Y:     1.5515      Z:    -0.0094     Total:     1.5516

*** Psi4 exiting successfully. Buy a developer a beer!
