                               Psi4 1.4a3.dev225

  ==> Input File <==

--------------------------------------------------------------------------
#psi4
#
memory 32 gb

molecule  {
0 1
  I        3.0501070    -0.1728260     0.0000000
  I       -3.0501070    -0.1728260     0.0000000
  C        0.0000000     0.1252550     0.0000010
  C        1.2422480     1.0065380     0.0000000
  C       -1.2422490     1.0065380     0.0000000
  H        0.0000000    -0.5814906     0.9611370
  H        0.0000000    -0.5222520    -0.8805680
  H        1.2984770     1.6335130    -0.8904590
  H        1.2984780     1.6335140     0.8904580
  H       -1.2984780     1.6335130    -0.8904590
  H       -1.2984780     1.6335130     0.8904590
units angstrom
no_reorient  #important for SAPT in psi4, default
symmetry c1  #important for SAPT in psi4, default
}

set PROPERTIES_ORIGIN ["COM"]
properties('MP2/aug-cc-pvtz', properties = ['dipole'])
--------------------------------------------------------------------------

    Molecular point group: c1
  Charge       = 0
  Multiplicity = 1
  Basis Set: AUG-CC-PVTZ
    Blend: AUG-CC-PVTZ
  Basis Set: (AUG-CC-PVTZ AUX)
    Blend: AUG-CC-PVTZ-JKFIT + DEF2-UNIVERSAL-JKFIT

    Orbital Energies [Eh]
    ---------------------

    Doubly Occupied:

       1A    -11.299248     2A    -11.299247     3A    -11.273021
       4A     -7.717624     5A     -7.717624     6A     -5.549101
       7A     -5.549100     8A     -5.539835     9A     -5.539835
      10A     -5.539780    11A     -5.539780    12A     -2.278424
      13A     -2.278421    14A     -2.273917    15A     -2.273914
      16A     -2.273861    17A     -2.273858    18A     -2.263596
      19A     -2.263595    20A     -2.263595    21A     -2.263594
      22A     -1.106703    23A     -0.994115    24A     -0.892444
      25A     -0.831341    26A     -0.817212    27A     -0.679275
      28A     -0.603106    29A     -0.597594    30A     -0.566966
      31A     -0.510914    32A     -0.473279    33A     -0.434067
      34A     -0.372002    35A     -0.368152    36A     -0.365308
      37A     -0.361935

  @DF-RHF Final Energy:  -706.45932123449199

   => Energetics <=

    Nuclear Repulsion Energy =            331.8255795444414957
    One-Electron Energy =               -1846.0790388093255388
    Two-Electron Energy =                 807.7941380303919914
    Total Energy =                       -706.4593212344919948
  Basis Set: (AUG-CC-PVTZ AUX)
    Blend: AUG-CC-PVTZ-RI + DEF2-QZVPP-RI
    Molecular point group: c1

    Geometry (in Angstrom), charge = 0, multiplicity = 1:

       Center              X                  Y                   Z               Mass
    ------------   -----------------  -----------------  -----------------  -----------------
         I            3.050107043967    -0.129791502375    -0.000274493254   126.904471900000
         I           -3.050106956033    -0.129791502375    -0.000274493254   126.904471900000
         C            0.000000043967     0.168289497625    -0.000273493254    12.000000000000
         C            1.242248043967     1.049572497625    -0.000274493254    12.000000000000
         C           -1.242248956033     1.049572497625    -0.000274493254    12.000000000000
         H            0.000000043967    -0.538456102375     0.960862506746     1.007825032230
         H            0.000000043967    -0.479217502375    -0.880842493254     1.007825032230
         H            1.298477043967     1.676547497625    -0.890733493254     1.007825032230
         H            1.298478043967     1.676548497625     0.890183506746     1.007825032230
         H           -1.298477956033     1.676547497625    -0.890733493254     1.007825032230
         H           -1.298477956033     1.676547497625     0.890184506746     1.007825032230

  Basis Set: AUG-CC-PVTZ
    Blend: AUG-CC-PVTZ
  Basis Set: (AUG-CC-PVTZ AUX)
    Blend: AUG-CC-PVTZ-JKFIT + DEF2-UNIVERSAL-JKFIT
	 Reference Energy          =    -706.4593212344919948 [Eh]
	 Singles Energy            =      -0.0000000000000000 [Eh]
	 Same-Spin Energy          =      -0.2803819146514619 [Eh]
	 Opposite-Spin Energy      =      -0.8115089809847800 [Eh]
	 Correlation Energy        =      -1.0918908956362419 [Eh]
	 Total Energy              =    -707.5512121301281923 [Eh]

	 ================> DF-SCS-MP2 Energies <==================
	-----------------------------------------------------------
	 SCS Same-Spin Scale       =       0.3333333333333333 [-]
	 SCS Opposite-Spin Scale   =       1.2000000000000000 [-]
	 SCS Same-Spin Energy      =      -0.0934606382171540 [Eh]
	 SCS Opposite-Spin Energy  =      -0.9738107771817359 [Eh]
	 SCS Correlation Energy    =      -1.0672714153988898 [Eh]
	 SCS Total Energy          =    -707.5265926498908584 [Eh]
	-----------------------------------------------------------

  Dipole Moment: [D]
     X:    -0.0000      Y:     1.5953      Z:    -0.0183     Total:     1.5954

*** Psi4 exiting successfully. Buy a developer a beer!
