                               Psi4 1.4a3.dev225

  ==> Input File <==

--------------------------------------------------------------------------
#psi4
#
memory 32 gb

molecule  {
0 1
  I        3.0501070    -0.1728260     0.0000000
  I       -3.0501070    -0.1728260     0.0000000
  C        0.0000000     0.1252550     0.0000010
  C        1.2422480     1.0065380     0.0000000
  C       -1.2422490     1.0065380     0.0000000
  H        0.0000000    -0.5222500     0.8805730
  H        0.0000000    -0.4037704    -0.7194404
  H        1.2984770     1.6335130    -0.8904590
  H        1.2984780     1.6335140     0.8904580
  H       -1.2984780     1.6335130    -0.8904590
  H       -1.2984780     1.6335130     0.8904590
units angstrom
no_reorient  #important for SAPT in psi4, default
symmetry c1  #important for SAPT in psi4, default
}

set PROPERTIES_ORIGIN ["COM"]
properties('MP2/aug-cc-pvtz', properties = ['dipole'])
--------------------------------------------------------------------------

    Molecular point group: c1
  Charge       = 0
  Multiplicity = 1
  Basis Set: AUG-CC-PVTZ
    Blend: AUG-CC-PVTZ
  Basis Set: (AUG-CC-PVTZ AUX)
    Blend: AUG-CC-PVTZ-JKFIT + DEF2-UNIVERSAL-JKFIT

    Orbital Energies [Eh]
    ---------------------

    Doubly Occupied:

       1A    -11.297663     2A    -11.297662     3A    -11.238067
       4A     -7.717663     5A     -7.717663     6A     -5.549099
       7A     -5.549098     8A     -5.539909     9A     -5.539909
      10A     -5.539834    11A     -5.539834    12A     -2.278414
      13A     -2.278411    14A     -2.273949    15A     -2.273946
      16A     -2.273868    17A     -2.273865    18A     -2.263687
      19A     -2.263686    20A     -2.263686    21A     -2.263686
      22A     -1.120344    23A     -0.993305    24A     -0.907118
      25A     -0.838409    26A     -0.830883    27A     -0.696576
      28A     -0.602313    29A     -0.596256    30A     -0.580787
      31A     -0.536335    32A     -0.476579    33A     -0.433276
      34A     -0.372217    35A     -0.368142    36A     -0.365358
      37A     -0.361853

  @DF-RHF Final Energy:  -706.43216133567489

   => Energetics <=

    Nuclear Repulsion Energy =            333.3431801384923006
    One-Electron Energy =               -1848.9239796204326467
    Two-Electron Energy =                 809.1486381462655118
    Total Energy =                       -706.4321613356748912
  Basis Set: (AUG-CC-PVTZ AUX)
    Blend: AUG-CC-PVTZ-RI + DEF2-QZVPP-RI
    Molecular point group: c1

    Geometry (in Angstrom), charge = 0, multiplicity = 1:

       Center              X                  Y                   Z               Mass
    ------------   -----------------  -----------------  -----------------  -----------------
         I            3.050107043967    -0.130396908202    -0.000548930960   126.904471900000
         I           -3.050106956033    -0.130396908202    -0.000548930960   126.904471900000
         C            0.000000043967     0.167684091798    -0.000547930960    12.000000000000
         C            1.242248043967     1.048967091798    -0.000548930960    12.000000000000
         C           -1.242248956033     1.048967091798    -0.000548930960    12.000000000000
         H            0.000000043967    -0.479820908202     0.880024069040     1.007825032230
         H            0.000000043967    -0.361341308202    -0.719989330960     1.007825032230
         H            1.298477043967     1.675942091798    -0.891007930960     1.007825032230
         H            1.298478043967     1.675943091798     0.889909069040     1.007825032230
         H           -1.298477956033     1.675942091798    -0.891007930960     1.007825032230
         H           -1.298477956033     1.675942091798     0.889910069040     1.007825032230

  Basis Set: AUG-CC-PVTZ
    Blend: AUG-CC-PVTZ
  Basis Set: (AUG-CC-PVTZ AUX)
    Blend: AUG-CC-PVTZ-JKFIT + DEF2-UNIVERSAL-JKFIT
	 Reference Energy          =    -706.4321613356748912 [Eh]
	 Singles Energy            =      -0.0000000000000000 [Eh]
	 Same-Spin Energy          =      -0.2800662540510785 [Eh]
	 Opposite-Spin Energy      =      -0.8098898081688215 [Eh]
	 Correlation Energy        =      -1.0899560622199000 [Eh]
	 Total Energy              =    -707.5221173978948173 [Eh]

	 ================> DF-SCS-MP2 Energies <==================
	-----------------------------------------------------------
	 SCS Same-Spin Scale       =       0.3333333333333333 [-]
	 SCS Opposite-Spin Scale   =       1.2000000000000000 [-]
	 SCS Same-Spin Energy      =      -0.0933554180170262 [Eh]
	 SCS Opposite-Spin Energy  =      -0.9718677698025857 [Eh]
	 SCS Correlation Energy    =      -1.0652231878196119 [Eh]
	 SCS Total Energy          =    -707.4973845234944747 [Eh]
	-----------------------------------------------------------

  Dipole Moment: [D]
     X:    -0.0000      Y:     1.5673      Z:    -0.0112     Total:     1.5674

*** Psi4 exiting successfully. Buy a developer a beer!
