                               Psi4 1.4a3.dev225

  ==> Input File <==

--------------------------------------------------------------------------
#psi4
#
memory 32 gb

molecule  {
0 1
  I        3.0501070    -0.1728260     0.0000000
  I       -3.0892659    -0.1031753    -0.1277292
  C        0.0000000     0.1252550     0.0000010
  C        1.2422480     1.0065380     0.0000000
  C       -1.2422490     1.0065380     0.0000000
  H        0.0000000    -0.5222500     0.8805730
  H        0.0000000    -0.5222520    -0.8805680
  H        1.2984770     1.6335130    -0.8904590
  H        1.2984780     1.6335140     0.8904580
  H       -1.2984780     1.6335130    -0.8904590
  H       -1.2984780     1.6335130     0.8904590
units angstrom
no_reorient  #important for SAPT in psi4, default
symmetry c1  #important for SAPT in psi4, default
}

set PROPERTIES_ORIGIN ["COM"]
properties('MP2/aug-cc-pvtz', properties = ['dipole'])
--------------------------------------------------------------------------

    Molecular point group: c1
  Charge       = 0
  Multiplicity = 1
  Basis Set: AUG-CC-PVTZ
    Blend: AUG-CC-PVTZ
  Basis Set: (AUG-CC-PVTZ AUX)
    Blend: AUG-CC-PVTZ-JKFIT + DEF2-UNIVERSAL-JKFIT

    Orbital Energies [Eh]
    ---------------------

    Doubly Occupied:

       1A    -11.298992     2A    -11.298291     3A    -11.262313
       4A     -7.717922     5A     -7.717620     6A     -5.549389
       7A     -5.549082     8A     -5.540143     9A     -5.540081
      10A     -5.539855    11A     -5.539767    12A     -2.278708
      13A     -2.278397    14A     -2.274213    15A     -2.274149
      16A     -2.273917    17A     -2.273834    18A     -2.263906
      19A     -2.263905    20A     -2.263609    21A     -2.263607
      22A     -1.109271    23A     -0.993888    24A     -0.896403
      25A     -0.831126    26A     -0.822111    27A     -0.684401
      28A     -0.602923    29A     -0.596626    30A     -0.570379
      31A     -0.521900    32A     -0.474462    33A     -0.433961
      34A     -0.372142    35A     -0.368105    36A     -0.365163
      37A     -0.362291

  @DF-RHF Final Energy:  -706.46555114387218

   => Energetics <=

    Nuclear Repulsion Energy =            331.4651356777033016
    One-Electron Energy =               -1845.3276666895549170
    Two-Electron Energy =                 807.3969798679794394
    Total Energy =                       -706.4655511438721760
  Basis Set: (AUG-CC-PVTZ AUX)
    Blend: AUG-CC-PVTZ-RI + DEF2-QZVPP-RI
    Molecular point group: c1

    Geometry (in Angstrom), charge = 0, multiplicity = 1:

       Center              X                  Y                   Z               Mass
    ------------   -----------------  -----------------  -----------------  -----------------
         I            3.066903868453    -0.159869285652     0.054788128173   126.904471900000
         I           -3.072469031547    -0.090218585652    -0.072941071827   126.904471900000
         C            0.016796868453     0.138211714348     0.054789128173    12.000000000000
         C            1.259044868453     1.019494714348     0.054788128173    12.000000000000
         C           -1.225452131547     1.019494714348     0.054788128173    12.000000000000
         H            0.016796868453    -0.509293285652     0.935361128173     1.007825032230
         H            0.016796868453    -0.509295285652    -0.825779871827     1.007825032230
         H            1.315273868453     1.646469714348    -0.835670871827     1.007825032230
         H            1.315274868453     1.646470714348     0.945246128173     1.007825032230
         H           -1.281681131547     1.646469714348    -0.835670871827     1.007825032230
         H           -1.281681131547     1.646469714348     0.945247128173     1.007825032230

  Basis Set: AUG-CC-PVTZ
    Blend: AUG-CC-PVTZ
  Basis Set: (AUG-CC-PVTZ AUX)
    Blend: AUG-CC-PVTZ-JKFIT + DEF2-UNIVERSAL-JKFIT
	 Reference Energy          =    -706.4655511438721760 [Eh]
	 Singles Energy            =      -0.0000000000000000 [Eh]
	 Same-Spin Energy          =      -0.2801609072112577 [Eh]
	 Opposite-Spin Energy      =      -0.8105679758300164 [Eh]
	 Correlation Energy        =      -1.0907288830412742 [Eh]
	 Total Energy              =    -707.5562800269134414 [Eh]

	 ================> DF-SCS-MP2 Energies <==================
	-----------------------------------------------------------
	 SCS Same-Spin Scale       =       0.3333333333333333 [-]
	 SCS Opposite-Spin Scale   =       1.2000000000000000 [-]
	 SCS Same-Spin Energy      =      -0.0933869690704192 [Eh]
	 SCS Opposite-Spin Energy  =      -0.9726815709960196 [Eh]
	 SCS Correlation Energy    =      -1.0660685400664389 [Eh]
	 SCS Total Energy          =    -707.5316196839386294 [Eh]
	-----------------------------------------------------------

  Dipole Moment: [D]
     X:     0.0398      Y:     1.5461      Z:     0.0618     Total:     1.5479

*** Psi4 exiting successfully. Buy a developer a beer!
