                               Psi4 1.4a3.dev225

  ==> Input File <==

--------------------------------------------------------------------------
#psi4
#
memory 32 gb

molecule  {
0 1
  I        3.0501070    -0.1728260     0.0000000
  I       -3.0501070    -0.1728260     0.0000000
  C        0.0000000     0.1252550     0.0000010
  C        1.2422480     1.0065380     0.0000000
  C       -1.2422490     1.0065380     0.0000000
  H        0.0000000    -0.5222500     0.8805730
  H        0.0000000    -0.5222520    -0.8805680
  H        1.2984770     1.6335130    -0.8904590
  H        1.2984780     1.6335140     0.8904580
  H       -1.2927926     1.5701187    -0.9322010
  H       -1.2984780     1.6335130     0.8904590
units angstrom
no_reorient  #important for SAPT in psi4, default
symmetry c1  #important for SAPT in psi4, default
}

set PROPERTIES_ORIGIN ["COM"]
properties('MP2/aug-cc-pvtz', properties = ['dipole'])
--------------------------------------------------------------------------

    Molecular point group: c1
  Charge       = 0
  Multiplicity = 1
  Basis Set: AUG-CC-PVTZ
    Blend: AUG-CC-PVTZ
  Basis Set: (AUG-CC-PVTZ AUX)
    Blend: AUG-CC-PVTZ-JKFIT + DEF2-UNIVERSAL-JKFIT

    Orbital Energies [Eh]
    ---------------------

    Doubly Occupied:

       1A    -11.299113     2A    -11.298586     3A    -11.261361
       4A     -7.717664     5A     -7.717192     6A     -5.549125
       7A     -5.548625     8A     -5.539886     9A     -5.539827
      10A     -5.539427    11A     -5.539378    12A     -2.278444
      13A     -2.277944    14A     -2.273950    15A     -2.273889
      16A     -2.273464    17A     -2.273415    18A     -2.263655
      19A     -2.263654    20A     -2.263226    21A     -2.263225
      22A     -1.109924    23A     -0.994029    24A     -0.895062
      25A     -0.830781    26A     -0.821517    27A     -0.687209
      28A     -0.606843    29A     -0.594401    30A     -0.569402
      31A     -0.522628    32A     -0.473240    33A     -0.433370
      34A     -0.371928    35A     -0.368150    36A     -0.365352
      37A     -0.361626

  @DF-RHF Final Energy:  -706.46540835241512

   => Energetics <=

    Nuclear Repulsion Energy =            332.3554339073780284
    One-Electron Energy =               -1847.1206596373015145
    Two-Electron Energy =                 808.2998173775083615
    Total Energy =                       -706.4654083524151247
  Basis Set: (AUG-CC-PVTZ AUX)
    Blend: AUG-CC-PVTZ-RI + DEF2-QZVPP-RI
    Molecular point group: c1

    Geometry (in Angstrom), charge = 0, multiplicity = 1:

       Center              X                  Y                   Z               Mass
    ------------   -----------------  -----------------  -----------------  -----------------
         I            3.050087676807    -0.129777352910     0.000142138798   126.904471900000
         I           -3.050126323193    -0.129777352910     0.000142138798   126.904471900000
         C           -0.000019323193     0.168303647090     0.000143138798    12.000000000000
         C            1.242228676807     1.049586647090     0.000142138798    12.000000000000
         C           -1.242268323193     1.049586647090     0.000142138798    12.000000000000
         H           -0.000019323193    -0.479201352910     0.880715138798     1.007825032230
         H           -0.000019323193    -0.479203352910    -0.880425861202     1.007825032230
         H            1.298457676807     1.676561647090    -0.890316861202     1.007825032230
         H            1.298458676807     1.676562647090     0.890600138798     1.007825032230
         H           -1.292811923193     1.613167347090    -0.932058861202     1.007825032230
         H           -1.298497323193     1.676561647090     0.890601138798     1.007825032230

  Basis Set: AUG-CC-PVTZ
    Blend: AUG-CC-PVTZ
  Basis Set: (AUG-CC-PVTZ AUX)
    Blend: AUG-CC-PVTZ-JKFIT + DEF2-UNIVERSAL-JKFIT
	 Reference Energy          =    -706.4654083524151247 [Eh]
	 Singles Energy            =      -0.0000000000000000 [Eh]
	 Same-Spin Energy          =      -0.2802950801277568 [Eh]
	 Opposite-Spin Energy      =      -0.8107340344645151 [Eh]
	 Correlation Energy        =      -1.0910291145922719 [Eh]
	 Total Energy              =    -707.5564374670074130 [Eh]

	 ================> DF-SCS-MP2 Energies <==================
	-----------------------------------------------------------
	 SCS Same-Spin Scale       =       0.3333333333333333 [-]
	 SCS Opposite-Spin Scale   =       1.2000000000000000 [-]
	 SCS Same-Spin Energy      =      -0.0934316933759189 [Eh]
	 SCS Opposite-Spin Energy  =      -0.9728808413574180 [Eh]
	 SCS Correlation Energy    =      -1.0663125347333369 [Eh]
	 SCS Total Energy          =    -707.5317208871484809 [Eh]
	-----------------------------------------------------------

  Dipole Moment: [D]
     X:     0.0132      Y:     1.5703      Z:    -0.0128     Total:     1.5705

*** Psi4 exiting successfully. Buy a developer a beer!
