                               Psi4 1.4a3.dev225

  ==> Input File <==

--------------------------------------------------------------------------
#psi4
#
memory 32 gb

molecule  {
0 1
  I        3.0501070    -0.1728260     0.0000000
  I       -3.0501070    -0.1728260     0.0000000
  C        0.0000000     0.1252550     0.0000010
  C        1.2422480     1.0065380     0.0000000
  C       -1.2830292     1.0354685    -0.0000000
  H        0.0000000    -0.5222500     0.8805730
  H        0.0000000    -0.5222520    -0.8805680
  H        1.2984770     1.6335130    -0.8904590
  H        1.2984780     1.6335140     0.8904580
  H       -1.2984780     1.6335130    -0.8904590
  H       -1.2984780     1.6335130     0.8904590
units angstrom
no_reorient  #important for SAPT in psi4, default
symmetry c1  #important for SAPT in psi4, default
}

set PROPERTIES_ORIGIN ["COM"]
properties('MP2/aug-cc-pvtz', properties = ['dipole'])
--------------------------------------------------------------------------

    Molecular point group: c1
  Charge       = 0
  Multiplicity = 1
  Basis Set: AUG-CC-PVTZ
    Blend: AUG-CC-PVTZ
  Basis Set: (AUG-CC-PVTZ AUX)
    Blend: AUG-CC-PVTZ-JKFIT + DEF2-UNIVERSAL-JKFIT

    Orbital Energies [Eh]
    ---------------------

    Doubly Occupied:

       1A    -11.297776     2A    -11.296109     3A    -11.263656
       4A     -7.718654     5A     -7.717151     6A     -5.550175
       7A     -5.548598     8A     -5.540853     9A     -5.540821
      10A     -5.539383    11A     -5.539319    12A     -2.279594
      13A     -2.277915    14A     -2.274978    15A     -2.274938
      16A     -2.273433    17A     -2.273366    18A     -2.264619
      19A     -2.264619    20A     -2.263158    21A     -2.263157
      22A     -1.102167    23A     -0.994667    24A     -0.894590
      25A     -0.832199    26A     -0.823008    27A     -0.683303
      28A     -0.608117    29A     -0.589082    30A     -0.561824
      31A     -0.524451    32A     -0.477305    33A     -0.435417
      34A     -0.372209    35A     -0.368631    36A     -0.365538
      37A     -0.360588

  @DF-RHF Final Energy:  -706.46439179597485

   => Energetics <=

    Nuclear Repulsion Energy =            331.8876937095923267
    One-Electron Energy =               -1846.1934343660066133
    Two-Electron Energy =                 807.8413488604395525
    Total Energy =                       -706.4643917959748478
  Basis Set: (AUG-CC-PVTZ AUX)
    Blend: AUG-CC-PVTZ-RI + DEF2-QZVPP-RI
    Molecular point group: c1

    Geometry (in Angstrom), charge = 0, multiplicity = 1:

       Center              X                  Y                   Z               Mass
    ------------   -----------------  -----------------  -----------------  -----------------
         I            3.051761100587    -0.131166733249    -0.000000054186   126.904471900000
         I           -3.048452899413    -0.131166733249    -0.000000054186   126.904471900000
         C            0.001654100587     0.166914266751     0.000000945814    12.000000000000
         C            1.243902100587     1.048197266751    -0.000000054186    12.000000000000
         C           -1.281375099413     1.077127766751    -0.000000054186    12.000000000000
         H            0.001654100587    -0.480590733249     0.880572945814     1.007825032230
         H            0.001654100587    -0.480592733249    -0.880568054186     1.007825032230
         H            1.300131100587     1.675172266751    -0.890459054186     1.007825032230
         H            1.300132100587     1.675173266751     0.890457945814     1.007825032230
         H           -1.296823899413     1.675172266751    -0.890459054186     1.007825032230
         H           -1.296823899413     1.675172266751     0.890458945814     1.007825032230

  Basis Set: AUG-CC-PVTZ
    Blend: AUG-CC-PVTZ
  Basis Set: (AUG-CC-PVTZ AUX)
    Blend: AUG-CC-PVTZ-JKFIT + DEF2-UNIVERSAL-JKFIT
	 Reference Energy          =    -706.4643917959748478 [Eh]
	 Singles Energy            =      -0.0000000000000000 [Eh]
	 Same-Spin Energy          =      -0.2799866947372069 [Eh]
	 Opposite-Spin Energy      =      -0.8105669771681263 [Eh]
	 Correlation Energy        =      -1.0905536719053333 [Eh]
	 Total Energy              =    -707.5549454678802022 [Eh]

	 ================> DF-SCS-MP2 Energies <==================
	-----------------------------------------------------------
	 SCS Same-Spin Scale       =       0.3333333333333333 [-]
	 SCS Opposite-Spin Scale   =       1.2000000000000000 [-]
	 SCS Same-Spin Energy      =      -0.0933288982457356 [Eh]
	 SCS Opposite-Spin Energy  =      -0.9726803726017516 [Eh]
	 SCS Correlation Energy    =      -1.0660092708474871 [Eh]
	 SCS Total Energy          =    -707.5304010668223782 [Eh]
	-----------------------------------------------------------

  Dipole Moment: [D]
     X:    -0.0638      Y:     1.5622      Z:     0.0000     Total:     1.5635

*** Psi4 exiting successfully. Buy a developer a beer!
