                               Psi4 1.4a3.dev225

  ==> Input File <==

--------------------------------------------------------------------------
#psi4
#
memory 32 gb

molecule  {
0 1
  I        3.0501070    -0.1728260     0.0000000
  I       -3.0501070    -0.1728260     0.0000000
  C        0.0000000     0.1252550     0.0000010
  C        1.2422480     1.0065380     0.0000000
  C       -1.4053698     1.1222601    -0.0000001
  H        0.0000000    -0.5222500     0.8805730
  H        0.0000000    -0.5222520    -0.8805680
  H        1.2984770     1.6335130    -0.8904590
  H        1.2984780     1.6335140     0.8904580
  H       -1.2984780     1.6335130    -0.8904590
  H       -1.2984780     1.6335130     0.8904590
units angstrom
no_reorient  #important for SAPT in psi4, default
symmetry c1  #important for SAPT in psi4, default
}

set PROPERTIES_ORIGIN ["COM"]
properties('MP2/aug-cc-pvtz', properties = ['dipole'])
--------------------------------------------------------------------------

    Molecular point group: c1
  Charge       = 0
  Multiplicity = 1
  Basis Set: AUG-CC-PVTZ
    Blend: AUG-CC-PVTZ
  Basis Set: (AUG-CC-PVTZ AUX)
    Blend: AUG-CC-PVTZ-JKFIT + DEF2-UNIVERSAL-JKFIT

    Orbital Energies [Eh]
    ---------------------

    Doubly Occupied:

       1A    -11.296253     2A    -11.291692     3A    -11.267876
       4A     -7.721824     5A     -7.716139     6A     -5.553564
       7A     -5.547565     8A     -5.543977     9A     -5.543921
      10A     -5.538388    11A     -5.538308    12A     -2.283291
      13A     -2.278306    14A     -2.278285    15A     -2.276878
      16A     -2.272418    17A     -2.272334    18A     -2.267661
      19A     -2.267657    20A     -2.262170    21A     -2.262169
      22A     -1.086364    23A     -0.998651    24A     -0.892541
      25A     -0.837768    26A     -0.820387    27A     -0.683278
      28A     -0.623071    29A     -0.575288    30A     -0.533963
      31A     -0.528360    32A     -0.486928    33A     -0.435102
      34A     -0.371755    35A     -0.371204    36A     -0.365098
      37A     -0.354437

  @DF-RHF Final Energy:  -706.44096261928394

   => Energetics <=

    Nuclear Repulsion Energy =            330.7685091521183836
    One-Electron Energy =               -1843.9292021977707918
    Two-Electron Energy =                 806.7197304263684146
    Total Energy =                       -706.4409626192839369
  Basis Set: (AUG-CC-PVTZ AUX)
    Blend: AUG-CC-PVTZ-RI + DEF2-QZVPP-RI
    Molecular point group: c1

    Geometry (in Angstrom), charge = 0, multiplicity = 1:

       Center              X                  Y                   Z               Mass
    ------------   -----------------  -----------------  -----------------  -----------------
         I            3.056723270446    -0.134687025463    -0.000000050130   126.904471900000
         I           -3.043490729554    -0.134687025463    -0.000000050130   126.904471900000
         C            0.006616270446     0.163393974537     0.000000949870    12.000000000000
         C            1.248864270446     1.044676974537    -0.000000050130    12.000000000000
         C           -1.398753529554     1.160399074537    -0.000000150130    12.000000000000
         H            0.006616270446    -0.484111025463     0.880572949870     1.007825032230
         H            0.006616270446    -0.484113025463    -0.880568050130     1.007825032230
         H            1.305093270446     1.671651974537    -0.890459050130     1.007825032230
         H            1.305094270446     1.671652974537     0.890457949870     1.007825032230
         H           -1.291861729554     1.671651974537    -0.890459050130     1.007825032230
         H           -1.291861729554     1.671651974537     0.890458949870     1.007825032230

  Basis Set: AUG-CC-PVTZ
    Blend: AUG-CC-PVTZ
  Basis Set: (AUG-CC-PVTZ AUX)
    Blend: AUG-CC-PVTZ-JKFIT + DEF2-UNIVERSAL-JKFIT
	 Reference Energy          =    -706.4409626192839369 [Eh]
	 Singles Energy            =      -0.0000000000000000 [Eh]
	 Same-Spin Energy          =      -0.2802689184012827 [Eh]
	 Opposite-Spin Energy      =      -0.8120480231881010 [Eh]
	 Correlation Energy        =      -1.0923169415893836 [Eh]
	 Total Energy              =    -707.5332795608733250 [Eh]

	 ================> DF-SCS-MP2 Energies <==================
	-----------------------------------------------------------
	 SCS Same-Spin Scale       =       0.3333333333333333 [-]
	 SCS Opposite-Spin Scale   =       1.2000000000000000 [-]
	 SCS Same-Spin Energy      =      -0.0934229728004276 [Eh]
	 SCS Opposite-Spin Energy  =      -0.9744576278257211 [Eh]
	 SCS Correlation Energy    =      -1.0678806006261485 [Eh]
	 SCS Total Energy          =    -707.5088432199100907 [Eh]
	-----------------------------------------------------------

  Dipole Moment: [D]
     X:    -0.2040      Y:     1.4872      Z:     0.0000     Total:     1.5011

*** Psi4 exiting successfully. Buy a developer a beer!
