                               Psi4 1.4a3.dev225

  ==> Input File <==

--------------------------------------------------------------------------
#psi4
#
memory 32 gb

molecule  {
0 1
  I        3.0501070    -0.1728260     0.0000000
  I       -3.0501070    -0.1728260     0.0000000
  C        0.0000000     0.1252550     0.0000010
  C        1.2422480     1.0065380     0.0000000
  C       -1.2422490     1.0065380     0.0000000
  H        0.0000000    -0.5222500     0.8805730
  H        0.0000000    -0.5222520    -0.8805680
  H        1.2984770     1.6335130    -0.8904590
  H        1.2984780     1.6335140     0.8904580
  H       -1.3012196     1.6640834    -0.8679476
  H       -1.2984780     1.6335130     0.8904590
units angstrom
no_reorient  #important for SAPT in psi4, default
symmetry c1  #important for SAPT in psi4, default
}

set PROPERTIES_ORIGIN ["COM"]
properties('MP2/aug-cc-pvtz', properties = ['dipole'])
--------------------------------------------------------------------------

    Molecular point group: c1
  Charge       = 0
  Multiplicity = 1
  Basis Set: AUG-CC-PVTZ
    Blend: AUG-CC-PVTZ
  Basis Set: (AUG-CC-PVTZ AUX)
    Blend: AUG-CC-PVTZ-JKFIT + DEF2-UNIVERSAL-JKFIT

    Orbital Energies [Eh]
    ---------------------

    Doubly Occupied:

       1A    -11.298522     2A    -11.298250     3A    -11.262085
       4A     -7.717807     5A     -7.717571     6A     -5.549278
       7A     -5.549027     8A     -5.540027     9A     -5.539960
      10A     -5.539797    11A     -5.539736    12A     -2.278597
      13A     -2.278346    14A     -2.274101    15A     -2.274031
      16A     -2.273857    17A     -2.273793    18A     -2.263782
      19A     -2.263781    20A     -2.263568    21A     -2.263567
      22A     -1.109221    23A     -0.993619    24A     -0.895240
      25A     -0.831368    26A     -0.823646    27A     -0.683024
      28A     -0.600773    29A     -0.597967    30A     -0.570192
      31A     -0.520958    32A     -0.475830    33A     -0.433853
      34A     -0.372188    35A     -0.368113    36A     -0.365267
      37A     -0.361980

  @DF-RHF Final Energy:  -706.46588094328240

   => Energetics <=

    Nuclear Repulsion Energy =            332.2415366918295945
    One-Electron Energy =               -1846.8893887875963173
    Two-Electron Energy =                 808.1819711524842660
    Total Energy =                       -706.4658809432824000
  Basis Set: (AUG-CC-PVTZ AUX)
    Blend: AUG-CC-PVTZ-RI + DEF2-QZVPP-RI
    Molecular point group: c1

    Geometry (in Angstrom), charge = 0, multiplicity = 1:

       Center              X                  Y                   Z               Mass
    ------------   -----------------  -----------------  -----------------  -----------------
         I            3.050116383152    -0.130097441097    -0.000076738656   126.904471900000
         I           -3.050097616848    -0.130097441097    -0.000076738656   126.904471900000
         C            0.000009383152     0.167983558903    -0.000075738656    12.000000000000
         C            1.242257383152     1.049266558903    -0.000076738656    12.000000000000
         C           -1.242239616848     1.049266558903    -0.000076738656    12.000000000000
         H            0.000009383152    -0.479521441097     0.880496261344     1.007825032230
         H            0.000009383152    -0.479523441097    -0.880644738656     1.007825032230
         H            1.298486383152     1.676241558903    -0.890535738656     1.007825032230
         H            1.298487383152     1.676242558903     0.890381261344     1.007825032230
         H           -1.301210216848     1.706811958903    -0.868024338656     1.007825032230
         H           -1.298468616848     1.676241558903     0.890382261344     1.007825032230

  Basis Set: AUG-CC-PVTZ
    Blend: AUG-CC-PVTZ
  Basis Set: (AUG-CC-PVTZ AUX)
    Blend: AUG-CC-PVTZ-JKFIT + DEF2-UNIVERSAL-JKFIT
	 Reference Energy          =    -706.4658809432824000 [Eh]
	 Singles Energy            =      -0.0000000000000000 [Eh]
	 Same-Spin Energy          =      -0.2802073778794412 [Eh]
	 Opposite-Spin Energy      =      -0.8106350706349064 [Eh]
	 Correlation Energy        =      -1.0908424485143475 [Eh]
	 Total Energy              =    -707.5567233917967087 [Eh]

	 ================> DF-SCS-MP2 Energies <==================
	-----------------------------------------------------------
	 SCS Same-Spin Scale       =       0.3333333333333333 [-]
	 SCS Opposite-Spin Scale   =       1.2000000000000000 [-]
	 SCS Same-Spin Energy      =      -0.0934024592931471 [Eh]
	 SCS Opposite-Spin Energy  =      -0.9727620847618876 [Eh]
	 SCS Correlation Energy    =      -1.0661645440550347 [Eh]
	 SCS Total Energy          =    -707.5320454873374274 [Eh]
	-----------------------------------------------------------

  Dipole Moment: [D]
     X:    -0.0064      Y:     1.5832      Z:     0.0076     Total:     1.5832

*** Psi4 exiting successfully. Buy a developer a beer!
