                               Psi4 1.4a3.dev225

  ==> Input File <==

--------------------------------------------------------------------------
#psi4
#
memory 32 gb

molecule  {
0 1
  I        3.0501070    -0.1728260     0.0000000
  I       -3.0501070    -0.1728260     0.0000000
  C        0.0000000     0.1252550     0.0000010
  C        1.2422480     1.0065380     0.0000000
  C       -1.2422490     1.0065380     0.0000000
  H        0.0000000    -0.5222500     0.8805730
  H        0.0000000    -0.5222520    -0.8805680
  H        1.2984770     1.6335130    -0.8904590
  H        1.2881652     1.5185246     0.7271452
  H       -1.2984780     1.6335130    -0.8904590
  H       -1.2984780     1.6335130     0.8904590
units angstrom
no_reorient  #important for SAPT in psi4, default
symmetry c1  #important for SAPT in psi4, default
}

set PROPERTIES_ORIGIN ["COM"]
properties('MP2/aug-cc-pvtz', properties = ['dipole'])
--------------------------------------------------------------------------

    Molecular point group: c1
  Charge       = 0
  Multiplicity = 1
  Basis Set: AUG-CC-PVTZ
    Blend: AUG-CC-PVTZ
  Basis Set: (AUG-CC-PVTZ AUX)
    Blend: AUG-CC-PVTZ-JKFIT + DEF2-UNIVERSAL-JKFIT

    Orbital Energies [Eh]
    ---------------------

    Doubly Occupied:

       1A    -11.298750     2A    -11.275917     3A    -11.260784
       4A     -7.717743     5A     -7.717218     6A     -5.549209
       7A     -5.548615     8A     -5.539962     9A     -5.539904
      10A     -5.539477    11A     -5.539422    12A     -2.278529
      13A     -2.277915    14A     -2.274032    15A     -2.273972
      16A     -2.273465    17A     -2.273407    18A     -2.263728
      19A     -2.263727    20A     -2.263287    21A     -2.263287
      22A     -1.117297    23A     -1.006693    24A     -0.896769
      25A     -0.847245    26A     -0.827170    27A     -0.695440
      28A     -0.621576    29A     -0.597492    30A     -0.570723
      31A     -0.525498    32A     -0.475568    33A     -0.434567
      34A     -0.372259    35A     -0.368517    36A     -0.365951
      37A     -0.361843

  @DF-RHF Final Energy:  -706.43187990463070

   => Energetics <=

    Nuclear Repulsion Energy =            333.4083502735523439
    One-Electron Energy =               -1849.0465445049349000
    Two-Electron Energy =                 809.2063143267519081
    Total Energy =                       -706.4318799046307049
  Basis Set: (AUG-CC-PVTZ AUX)
    Blend: AUG-CC-PVTZ-RI + DEF2-QZVPP-RI
    Molecular point group: c1

    Geometry (in Angstrom), charge = 0, multiplicity = 1:

       Center              X                  Y                   Z               Mass
    ------------   -----------------  -----------------  -----------------  -----------------
         I            3.050142174239    -0.129601595609     0.000556266412   126.904471900000
         I           -3.050071825761    -0.129601595609     0.000556266412   126.904471900000
         C            0.000035174239     0.168479404391     0.000557266412    12.000000000000
         C            1.242283174239     1.049762404391     0.000556266412    12.000000000000
         C           -1.242213825761     1.049762404391     0.000556266412    12.000000000000
         H            0.000035174239    -0.479025595609     0.881129266412     1.007825032230
         H            0.000035174239    -0.479027595609    -0.880011733588     1.007825032230
         H            1.298512174239     1.676737404391    -0.889902733588     1.007825032230
         H            1.288200374239     1.561749004391     0.727701466412     1.007825032230
         H           -1.298442825761     1.676737404391    -0.889902733588     1.007825032230
         H           -1.298442825761     1.676737404391     0.891015266412     1.007825032230

  Basis Set: AUG-CC-PVTZ
    Blend: AUG-CC-PVTZ
  Basis Set: (AUG-CC-PVTZ AUX)
    Blend: AUG-CC-PVTZ-JKFIT + DEF2-UNIVERSAL-JKFIT
	 Reference Energy          =    -706.4318799046307049 [Eh]
	 Singles Energy            =      -0.0000000000000000 [Eh]
	 Same-Spin Energy          =      -0.2799970397616908 [Eh]
	 Opposite-Spin Energy      =      -0.8098809136217515 [Eh]
	 Correlation Energy        =      -1.0898779533834424 [Eh]
	 Total Energy              =    -707.5217578580140980 [Eh]

	 ================> DF-SCS-MP2 Energies <==================
	-----------------------------------------------------------
	 SCS Same-Spin Scale       =       0.3333333333333333 [-]
	 SCS Opposite-Spin Scale   =       1.2000000000000000 [-]
	 SCS Same-Spin Energy      =      -0.0933323465872303 [Eh]
	 SCS Opposite-Spin Energy  =      -0.9718570963461017 [Eh]
	 SCS Correlation Energy    =      -1.0651894429333320 [Eh]
	 SCS Total Energy          =    -707.4970693475640928 [Eh]
	-----------------------------------------------------------

  Dipole Moment: [D]
     X:    -0.0060      Y:     1.5959      Z:    -0.0094     Total:     1.5959

*** Psi4 exiting successfully. Buy a developer a beer!
