                               Psi4 1.4a3.dev225

  ==> Input File <==

--------------------------------------------------------------------------
#psi4
#
memory 32 gb

molecule  {
0 1
  I        3.0501070    -0.1728260     0.0000000
  I       -3.0501070    -0.1728260     0.0000000
  C        0.0000000     0.1252550     0.0000010
  C        1.2422480     1.0065380     0.0000000
  C       -1.2422490     1.0065380     0.0000000
  H        0.0000000    -0.5222500     0.8805730
  H        0.0000000    -0.5222520    -0.8805680
  H        1.2984770     1.6335130    -0.8904590
  H        1.2958998     1.6047666     0.8496298
  H       -1.2984780     1.6335130    -0.8904590
  H       -1.2984780     1.6335130     0.8904590
units angstrom
no_reorient  #important for SAPT in psi4, default
symmetry c1  #important for SAPT in psi4, default
}

set PROPERTIES_ORIGIN ["COM"]
properties('MP2/aug-cc-pvtz', properties = ['dipole'])
--------------------------------------------------------------------------

    Molecular point group: c1
  Charge       = 0
  Multiplicity = 1
  Basis Set: AUG-CC-PVTZ
    Blend: AUG-CC-PVTZ
  Basis Set: (AUG-CC-PVTZ AUX)
    Blend: AUG-CC-PVTZ-JKFIT + DEF2-UNIVERSAL-JKFIT

    Orbital Energies [Eh]
    ---------------------

    Doubly Occupied:

       1A    -11.298596     2A    -11.292966     3A    -11.261500
       4A     -7.717638     5A     -7.717422     6A     -5.549098
       7A     -5.548861     8A     -5.539861     9A     -5.539801
      10A     -5.539657    11A     -5.539598    12A     -2.278417
      13A     -2.278175    14A     -2.273924    15A     -2.273863
      16A     -2.273697    17A     -2.273635    18A     -2.263629
      19A     -2.263629    20A     -2.263440    21A     -2.263439
      22A     -1.110774    23A     -0.996201    24A     -0.895407
      25A     -0.833357    26A     -0.825060    27A     -0.686823
      28A     -0.607507    29A     -0.597378    30A     -0.570180
      31A     -0.522836    32A     -0.475154    33A     -0.433882
      34A     -0.372106    35A     -0.368205    36A     -0.365468
      37A     -0.361836

  @DF-RHF Final Energy:  -706.46516225203982

   => Energetics <=

    Nuclear Repulsion Energy =            332.5359286039044378
    One-Electron Energy =               -1847.4561443045581655
    Two-Electron Energy =                 808.4550534486138531
    Total Energy =                       -706.4651622520398178
  Basis Set: (AUG-CC-PVTZ AUX)
    Blend: AUG-CC-PVTZ-RI + DEF2-QZVPP-RI
    Molecular point group: c1

    Geometry (in Angstrom), charge = 0, multiplicity = 1:

       Center              X                  Y                   Z               Mass
    ------------   -----------------  -----------------  -----------------  -----------------
         I            3.050115826535    -0.129895376629     0.000139025963   126.904471900000
         I           -3.050098173465    -0.129895376629     0.000139025963   126.904471900000
         C            0.000008826535     0.168185623371     0.000140025963    12.000000000000
         C            1.242256826535     1.049468623371     0.000139025963    12.000000000000
         C           -1.242240173465     1.049468623371     0.000139025963    12.000000000000
         H            0.000008826535    -0.479319376629     0.880712025963     1.007825032230
         H            0.000008826535    -0.479321376629    -0.880428974037     1.007825032230
         H            1.298485826535     1.676443623371    -0.890319974037     1.007825032230
         H            1.295908626535     1.647697223371     0.849768825963     1.007825032230
         H           -1.298469173465     1.676443623371    -0.890319974037     1.007825032230
         H           -1.298469173465     1.676443623371     0.890598025963     1.007825032230

  Basis Set: AUG-CC-PVTZ
    Blend: AUG-CC-PVTZ
  Basis Set: (AUG-CC-PVTZ AUX)
    Blend: AUG-CC-PVTZ-JKFIT + DEF2-UNIVERSAL-JKFIT
	 Reference Energy          =    -706.4651622520398178 [Eh]
	 Singles Energy            =      -0.0000000000000000 [Eh]
	 Same-Spin Energy          =      -0.2801363195468399 [Eh]
	 Opposite-Spin Energy      =      -0.8103002264323514 [Eh]
	 Correlation Energy        =      -1.0904365459791914 [Eh]
	 Total Energy              =    -707.5555987980189911 [Eh]

	 ================> DF-SCS-MP2 Energies <==================
	-----------------------------------------------------------
	 SCS Same-Spin Scale       =       0.3333333333333333 [-]
	 SCS Opposite-Spin Scale   =       1.2000000000000000 [-]
	 SCS Same-Spin Energy      =      -0.0933787731822800 [Eh]
	 SCS Opposite-Spin Energy  =      -0.9723602717188217 [Eh]
	 SCS Correlation Energy    =      -1.0657390449011017 [Eh]
	 SCS Total Energy          =    -707.5309012969408968 [Eh]
	-----------------------------------------------------------

  Dipole Moment: [D]
     X:    -0.0035      Y:     1.5879      Z:     0.0010     Total:     1.5879

*** Psi4 exiting successfully. Buy a developer a beer!
