                               Psi4 1.4a3.dev225

  ==> Input File <==

--------------------------------------------------------------------------
#psi4
#
memory 32 gb

molecule  {
0 1
  I        3.0501070    -0.1728260     0.0000000
  I       -3.0501070    -0.1728260     0.0000000
  C        0.0000000     0.1252550     0.0000010
  C        1.2422480     1.0065380     0.0000000
  C       -1.2828233     0.9349247     0.1365355
  H        0.0000000    -0.5222500     0.8805730
  H        0.0000000    -0.5222520    -0.8805680
  H        1.2984770     1.6335130    -0.8904590
  H        1.2984780     1.6335140     0.8904580
  H       -1.2984780     1.6335130    -0.8904590
  H       -1.2984780     1.6335130     0.8904590
units angstrom
no_reorient  #important for SAPT in psi4, default
symmetry c1  #important for SAPT in psi4, default
}

set PROPERTIES_ORIGIN ["COM"]
properties('MP2/aug-cc-pvtz', properties = ['dipole'])
--------------------------------------------------------------------------

    Molecular point group: c1
  Charge       = 0
  Multiplicity = 1
  Basis Set: AUG-CC-PVTZ
    Blend: AUG-CC-PVTZ
  Basis Set: (AUG-CC-PVTZ AUX)
    Blend: AUG-CC-PVTZ-JKFIT + DEF2-UNIVERSAL-JKFIT

    Orbital Energies [Eh]
    ---------------------

    Doubly Occupied:

       1A    -11.299209     2A    -11.297898     3A    -11.260724
       4A     -7.722629     5A     -7.717403     6A     -5.554414
       7A     -5.548887     8A     -5.544802     9A     -5.544664
      10A     -5.539617    11A     -5.539548    12A     -2.284184
      13A     -2.279194    14A     -2.279074    15A     -2.278208
      16A     -2.273705    17A     -2.273633    18A     -2.268436
      19A     -2.268431    20A     -2.263363    21A     -2.263362
      22A     -1.107052    23A     -0.997207    24A     -0.899522
      25A     -0.831502    26A     -0.819692    27A     -0.675334
      28A     -0.611765    29A     -0.582757    30A     -0.562488
      31A     -0.510265    32A     -0.476556    33A     -0.442441
      34A     -0.374221    35A     -0.367768    36A     -0.365007
      37A     -0.361733

  @DF-RHF Final Energy:  -706.44411009493763

   => Energetics <=

    Nuclear Repulsion Energy =            333.0591877384852069
    One-Electron Energy =               -1848.4332085761541293
    Two-Electron Energy =                 808.9299107427312947
    Total Energy =                       -706.4441100949376278
  Basis Set: (AUG-CC-PVTZ AUX)
    Blend: AUG-CC-PVTZ-RI + DEF2-QZVPP-RI
    Molecular point group: c1

    Geometry (in Angstrom), charge = 0, multiplicity = 1:

       Center              X                  Y                   Z               Mass
    ------------   -----------------  -----------------  -----------------  -----------------
         I            3.051752749224    -0.127088647855    -0.005537973265   126.904471900000
         I           -3.048461250776    -0.127088647855    -0.005537973265   126.904471900000
         C            0.001645749224     0.170992352145    -0.005536973265    12.000000000000
         C            1.243893749224     1.052275352145    -0.005537973265    12.000000000000
         C           -1.281177550776     0.980662052145     0.130997526735    12.000000000000
         H            0.001645749224    -0.476512647855     0.875035026735     1.007825032230
         H            0.001645749224    -0.476514647855    -0.886105973265     1.007825032230
         H            1.300122749224     1.679250352145    -0.895996973265     1.007825032230
         H            1.300123749224     1.679251352145     0.884920026735     1.007825032230
         H           -1.296832250776     1.679250352145    -0.895996973265     1.007825032230
         H           -1.296832250776     1.679250352145     0.884921026735     1.007825032230

  Basis Set: AUG-CC-PVTZ
    Blend: AUG-CC-PVTZ
  Basis Set: (AUG-CC-PVTZ AUX)
    Blend: AUG-CC-PVTZ-JKFIT + DEF2-UNIVERSAL-JKFIT
	 Reference Energy          =    -706.4441100949376278 [Eh]
	 Singles Energy            =      -0.0000000000000000 [Eh]
	 Same-Spin Energy          =      -0.2810710496731441 [Eh]
	 Opposite-Spin Energy      =      -0.8126293755386311 [Eh]
	 Correlation Energy        =      -1.0937004252117752 [Eh]
	 Total Energy              =    -707.5378105201493781 [Eh]

	 ================> DF-SCS-MP2 Energies <==================
	-----------------------------------------------------------
	 SCS Same-Spin Scale       =       0.3333333333333333 [-]
	 SCS Opposite-Spin Scale   =       1.2000000000000000 [-]
	 SCS Same-Spin Energy      =      -0.0936903498910480 [Eh]
	 SCS Opposite-Spin Energy  =      -0.9751552506463573 [Eh]
	 SCS Correlation Energy    =      -1.0688456005374054 [Eh]
	 SCS Total Energy          =    -707.5129556954750569 [Eh]
	-----------------------------------------------------------

  Dipole Moment: [D]
     X:    -0.1415      Y:     1.4686      Z:     0.0417     Total:     1.4760

*** Psi4 exiting successfully. Buy a developer a beer!
