                               Psi4 1.4a3.dev225

  ==> Input File <==

--------------------------------------------------------------------------
#psi4
#
memory 32 gb

molecule  {
0 1
  I        3.0501070    -0.1728260     0.0000000
  I       -3.0501070    -0.1728260     0.0000000
  C        0.0000000     0.1252550     0.0000010
  C        1.2422480     1.0065380     0.0000000
  C       -1.0747407     1.1158128     0.0000000
  H        0.0000000    -0.5222500     0.8805730
  H        0.0000000    -0.5222520    -0.8805680
  H        1.2984770     1.6335130    -0.8904590
  H        1.2984780     1.6335140     0.8904580
  H       -1.2984780     1.6335130    -0.8904590
  H       -1.2984780     1.6335130     0.8904590
units angstrom
no_reorient  #important for SAPT in psi4, default
symmetry c1  #important for SAPT in psi4, default
}

set PROPERTIES_ORIGIN ["COM"]
properties('MP2/aug-cc-pvtz', properties = ['dipole'])
--------------------------------------------------------------------------

    Molecular point group: c1
  Charge       = 0
  Multiplicity = 1
  Basis Set: AUG-CC-PVTZ
    Blend: AUG-CC-PVTZ
  Basis Set: (AUG-CC-PVTZ AUX)
    Blend: AUG-CC-PVTZ-JKFIT + DEF2-UNIVERSAL-JKFIT

    Orbital Energies [Eh]
    ---------------------

    Doubly Occupied:

       1A    -11.314703     2A    -11.304628     3A    -11.268394
       4A     -7.720999     5A     -7.702501     6A     -5.552479
       7A     -5.543206     8A     -5.543155     9A     -5.533203
      10A     -5.524961    11A     -5.524944    12A     -2.281803
      13A     -2.277298    14A     -2.277240    15A     -2.266975
      16A     -2.266975    17A     -2.261719    18A     -2.258229
      19A     -2.258210    20A     -2.249091    21A     -2.249090
      22A     -1.133434    23A     -0.992941    24A     -0.890664
      25A     -0.836660    26A     -0.831331    27A     -0.708099
      28A     -0.623731    29A     -0.620536    30A     -0.588939
      31A     -0.534604    32A     -0.470719    33A     -0.397274
      34A     -0.370494    35A     -0.370484    36A     -0.357851
      37A     -0.356152

  @DF-RHF Final Energy:  -706.44879206521807

   => Energetics <=

    Nuclear Repulsion Energy =            331.1394089385973416
    One-Electron Energy =               -1844.6489679961316597
    Two-Electron Energy =                 807.0607669923161893
    Total Energy =                       -706.4487920652180719
  Basis Set: (AUG-CC-PVTZ AUX)
    Blend: AUG-CC-PVTZ-RI + DEF2-QZVPP-RI
    Molecular point group: c1

    Geometry (in Angstrom), charge = 0, multiplicity = 1:

       Center              X                  Y                   Z               Mass
    ------------   -----------------  -----------------  -----------------  -----------------
         I            3.043312859227    -0.134425521124    -0.000000054186   126.904471900000
         I           -3.056901140773    -0.134425521124    -0.000000054186   126.904471900000
         C           -0.006794140773     0.163655478876     0.000000945814    12.000000000000
         C            1.235453859227     1.044938478876    -0.000000054186    12.000000000000
         C           -1.081534840773     1.154213278876    -0.000000054186    12.000000000000
         H           -0.006794140773    -0.483849521124     0.880572945814     1.007825032230
         H           -0.006794140773    -0.483851521124    -0.880568054186     1.007825032230
         H            1.291682859227     1.671913478876    -0.890459054186     1.007825032230
         H            1.291683859227     1.671914478876     0.890457945814     1.007825032230
         H           -1.305272140773     1.671913478876    -0.890459054186     1.007825032230
         H           -1.305272140773     1.671913478876     0.890458945814     1.007825032230

  Basis Set: AUG-CC-PVTZ
    Blend: AUG-CC-PVTZ
  Basis Set: (AUG-CC-PVTZ AUX)
    Blend: AUG-CC-PVTZ-JKFIT + DEF2-UNIVERSAL-JKFIT
	 Reference Energy          =    -706.4487920652180719 [Eh]
	 Singles Energy            =      -0.0000000000000000 [Eh]
	 Same-Spin Energy          =      -0.2805067152040996 [Eh]
	 Opposite-Spin Energy      =      -0.8102285517785963 [Eh]
	 Correlation Energy        =      -1.0907352669826960 [Eh]
	 Total Energy              =    -707.5395273322008052 [Eh]

	 ================> DF-SCS-MP2 Energies <==================
	-----------------------------------------------------------
	 SCS Same-Spin Scale       =       0.3333333333333333 [-]
	 SCS Opposite-Spin Scale   =       1.2000000000000000 [-]
	 SCS Same-Spin Energy      =      -0.0935022384013665 [Eh]
	 SCS Opposite-Spin Energy  =      -0.9722742621343156 [Eh]
	 SCS Correlation Energy    =      -1.0657765005356821 [Eh]
	 SCS Total Energy          =    -707.5145685657537342 [Eh]
	-----------------------------------------------------------

  Dipole Moment: [D]
     X:     0.5330      Y:     1.7721      Z:     0.0000     Total:     1.8505

*** Psi4 exiting successfully. Buy a developer a beer!
