                               Psi4 1.4a3.dev225

  ==> Input File <==

--------------------------------------------------------------------------
#psi4
#
memory 32 gb

molecule  {
0 1
  I        3.0501070    -0.1728260     0.0000000
  I       -3.0501070    -0.1728260     0.0000000
  C        0.0000000     0.1252550     0.0000010
  C        1.2422480     1.0065380     0.0000000
  C       -1.2422490     1.0065380     0.0000000
  H        0.0000000    -0.6407311     1.0417010
  H        0.0000000    -0.5222520    -0.8805680
  H        1.2984770     1.6335130    -0.8904590
  H        1.2984780     1.6335140     0.8904580
  H       -1.2984780     1.6335130    -0.8904590
  H       -1.2984780     1.6335130     0.8904590
units angstrom
no_reorient  #important for SAPT in psi4, default
symmetry c1  #important for SAPT in psi4, default
}

set PROPERTIES_ORIGIN ["COM"]
properties('MP2/aug-cc-pvtz', properties = ['dipole'])
--------------------------------------------------------------------------

    Molecular point group: c1
  Charge       = 0
  Multiplicity = 1
  Basis Set: AUG-CC-PVTZ
    Blend: AUG-CC-PVTZ
  Basis Set: (AUG-CC-PVTZ AUX)
    Blend: AUG-CC-PVTZ-JKFIT + DEF2-UNIVERSAL-JKFIT

    Orbital Energies [Eh]
    ---------------------

    Doubly Occupied:

       1A    -11.300125     2A    -11.300120     3A    -11.283327
       4A     -7.717700     5A     -7.717700     6A     -5.549200
       7A     -5.549200     8A     -5.539896     9A     -5.539895
      10A     -5.539843    11A     -5.539843    12A     -2.278528
      13A     -2.278525    14A     -2.274004    15A     -2.274002
      16A     -2.273949    17A     -2.273947    18A     -2.263642
      19A     -2.263642    20A     -2.263641    21A     -2.263641
      22A     -1.105208    23A     -0.994628    24A     -0.890883
      25A     -0.831643    26A     -0.813119    27A     -0.675249
      28A     -0.603622    29A     -0.598539    30A     -0.565533
      31A     -0.500110    32A     -0.469662    33A     -0.434533
      34A     -0.371897    35A     -0.368199    36A     -0.365347
      37A     -0.362046

  @DF-RHF Final Energy:  -706.44559542127502

   => Energetics <=

    Nuclear Repulsion Energy =            331.4111371007090838
    One-Electron Energy =               -1845.2442927651420632
    Two-Electron Energy =                 807.3875602431579637
    Total Energy =                       -706.4455954212750157
  Basis Set: (AUG-CC-PVTZ AUX)
    Blend: AUG-CC-PVTZ-RI + DEF2-QZVPP-RI
    Molecular point group: c1

    Geometry (in Angstrom), charge = 0, multiplicity = 1:

       Center              X                  Y                   Z               Mass
    ------------   -----------------  -----------------  -----------------  -----------------
         I            3.050107043967    -0.129589701228    -0.000548932323   126.904471900000
         I           -3.050106956033    -0.129589701228    -0.000548932323   126.904471900000
         C            0.000000043967     0.168491298772    -0.000547932323    12.000000000000
         C            1.242248043967     1.049774298772    -0.000548932323    12.000000000000
         C           -1.242248956033     1.049774298772    -0.000548932323    12.000000000000
         H            0.000000043967    -0.597494801228     1.041152067677     1.007825032230
         H            0.000000043967    -0.479015701228    -0.881116932323     1.007825032230
         H            1.298477043967     1.676749298772    -0.891007932323     1.007825032230
         H            1.298478043967     1.676750298772     0.889909067677     1.007825032230
         H           -1.298477956033     1.676749298772    -0.891007932323     1.007825032230
         H           -1.298477956033     1.676749298772     0.889910067677     1.007825032230

  Basis Set: AUG-CC-PVTZ
    Blend: AUG-CC-PVTZ
  Basis Set: (AUG-CC-PVTZ AUX)
    Blend: AUG-CC-PVTZ-JKFIT + DEF2-UNIVERSAL-JKFIT
	 Reference Energy          =    -706.4455954212750157 [Eh]
	 Singles Energy            =      -0.0000000000000000 [Eh]
	 Same-Spin Energy          =      -0.2805559590009765 [Eh]
	 Opposite-Spin Energy      =      -0.8125625471990090 [Eh]
	 Correlation Energy        =      -1.0931185061999855 [Eh]
	 Total Energy              =    -707.5387139274749870 [Eh]

	 ================> DF-SCS-MP2 Energies <==================
	-----------------------------------------------------------
	 SCS Same-Spin Scale       =       0.3333333333333333 [-]
	 SCS Opposite-Spin Scale   =       1.2000000000000000 [-]
	 SCS Same-Spin Energy      =      -0.0935186530003255 [Eh]
	 SCS Opposite-Spin Energy  =      -0.9750750566388108 [Eh]
	 SCS Correlation Energy    =      -1.0685937096391362 [Eh]
	 SCS Total Energy          =    -707.5141891309141329 [Eh]
	-----------------------------------------------------------

  Dipole Moment: [D]
     X:    -0.0000      Y:     1.6184      Z:    -0.0448     Total:     1.6191

*** Psi4 exiting successfully. Buy a developer a beer!
