                               Psi4 1.4a3.dev225

  ==> Input File <==

--------------------------------------------------------------------------
#psi4
#
memory 32 gb

molecule  {
0 1
  I        3.0501070    -0.1728260     0.0000000
  I       -3.0501070    -0.1728260     0.0000000
  C        0.0000000     0.1252550     0.0000010
  C        1.2422480     1.0065380     0.0000000
  C       -1.2422490     1.0065380     0.0000000
  H        0.0000000    -0.5222500     0.8805730
  H        0.0000000    -0.4630112    -0.8000042
  H        1.2984770     1.6335130    -0.8904590
  H        1.2984780     1.6335140     0.8904580
  H       -1.2984780     1.6335130    -0.8904590
  H       -1.2984780     1.6335130     0.8904590
units angstrom
no_reorient  #important for SAPT in psi4, default
symmetry c1  #important for SAPT in psi4, default
}

set PROPERTIES_ORIGIN ["COM"]
properties('MP2/aug-cc-pvtz', properties = ['dipole'])
--------------------------------------------------------------------------

    Molecular point group: c1
  Charge       = 0
  Multiplicity = 1
  Basis Set: AUG-CC-PVTZ
    Blend: AUG-CC-PVTZ
  Basis Set: (AUG-CC-PVTZ AUX)
    Blend: AUG-CC-PVTZ-JKFIT + DEF2-UNIVERSAL-JKFIT

    Orbital Energies [Eh]
    ---------------------

    Doubly Occupied:

       1A    -11.298009     2A    -11.298008     3A    -11.249962
       4A     -7.717618     5A     -7.717617     6A     -5.549062
       7A     -5.549062     8A     -5.539855     9A     -5.539855
      10A     -5.539787    11A     -5.539787    12A     -2.278380
      13A     -2.278376    14A     -2.273903    15A     -2.273901
      16A     -2.273831    17A     -2.273828    18A     -2.263630
      19A     -2.263630    20A     -2.263629    21A     -2.263629
      22A     -1.113806    23A     -0.993468    24A     -0.899753
      25A     -0.830969    26A     -0.830268    27A     -0.690264
      28A     -0.602467    29A     -0.596445    30A     -0.574673
      31A     -0.530233    32A     -0.475948    33A     -0.433439
      34A     -0.372170    35A     -0.368131    36A     -0.365323
      37A     -0.361841

  @DF-RHF Final Energy:  -706.46008815922164

   => Energetics <=

    Nuclear Repulsion Energy =            332.7783885691117689
    One-Electron Energy =               -1847.9078441685578582
    Two-Electron Energy =                 808.6693674402245051
    Total Energy =                       -706.4600881592216410
  Basis Set: (AUG-CC-PVTZ AUX)
    Blend: AUG-CC-PVTZ-RI + DEF2-QZVPP-RI
    Molecular point group: c1

    Geometry (in Angstrom), charge = 0, multiplicity = 1:

       Center              X                  Y                   Z               Mass
    ------------   -----------------  -----------------  -----------------  -----------------
         I            3.050107043967    -0.130195106032    -0.000274492573   126.904471900000
         I           -3.050106956033    -0.130195106032    -0.000274492573   126.904471900000
         C            0.000000043967     0.167885893968    -0.000273492573    12.000000000000
         C            1.242248043967     1.049168893968    -0.000274492573    12.000000000000
         C           -1.242248956033     1.049168893968    -0.000274492573    12.000000000000
         H            0.000000043967    -0.479619106032     0.880298507427     1.007825032230
         H            0.000000043967    -0.420380306032    -0.800278692573     1.007825032230
         H            1.298477043967     1.676143893968    -0.890733492573     1.007825032230
         H            1.298478043967     1.676144893968     0.890183507427     1.007825032230
         H           -1.298477956033     1.676143893968    -0.890733492573     1.007825032230
         H           -1.298477956033     1.676143893968     0.890184507427     1.007825032230

  Basis Set: AUG-CC-PVTZ
    Blend: AUG-CC-PVTZ
  Basis Set: (AUG-CC-PVTZ AUX)
    Blend: AUG-CC-PVTZ-JKFIT + DEF2-UNIVERSAL-JKFIT
	 Reference Energy          =    -706.4600881592216410 [Eh]
	 Singles Energy            =      -0.0000000000000000 [Eh]
	 Same-Spin Energy          =      -0.2801075582695713 [Eh]
	 Opposite-Spin Energy      =      -0.8100714746220405 [Eh]
	 Correlation Energy        =      -1.0901790328916119 [Eh]
	 Total Energy              =    -707.5502671921132105 [Eh]

	 ================> DF-SCS-MP2 Energies <==================
	-----------------------------------------------------------
	 SCS Same-Spin Scale       =       0.3333333333333333 [-]
	 SCS Opposite-Spin Scale   =       1.2000000000000000 [-]
	 SCS Same-Spin Energy      =      -0.0933691860898571 [Eh]
	 SCS Opposite-Spin Energy  =      -0.9720857695464487 [Eh]
	 SCS Correlation Energy    =      -1.0654549556363058 [Eh]
	 SCS Total Energy          =    -707.5255431148578964 [Eh]
	-----------------------------------------------------------

  Dipole Moment: [D]
     X:    -0.0000      Y:     1.5698      Z:    -0.0098     Total:     1.5698

*** Psi4 exiting successfully. Buy a developer a beer!
