                               Psi4 1.4a3.dev225

  ==> Input File <==

--------------------------------------------------------------------------
#psi4
#
memory 32 gb

molecule  {
0 1
  I        3.1634805     0.0226074    -0.0000002
  I       -3.0501070    -0.1728260     0.0000000
  C        0.0000000     0.1252550     0.0000010
  C        1.2422480     1.0065380     0.0000000
  C       -1.2422490     1.0065380     0.0000000
  H        0.0000000    -0.5222500     0.8805730
  H        0.0000000    -0.5222520    -0.8805680
  H        1.2984770     1.6335130    -0.8904590
  H        1.2984780     1.6335140     0.8904580
  H       -1.2984780     1.6335130    -0.8904590
  H       -1.2984780     1.6335130     0.8904590
units angstrom
no_reorient  #important for SAPT in psi4, default
symmetry c1  #important for SAPT in psi4, default
}

set PROPERTIES_ORIGIN ["COM"]
properties('MP2/aug-cc-pvtz', properties = ['dipole'])
--------------------------------------------------------------------------

    Molecular point group: c1
  Charge       = 0
  Multiplicity = 1
  Basis Set: AUG-CC-PVTZ
    Blend: AUG-CC-PVTZ
  Basis Set: (AUG-CC-PVTZ AUX)
    Blend: AUG-CC-PVTZ-JKFIT + DEF2-UNIVERSAL-JKFIT

    Orbital Energies [Eh]
    ---------------------

    Doubly Occupied:

       1A    -11.299798     2A    -11.297874     3A    -11.263271
       4A     -7.718528     5A     -7.717554     6A     -5.550010
       7A     -5.549021     8A     -5.540740     9A     -5.540675
      10A     -5.539802    11A     -5.539679    12A     -2.279332
      13A     -2.278332    14A     -2.274827    15A     -2.274761
      16A     -2.273869    17A     -2.273753    18A     -2.264491
      19A     -2.264490    20A     -2.263535    21A     -2.263531
      22A     -1.109050    23A     -0.994133    24A     -0.898479
      25A     -0.831405    26A     -0.820382    27A     -0.684554
      28A     -0.603171    29A     -0.596237    30A     -0.571236
      31A     -0.522391    32A     -0.473588    33A     -0.434504
      34A     -0.372072    35A     -0.368317    36A     -0.364880
      37A     -0.362905

  @DF-RHF Final Energy:  -706.46489364578224

   => Energetics <=

    Nuclear Repulsion Energy =            330.0010709127376458
    One-Electron Energy =               -1842.3815766991842793
    Two-Electron Energy =                 805.9156121406642797
    Total Energy =                       -706.4648936457822401
  Basis Set: (AUG-CC-PVTZ AUX)
    Blend: AUG-CC-PVTZ-RI + DEF2-QZVPP-RI
    Molecular point group: c1

    Geometry (in Angstrom), charge = 0, multiplicity = 1:

       Center              X                  Y                   Z               Mass
    ------------   -----------------  -----------------  -----------------  -----------------
         I            3.114850097736    -0.018389136007    -0.000000168398   126.904471900000
         I           -3.098737402264    -0.213822536007     0.000000031602   126.904471900000
         C           -0.048630402264     0.084258463993     0.000001031602    12.000000000000
         C            1.193617597736     0.965541463993     0.000000031602    12.000000000000
         C           -1.290879402264     0.965541463993     0.000000031602    12.000000000000
         H           -0.048630402264    -0.563246536007     0.880573031602     1.007825032230
         H           -0.048630402264    -0.563248536007    -0.880567968398     1.007825032230
         H            1.249846597736     1.592516463993    -0.890458968398     1.007825032230
         H            1.249847597736     1.592517463993     0.890458031602     1.007825032230
         H           -1.347108402264     1.592516463993    -0.890458968398     1.007825032230
         H           -1.347108402264     1.592516463993     0.890459031602     1.007825032230

  Basis Set: AUG-CC-PVTZ
    Blend: AUG-CC-PVTZ
  Basis Set: (AUG-CC-PVTZ AUX)
    Blend: AUG-CC-PVTZ-JKFIT + DEF2-UNIVERSAL-JKFIT
	 Reference Energy          =    -706.4648936457822401 [Eh]
	 Singles Energy            =      -0.0000000000000000 [Eh]
	 Same-Spin Energy          =      -0.2800403596274735 [Eh]
	 Opposite-Spin Energy      =      -0.8104166392410015 [Eh]
	 Correlation Energy        =      -1.0904569988684751 [Eh]
	 Total Energy              =    -707.5553506446507299 [Eh]

	 ================> DF-SCS-MP2 Energies <==================
	-----------------------------------------------------------
	 SCS Same-Spin Scale       =       0.3333333333333333 [-]
	 SCS Opposite-Spin Scale   =       1.2000000000000000 [-]
	 SCS Same-Spin Energy      =      -0.0933467865424912 [Eh]
	 SCS Opposite-Spin Energy  =      -0.9724999670892017 [Eh]
	 SCS Correlation Energy    =      -1.0658467536316929 [Eh]
	 SCS Total Energy          =    -707.5307403994139577 [Eh]
	-----------------------------------------------------------

  Dipole Moment: [D]
     X:    -0.1184      Y:     1.4847      Z:     0.0000     Total:     1.4895

*** Psi4 exiting successfully. Buy a developer a beer!
