                               Psi4 1.4a3.dev225

  ==> Input File <==

--------------------------------------------------------------------------
#psi4
#
memory 32 gb

molecule  {
0 1
  I        3.0501070    -0.1728260     0.0000000
  I       -3.0501070    -0.1728260     0.0000000
  C        0.0000000     0.1252550     0.0000010
  C        1.2422480     1.0065380     0.0000000
  C       -1.1880644     1.0684958    -0.1365355
  H        0.0000000    -0.5222500     0.8805730
  H        0.0000000    -0.5222520    -0.8805680
  H        1.2984770     1.6335130    -0.8904590
  H        1.2984780     1.6335140     0.8904580
  H       -1.2984780     1.6335130    -0.8904590
  H       -1.2984780     1.6335130     0.8904590
units angstrom
no_reorient  #important for SAPT in psi4, default
symmetry c1  #important for SAPT in psi4, default
}

set PROPERTIES_ORIGIN ["COM"]
properties('MP2/aug-cc-pvtz', properties = ['dipole'])
--------------------------------------------------------------------------

    Molecular point group: c1
  Charge       = 0
  Multiplicity = 1
  Basis Set: AUG-CC-PVTZ
    Blend: AUG-CC-PVTZ
  Basis Set: (AUG-CC-PVTZ AUX)
    Blend: AUG-CC-PVTZ-JKFIT + DEF2-UNIVERSAL-JKFIT

    Orbital Energies [Eh]
    ---------------------

    Doubly Occupied:

       1A    -11.303704     2A    -11.300192     3A    -11.266693
       4A     -7.718359     5A     -7.712860     6A     -5.549799
       7A     -5.544091     8A     -5.540599     9A     -5.540531
      10A     -5.535130    11A     -5.535052    12A     -2.279117
      13A     -2.274643    14A     -2.274570    15A     -2.273010
      16A     -2.268957    17A     -2.268888    18A     -2.264380
      19A     -2.264380    20A     -2.258944    21A     -2.258940
      22A     -1.114928    23A     -0.994654    24A     -0.893476
      25A     -0.840701    26A     -0.828526    27A     -0.690710
      28A     -0.631723    29A     -0.587750    30A     -0.576088
      31A     -0.523570    32A     -0.469038    33A     -0.420928
      34A     -0.371171    35A     -0.368022    36A     -0.363602
      37A     -0.360009

  @DF-RHF Final Energy:  -706.43842195096465

   => Energetics <=

    Nuclear Repulsion Energy =            331.4481603753678201
    One-Electron Energy =               -1845.2376949407475877
    Two-Electron Energy =                 807.3511126144150012
    Total Energy =                       -706.4384219509646528
  Basis Set: (AUG-CC-PVTZ AUX)
    Blend: AUG-CC-PVTZ-RI + DEF2-QZVPP-RI
    Molecular point group: c1

    Geometry (in Angstrom), charge = 0, multiplicity = 1:

       Center              X                  Y                   Z               Mass
    ------------   -----------------  -----------------  -----------------  -----------------
         I            3.047909301034    -0.132506330019     0.005537864893   126.904471900000
         I           -3.052304698966    -0.132506330019     0.005537864893   126.904471900000
         C           -0.002197698966     0.165574669981     0.005538864893    12.000000000000
         C            1.240050301034     1.046857669981     0.005537864893    12.000000000000
         C           -1.190262098966     1.108815469981    -0.130997635107    12.000000000000
         H           -0.002197698966    -0.481930330019     0.886110864893     1.007825032230
         H           -0.002197698966    -0.481932330019    -0.875030135107     1.007825032230
         H            1.296279301034     1.673832669981    -0.884921135107     1.007825032230
         H            1.296280301034     1.673833669981     0.895995864893     1.007825032230
         H           -1.300675698966     1.673832669981    -0.884921135107     1.007825032230
         H           -1.300675698966     1.673832669981     0.895996864893     1.007825032230

  Basis Set: AUG-CC-PVTZ
    Blend: AUG-CC-PVTZ
  Basis Set: (AUG-CC-PVTZ AUX)
    Blend: AUG-CC-PVTZ-JKFIT + DEF2-UNIVERSAL-JKFIT
	 Reference Energy          =    -706.4384219509646528 [Eh]
	 Singles Energy            =      -0.0000000000000000 [Eh]
	 Same-Spin Energy          =      -0.2801557522741340 [Eh]
	 Opposite-Spin Energy      =      -0.8110997349379652 [Eh]
	 Correlation Energy        =      -1.0912554872120992 [Eh]
	 Total Energy              =    -707.5296774381768046 [Eh]

	 ================> DF-SCS-MP2 Energies <==================
	-----------------------------------------------------------
	 SCS Same-Spin Scale       =       0.3333333333333333 [-]
	 SCS Opposite-Spin Scale   =       1.2000000000000000 [-]
	 SCS Same-Spin Energy      =      -0.0933852507580447 [Eh]
	 SCS Opposite-Spin Energy  =      -0.9733196819255582 [Eh]
	 SCS Correlation Energy    =      -1.0667049326836029 [Eh]
	 SCS Total Energy          =    -707.5051268836482450 [Eh]
	-----------------------------------------------------------

  Dipole Moment: [D]
     X:     0.1719      Y:     1.6246      Z:    -0.0259     Total:     1.6339

*** Psi4 exiting successfully. Buy a developer a beer!
