                               Psi4 1.4a3.dev225

  ==> Input File <==

--------------------------------------------------------------------------
#psi4
#
memory 32 gb

molecule  {
0 1
  I        3.0501070    -0.1728260     0.0000000
  I       -3.0501070    -0.1728260     0.0000000
  C        0.0000000     0.1252550     0.0000010
  C        1.2422480     1.0065380     0.0000000
  C       -1.2422490     1.0065380     0.0000000
  H        0.0000000    -0.5222500     0.8805730
  H        0.0000000    -0.5222520    -0.8805680
  H        1.2984770     1.6335130    -0.8904590
  H        1.2995093     1.6450129     0.9067893
  H       -1.2984780     1.6335130    -0.8904590
  H       -1.2984780     1.6335130     0.8904590
units angstrom
no_reorient  #important for SAPT in psi4, default
symmetry c1  #important for SAPT in psi4, default
}

set PROPERTIES_ORIGIN ["COM"]
properties('MP2/aug-cc-pvtz', properties = ['dipole'])
--------------------------------------------------------------------------

    Molecular point group: c1
  Charge       = 0
  Multiplicity = 1
  Basis Set: AUG-CC-PVTZ
    Blend: AUG-CC-PVTZ
  Basis Set: (AUG-CC-PVTZ AUX)
    Blend: AUG-CC-PVTZ-JKFIT + DEF2-UNIVERSAL-JKFIT

    Orbital Energies [Eh]
    ---------------------

    Doubly Occupied:

       1A    -11.300720     2A    -11.298518     3A    -11.261978
       4A     -7.717688     5A     -7.717586     6A     -5.549153
       7A     -5.549043     8A     -5.539908     9A     -5.539847
      10A     -5.539811    11A     -5.539751    12A     -2.278474
      13A     -2.278361    14A     -2.273978    15A     -2.273915
      16A     -2.273871    17A     -2.273808    18A     -2.263672
      19A     -2.263672    20A     -2.263582    21A     -2.263581
      22A     -1.108983    23A     -0.992869    24A     -0.895108
      25A     -0.830588    26A     -0.821923    27A     -0.683439
      28A     -0.601222    29A     -0.596282    30A     -0.569818
      31A     -0.521041    32A     -0.474925    33A     -0.433637
      34A     -0.372099    35A     -0.368106    36A     -0.365239
      37A     -0.361885

  @DF-RHF Final Energy:  -706.46541348852782

   => Energetics <=

    Nuclear Repulsion Energy =            332.1782268503220621
    One-Electron Energy =               -1846.7711163813264648
    Two-Electron Energy =                 808.1274760424765873
    Total Energy =                       -706.4654134885278154
  Basis Set: (AUG-CC-PVTZ AUX)
    Blend: AUG-CC-PVTZ-RI + DEF2-QZVPP-RI
    Molecular point group: c1

    Geometry (in Angstrom), charge = 0, multiplicity = 1:

       Center              X                  Y                   Z               Mass
    ------------   -----------------  -----------------  -----------------  -----------------
         I            3.050103530871    -0.130032474552    -0.000055686314   126.904471900000
         I           -3.050110469129    -0.130032474552    -0.000055686314   126.904471900000
         C           -0.000003469129     0.168048525448    -0.000054686314    12.000000000000
         C            1.242244530871     1.049331525448    -0.000055686314    12.000000000000
         C           -1.242252469129     1.049331525448    -0.000055686314    12.000000000000
         H           -0.000003469129    -0.479456474552     0.880517313686     1.007825032230
         H           -0.000003469129    -0.479458474552    -0.880623686314     1.007825032230
         H            1.298473530871     1.676306525448    -0.890514686314     1.007825032230
         H            1.299505830871     1.687806425448     0.906733613686     1.007825032230
         H           -1.298481469129     1.676306525448    -0.890514686314     1.007825032230
         H           -1.298481469129     1.676306525448     0.890403313686     1.007825032230

  Basis Set: AUG-CC-PVTZ
    Blend: AUG-CC-PVTZ
  Basis Set: (AUG-CC-PVTZ AUX)
    Blend: AUG-CC-PVTZ-JKFIT + DEF2-UNIVERSAL-JKFIT
	 Reference Energy          =    -706.4654134885278154 [Eh]
	 Singles Energy            =      -0.0000000000000000 [Eh]
	 Same-Spin Energy          =      -0.2802618714615127 [Eh]
	 Opposite-Spin Energy      =      -0.8108095428313187 [Eh]
	 Correlation Energy        =      -1.0910714142928315 [Eh]
	 Total Energy              =    -707.5564849028206709 [Eh]

	 ================> DF-SCS-MP2 Energies <==================
	-----------------------------------------------------------
	 SCS Same-Spin Scale       =       0.3333333333333333 [-]
	 SCS Opposite-Spin Scale   =       1.2000000000000000 [-]
	 SCS Same-Spin Energy      =      -0.0934206238205042 [Eh]
	 SCS Opposite-Spin Energy  =      -0.9729714513975823 [Eh]
	 SCS Correlation Energy    =      -1.0663920752180867 [Eh]
	 SCS Total Energy          =    -707.5318055637459338 [Eh]
	-----------------------------------------------------------

  Dipole Moment: [D]
     X:     0.0017      Y:     1.5745      Z:    -0.0011     Total:     1.5745

*** Psi4 exiting successfully. Buy a developer a beer!
