                               Psi4 1.4a3.dev225

  ==> Input File <==

--------------------------------------------------------------------------
#psi4
#
memory 32 gb

molecule  {
0 1
  I        2.3447600     0.0000010    -0.2524410
  C       -0.5542210    -0.0000040     0.7369510
  C       -2.5036070    -1.2253050    -0.0650320
  C       -2.5036000     1.2253100    -0.0650260
  C       -1.2095060     1.2097510     0.4687330
  C       -1.2095100    -1.2097530     0.4687280
  C       -3.1346270     0.0000030    -0.3245500
  C        0.8217770    -0.0000070     1.3091860
  C       -3.2172620    -2.5291670    -0.3215690
  C       -3.2172620     2.5291680    -0.3215670
  H       -0.6945570     2.1508370     0.6613300
  H       -0.6945650    -2.1508430     0.6613200
  H       -4.1859979     0.0000072    -0.7655657
  H        1.0275050    -0.8925940     1.8992530
  H        1.0275050     0.8925750     1.8992610
  H       -3.9060370    -2.4424280    -1.1656010
  H       -3.8011950    -2.8333800     0.5532780
  H       -2.5084500    -3.3308180    -0.5430300
  H       -3.8015320     2.8331670     0.5531290
  H       -2.5084330     3.3309140    -0.5426230
  H       -3.9057300     2.4425370    -1.1658600
units angstrom
no_reorient  #important for SAPT in psi4, default
symmetry c1  #important for SAPT in psi4, default
}

set PROPERTIES_ORIGIN ["COM"]
properties('MP2/aug-cc-pvtz', properties = ['dipole'])
--------------------------------------------------------------------------

    Molecular point group: c1
  Charge       = 0
  Multiplicity = 1
  Basis Set: AUG-CC-PVTZ
    Blend: AUG-CC-PVTZ
  Basis Set: (AUG-CC-PVTZ AUX)
    Blend: AUG-CC-PVTZ-JKFIT + DEF2-UNIVERSAL-JKFIT

    Orbital Energies [Eh]
    ---------------------

    Doubly Occupied:

       1A    -11.290522     2A    -11.254385     3A    -11.249853
       4A    -11.249811     5A    -11.237091     6A    -11.233700
       7A    -11.233656     8A    -11.228282     9A    -11.228282
      10A     -7.706329    11A     -5.537776    12A     -5.528494
      13A     -5.528483    14A     -2.266990    15A     -2.262575
      16A     -2.262551    17A     -2.252289    18A     -2.252288
      19A     -1.165370    20A     -1.072724    21A     -1.061427
      22A     -0.969980    23A     -0.937059    24A     -0.933182
      25A     -0.848542    26A     -0.791363    27A     -0.781843
      28A     -0.677917    29A     -0.667306    30A     -0.616498
      31A     -0.588885    32A     -0.586021    33A     -0.573484
      34A     -0.572219    35A     -0.564467    36A     -0.552468
      37A     -0.526038    38A     -0.510677    39A     -0.487866
      40A     -0.485863    41A     -0.444820    42A     -0.359593
      43A     -0.357350    44A     -0.325264    45A     -0.319223

  @DF-RHF Final Energy:  -642.00544619238735

   => Energetics <=

    Nuclear Repulsion Energy =            614.3731509245154712
    One-Electron Energy =               -2203.5955749757063131
    Two-Electron Energy =                 947.2169778588036024
    Total Energy =                       -642.0054461923873532
  Basis Set: (AUG-CC-PVTZ AUX)
    Blend: AUG-CC-PVTZ-RI + DEF2-QZVPP-RI
    Molecular point group: c1

    Geometry (in Angstrom), charge = 0, multiplicity = 1:

       Center              X                  Y                   Z               Mass
    ------------   -----------------  -----------------  -----------------  -----------------
         I            2.049269761507     0.000000784941    -0.222583140694   126.904471900000
         C           -0.849711238493    -0.000004215059     0.766808859306    12.000000000000
         C           -2.799097238493    -1.225305215059    -0.035174140694    12.000000000000
         C           -2.799090238493     1.225309784941    -0.035168140694    12.000000000000
         C           -1.504996238493     1.209750784941     0.498590859306    12.000000000000
         C           -1.505000238493    -1.209753215059     0.498585859306    12.000000000000
         C           -3.430117238493     0.000002784941    -0.294692140694    12.000000000000
         C            0.526286761507    -0.000007215059     1.339043859306    12.000000000000
         C           -3.512752238493    -2.529167215059    -0.291711140694    12.000000000000
         C           -3.512752238493     2.529167784941    -0.291709140694    12.000000000000
         H           -0.990047238493     2.150836784941     0.691187859306     1.007825032230
         H           -0.990055238493    -2.150843215059     0.691177859306     1.007825032230
         H           -4.481488138493     0.000006984941    -0.735707840694     1.007825032230
         H            0.732014761507    -0.892594215059     1.929110859306     1.007825032230
         H            0.732014761507     0.892574784941     1.929118859306     1.007825032230
         H           -4.201527238493    -2.442428215059    -1.135743140694     1.007825032230
         H           -4.096685238493    -2.833380215059     0.583135859306     1.007825032230
         H           -2.803940238493    -3.330818215059    -0.513172140694     1.007825032230
         H           -4.097022238493     2.833166784941     0.582986859306     1.007825032230
         H           -2.803923238493     3.330913784941    -0.512765140694     1.007825032230
         H           -4.201220238493     2.442536784941    -1.136002140694     1.007825032230

  Basis Set: AUG-CC-PVTZ
    Blend: AUG-CC-PVTZ
  Basis Set: (AUG-CC-PVTZ AUX)
    Blend: AUG-CC-PVTZ-JKFIT + DEF2-UNIVERSAL-JKFIT
	 Reference Energy          =    -642.0054461923873532 [Eh]
	 Singles Energy            =      -0.0000000000000000 [Eh]
	 Same-Spin Energy          =      -0.4677026705219246 [Eh]
	 Opposite-Spin Energy      =      -1.4530127916822830 [Eh]
	 Correlation Energy        =      -1.9207154622042077 [Eh]
	 Total Energy              =    -643.9261616545915103 [Eh]

	 ================> DF-SCS-MP2 Energies <==================
	-----------------------------------------------------------
	 SCS Same-Spin Scale       =       0.3333333333333333 [-]
	 SCS Opposite-Spin Scale   =       1.2000000000000000 [-]
	 SCS Same-Spin Energy      =      -0.1559008901739748 [Eh]
	 SCS Opposite-Spin Energy  =      -1.7436153500187397 [Eh]
	 SCS Correlation Energy    =      -1.8995162401927146 [Eh]
	 SCS Total Energy          =    -643.9049624325800778 [Eh]
	-----------------------------------------------------------

  Dipole Moment: [D]
     X:    -2.0750      Y:    -0.0000      Z:     0.8945     Total:     2.2596

*** Psi4 exiting successfully. Buy a developer a beer!
