                               Psi4 1.4a3.dev225

  ==> Input File <==

--------------------------------------------------------------------------
#psi4
#
memory 32 gb

molecule  {
0 1
  I        2.3447600     0.0000010    -0.2524410
  C       -0.5542210    -0.0000040     0.7369510
  C       -2.5036070    -1.2253050    -0.0650320
  C       -2.5036000     1.2253100    -0.0650260
  C       -1.2095060     1.2097510     0.4687330
  C       -1.2095100    -1.2097530     0.4687280
  C       -3.1346270     0.0000030    -0.3245500
  C        0.8217770    -0.0000070     1.3091860
  C       -3.2172620    -2.5291670    -0.3215690
  C       -3.2172620     2.5291680    -0.3215670
  H       -0.6945570     2.1508370     0.6613300
  H       -0.6945650    -2.1508430     0.6613200
  H       -4.1398900     0.0000070    -0.7462250
  H        1.0275050    -0.8925940     1.8992530
  H        1.0275050     0.8925750     1.8992610
  H       -3.9060370    -2.4424280    -1.1656010
  H       -3.8011950    -2.8333800     0.5532780
  H       -2.5733149    -3.2574572    -0.5227636
  H       -3.8015320     2.8331670     0.5531290
  H       -2.5084330     3.3309140    -0.5426230
  H       -3.9057300     2.4425370    -1.1658600
units angstrom
no_reorient  #important for SAPT in psi4, default
symmetry c1  #important for SAPT in psi4, default
}

set PROPERTIES_ORIGIN ["COM"]
properties('MP2/aug-cc-pvtz', properties = ['dipole'])
--------------------------------------------------------------------------

    Molecular point group: c1
  Charge       = 0
  Multiplicity = 1
  Basis Set: AUG-CC-PVTZ
    Blend: AUG-CC-PVTZ
  Basis Set: (AUG-CC-PVTZ AUX)
    Blend: AUG-CC-PVTZ-JKFIT + DEF2-UNIVERSAL-JKFIT

    Orbital Energies [Eh]
    ---------------------

    Doubly Occupied:

       1A    -11.290276     2A    -11.254007     3A    -11.248915
       4A    -11.248511     5A    -11.233132     6A    -11.232979
       7A    -11.230631     8A    -11.228062     9A    -11.215993
      10A     -7.706127    11A     -5.537571    12A     -5.528294
      13A     -5.528284    14A     -2.266784    15A     -2.262371
      16A     -2.262348    17A     -2.252092    18A     -2.252091
      19A     -1.165135    20A     -1.073389    21A     -1.062774
      22A     -0.972084    23A     -0.943162    24A     -0.934316
      25A     -0.849027    26A     -0.793467    27A     -0.783003
      28A     -0.682354    29A     -0.668321    30A     -0.617986
      31A     -0.592351    32A     -0.587521    33A     -0.577300
      34A     -0.572625    35A     -0.565673    36A     -0.558989
      37A     -0.529206    38A     -0.511584    39A     -0.488877
      40A     -0.485572    41A     -0.444535    42A     -0.359366
      43A     -0.357157    44A     -0.324831    45A     -0.318644

  @DF-RHF Final Energy:  -642.00181188497311

   => Energetics <=

    Nuclear Repulsion Energy =            615.0857833914060393
    One-Electron Energy =               -2204.9797485458543633
    Two-Electron Energy =                 947.8921532694752159
    Total Energy =                       -642.0018118849731081
  Basis Set: (AUG-CC-PVTZ AUX)
    Blend: AUG-CC-PVTZ-RI + DEF2-QZVPP-RI
    Molecular point group: c1

    Geometry (in Angstrom), charge = 0, multiplicity = 1:

       Center              X                  Y                   Z               Mass
    ------------   -----------------  -----------------  -----------------  -----------------
         I            2.049346609070    -0.000299773963    -0.222745411266   126.904471900000
         C           -0.849634390930    -0.000304773963     0.766646588734    12.000000000000
         C           -2.799020390930    -1.225605773963    -0.035336411266    12.000000000000
         C           -2.799013390930     1.225009226037    -0.035330411266    12.000000000000
         C           -1.504919390930     1.209450226037     0.498428588734    12.000000000000
         C           -1.504923390930    -1.210053773963     0.498423588734    12.000000000000
         C           -3.430040390930    -0.000297773963    -0.294854411266    12.000000000000
         C            0.526363609070    -0.000307773963     1.338881588734    12.000000000000
         C           -3.512675390930    -2.529467773963    -0.291873411266    12.000000000000
         C           -3.512675390930     2.528867226037    -0.291871411266    12.000000000000
         H           -0.989970390930     2.150536226037     0.691025588734     1.007825032230
         H           -0.989978390930    -2.151143773963     0.691015588734     1.007825032230
         H           -4.435303390930    -0.000293773963    -0.716529411266     1.007825032230
         H            0.732091609070    -0.892894773963     1.928948588734     1.007825032230
         H            0.732091609070     0.892274226037     1.928956588734     1.007825032230
         H           -4.201450390930    -2.442728773963    -1.135905411266     1.007825032230
         H           -4.096608390930    -2.833680773963     0.582973588734     1.007825032230
         H           -2.868728290930    -3.257757973963    -0.493068011266     1.007825032230
         H           -4.096945390930     2.832866226037     0.582824588734     1.007825032230
         H           -2.803846390930     3.330613226037    -0.512927411266     1.007825032230
         H           -4.201143390930     2.442236226037    -1.136164411266     1.007825032230

  Basis Set: AUG-CC-PVTZ
    Blend: AUG-CC-PVTZ
  Basis Set: (AUG-CC-PVTZ AUX)
    Blend: AUG-CC-PVTZ-JKFIT + DEF2-UNIVERSAL-JKFIT
	 Reference Energy          =    -642.0018118849731081 [Eh]
	 Singles Energy            =      -0.0000000000000000 [Eh]
	 Same-Spin Energy          =      -0.4675645169576346 [Eh]
	 Opposite-Spin Energy      =      -1.4520462828953560 [Eh]
	 Correlation Energy        =      -1.9196107998529905 [Eh]
	 Total Energy              =    -643.9214226848260978 [Eh]

	 ================> DF-SCS-MP2 Energies <==================
	-----------------------------------------------------------
	 SCS Same-Spin Scale       =       0.3333333333333333 [-]
	 SCS Opposite-Spin Scale   =       1.2000000000000000 [-]
	 SCS Same-Spin Energy      =      -0.1558548389858782 [Eh]
	 SCS Opposite-Spin Energy  =      -1.7424555394744272 [Eh]
	 SCS Correlation Energy    =      -1.8983103784603055 [Eh]
	 SCS Total Energy          =    -643.9001222634334454 [Eh]
	-----------------------------------------------------------

  Dipole Moment: [D]
     X:    -2.0934      Y:    -0.0470      Z:     0.8764     Total:     2.2699

*** Psi4 exiting successfully. Buy a developer a beer!
