                               Psi4 1.4a3.dev225

  ==> Input File <==

--------------------------------------------------------------------------
#psi4
#
memory 32 gb

molecule  {
0 1
  I        2.3447600     0.0000010    -0.2524410
  C       -0.5542210    -0.0000040     0.7369510
  C       -2.5036070    -1.2253050    -0.0650320
  C       -2.5036000     1.2253100    -0.0650260
  C       -1.2095060     1.2097510     0.4687330
  C       -1.2095100    -1.2097530     0.4687280
  C       -3.1346270     0.0000030    -0.3245500
  C        0.8217770    -0.0000070     1.3091860
  C       -3.1699489    -2.4427250    -0.3045614
  C       -3.2172620     2.5291680    -0.3215670
  H       -0.6945570     2.1508370     0.6613300
  H       -0.6945650    -2.1508430     0.6613200
  H       -4.1398900     0.0000070    -0.7462250
  H        1.0275050    -0.8925940     1.8992530
  H        1.0275050     0.8925750     1.8992610
  H       -3.9060370    -2.4424280    -1.1656010
  H       -3.8011950    -2.8333800     0.5532780
  H       -2.5084500    -3.3308180    -0.5430300
  H       -3.8015320     2.8331670     0.5531290
  H       -2.5084330     3.3309140    -0.5426230
  H       -3.9057300     2.4425370    -1.1658600
units angstrom
no_reorient  #important for SAPT in psi4, default
symmetry c1  #important for SAPT in psi4, default
}

set PROPERTIES_ORIGIN ["COM"]
properties('MP2/aug-cc-pvtz', properties = ['dipole'])
--------------------------------------------------------------------------

    Molecular point group: c1
  Charge       = 0
  Multiplicity = 1
  Basis Set: AUG-CC-PVTZ
    Blend: AUG-CC-PVTZ
  Basis Set: (AUG-CC-PVTZ AUX)
    Blend: AUG-CC-PVTZ-JKFIT + DEF2-UNIVERSAL-JKFIT

    Orbital Energies [Eh]
    ---------------------

    Doubly Occupied:

       1A    -11.290569     2A    -11.254455     3A    -11.249564
       4A    -11.244142     5A    -11.233639     6A    -11.233484
       7A    -11.232633     8A    -11.231485     9A    -11.228540
      10A     -7.706393    11A     -5.537843    12A     -5.528556
      13A     -5.528546    14A     -2.267057    15A     -2.262639
      16A     -2.262616    17A     -2.252349    18A     -2.252349
      19A     -1.168827    20A     -1.079573    21A     -1.067572
      22A     -0.971133    23A     -0.938562    24A     -0.931457
      25A     -0.849582    26A     -0.790611    27A     -0.783850
      28A     -0.682995    29A     -0.669377    30A     -0.628549
      31A     -0.591342    32A     -0.584824    33A     -0.579517
      34A     -0.569009    35A     -0.564418    36A     -0.550744
      37A     -0.515295    38A     -0.508439    39A     -0.495392
      40A     -0.483854    41A     -0.442378    42A     -0.359550
      43A     -0.357330    44A     -0.323448    45A     -0.318473

  @DF-RHF Final Energy:  -641.99575961639187

   => Energetics <=

    Nuclear Repulsion Energy =            616.5322851438622820
    One-Electron Energy =               -2207.8501690248426712
    Two-Electron Energy =                 949.3221242645885241
    Total Energy =                       -641.9957596163918652
  Basis Set: (AUG-CC-PVTZ AUX)
    Blend: AUG-CC-PVTZ-RI + DEF2-QZVPP-RI
    Molecular point group: c1

    Geometry (in Angstrom), charge = 0, multiplicity = 1:

       Center              X                  Y                   Z               Mass
    ------------   -----------------  -----------------  -----------------  -----------------
         I            2.046772812325    -0.004216059202    -0.223492050585   126.904471900000
         C           -0.852208187675    -0.004221059202     0.765899949415    12.000000000000
         C           -2.801594187675    -1.229522059202    -0.036083050585    12.000000000000
         C           -2.801587187675     1.221092940798    -0.036077050585    12.000000000000
         C           -1.507493187675     1.205533940798     0.497681949415    12.000000000000
         C           -1.507497187675    -1.213970059202     0.497676949415    12.000000000000
         C           -3.432614187675    -0.004214059202    -0.295601050585    12.000000000000
         C            0.523789812325    -0.004224059202     1.338134949415    12.000000000000
         C           -3.467936087675    -2.446942059202    -0.275612450585    12.000000000000
         C           -3.515249187675     2.524950940798    -0.292618050585    12.000000000000
         H           -0.992544187675     2.146619940798     0.690278949415     1.007825032230
         H           -0.992552187675    -2.155060059202     0.690268949415     1.007825032230
         H           -4.437877187675    -0.004210059202    -0.717276050585     1.007825032230
         H            0.729517812325    -0.896811059202     1.928201949415     1.007825032230
         H            0.729517812325     0.888357940798     1.928209949415     1.007825032230
         H           -4.204024187675    -2.446645059202    -1.136652050585     1.007825032230
         H           -4.099182187675    -2.837597059202     0.582226949415     1.007825032230
         H           -2.806437187675    -3.335035059202    -0.514081050585     1.007825032230
         H           -4.099519187675     2.828949940798     0.582077949415     1.007825032230
         H           -2.806420187675     3.326696940798    -0.513674050585     1.007825032230
         H           -4.203717187675     2.438319940798    -1.136911050585     1.007825032230

  Basis Set: AUG-CC-PVTZ
    Blend: AUG-CC-PVTZ
  Basis Set: (AUG-CC-PVTZ AUX)
    Blend: AUG-CC-PVTZ-JKFIT + DEF2-UNIVERSAL-JKFIT
	 Reference Energy          =    -641.9957596163918652 [Eh]
	 Singles Energy            =      -0.0000000000000000 [Eh]
	 Same-Spin Energy          =      -0.4688398314918655 [Eh]
	 Opposite-Spin Energy      =      -1.4540443534591643 [Eh]
	 Correlation Energy        =      -1.9228841849510299 [Eh]
	 Total Energy              =    -643.9186438013429097 [Eh]

	 ================> DF-SCS-MP2 Energies <==================
	-----------------------------------------------------------
	 SCS Same-Spin Scale       =       0.3333333333333333 [-]
	 SCS Opposite-Spin Scale   =       1.2000000000000000 [-]
	 SCS Same-Spin Energy      =      -0.1562799438306218 [Eh]
	 SCS Opposite-Spin Energy  =      -1.7448532241509971 [Eh]
	 SCS Correlation Energy    =      -1.9011331679816190 [Eh]
	 SCS Total Energy          =    -643.8968927843734491 [Eh]
	-----------------------------------------------------------

  Dipole Moment: [D]
     X:    -2.0951      Y:     0.0027      Z:     0.8884     Total:     2.2757

*** Psi4 exiting successfully. Buy a developer a beer!
