                               Psi4 1.4a3.dev225

  ==> Input File <==

--------------------------------------------------------------------------
#psi4
#
memory 32 gb

molecule  {
0 1
  I        2.3447600     0.0000010    -0.2524410
  C       -0.5542210    -0.0000040     0.7369510
  C       -2.5036070    -1.2253050    -0.0650320
  C       -2.5036000     1.2253100    -0.0650260
  C       -1.2095060     1.2097510     0.4687330
  C       -1.2095100    -1.2097530     0.4687280
  C       -3.2246141     0.1747390    -0.3615588
  C        0.8217770    -0.0000070     1.3091860
  C       -3.2172620    -2.5291670    -0.3215690
  C       -3.2172620     2.5291680    -0.3215670
  H       -0.6945570     2.1508370     0.6613300
  H       -0.6945650    -2.1508430     0.6613200
  H       -4.1398900     0.0000070    -0.7462250
  H        1.0275050    -0.8925940     1.8992530
  H        1.0275050     0.8925750     1.8992610
  H       -3.9060370    -2.4424280    -1.1656010
  H       -3.8011950    -2.8333800     0.5532780
  H       -2.5084500    -3.3308180    -0.5430300
  H       -3.8015320     2.8331670     0.5531290
  H       -2.5084330     3.3309140    -0.5426230
  H       -3.9057300     2.4425370    -1.1658600
units angstrom
no_reorient  #important for SAPT in psi4, default
symmetry c1  #important for SAPT in psi4, default
}

set PROPERTIES_ORIGIN ["COM"]
properties('MP2/aug-cc-pvtz', properties = ['dipole'])
--------------------------------------------------------------------------

    Molecular point group: c1
  Charge       = 0
  Multiplicity = 1
  Basis Set: AUG-CC-PVTZ
    Blend: AUG-CC-PVTZ
  Basis Set: (AUG-CC-PVTZ AUX)
    Blend: AUG-CC-PVTZ-JKFIT + DEF2-UNIVERSAL-JKFIT

    Orbital Energies [Eh]
    ---------------------

    Doubly Occupied:

       1A    -11.291089     2A    -11.265590     3A    -11.257389
       4A    -11.238429     5A    -11.233664     6A    -11.231499
       7A    -11.231367     8A    -11.230543     9A    -11.221748
      10A     -7.707314    11A     -5.538808    12A     -5.529458
      13A     -5.529431    14A     -2.268025    15A     -2.263586
      16A     -2.263552    17A     -2.253213    18A     -2.253213
      19A     -1.161439    20A     -1.081392    21A     -1.052520
      22A     -0.971220    23A     -0.937193    24A     -0.930997
      25A     -0.852368    26A     -0.787961    27A     -0.780996
      28A     -0.694211    29A     -0.665701    30A     -0.623889
      31A     -0.589221    32A     -0.584133    33A     -0.574597
      34A     -0.572575    35A     -0.562792    36A     -0.561769
      37A     -0.524962    38A     -0.515908    39A     -0.497855
      40A     -0.447779    41A     -0.441612    42A     -0.361087
      43A     -0.357992    44A     -0.338197    45A     -0.305612

  @DF-RHF Final Energy:  -641.96614976403168

   => Energetics <=

    Nuclear Repulsion Energy =            613.0784572413153910
    One-Electron Energy =               -2200.9214267345760163
    Two-Electron Energy =                 945.8768197292289415
    Total Energy =                       -641.9661497640316838
  Basis Set: (AUG-CC-PVTZ AUX)
    Blend: AUG-CC-PVTZ-RI + DEF2-QZVPP-RI
    Molecular point group: c1

    Geometry (in Angstrom), charge = 0, multiplicity = 1:

       Center              X                  Y                   Z               Mass
    ------------   -----------------  -----------------  -----------------  -----------------
         I            2.053470640426    -0.008523249100    -0.220857002990   126.904471900000
         C           -0.845510359574    -0.008528249100     0.768534997010    12.000000000000
         C           -2.794896359574    -1.233829249100    -0.033448002990    12.000000000000
         C           -2.794889359574     1.216785750900    -0.033442002990    12.000000000000
         C           -1.500795359574     1.201226750900     0.500316997010    12.000000000000
         C           -1.500799359574    -1.218277249100     0.500311997010    12.000000000000
         C           -3.515903459574     0.166214750900    -0.329974802990    12.000000000000
         C            0.530487640426    -0.008531249100     1.340769997010    12.000000000000
         C           -3.508551359574    -2.537691249100    -0.289985002990    12.000000000000
         C           -3.508551359574     2.520643750900    -0.289983002990    12.000000000000
         H           -0.985846359574     2.142312750900     0.692913997010     1.007825032230
         H           -0.985854359574    -2.159367249100     0.692903997010     1.007825032230
         H           -4.431179359574    -0.008517249100    -0.714641002990     1.007825032230
         H            0.736215640426    -0.901118249100     1.930836997010     1.007825032230
         H            0.736215640426     0.884050750900     1.930844997010     1.007825032230
         H           -4.197326359574    -2.450952249100    -1.134017002990     1.007825032230
         H           -4.092484359574    -2.841904249100     0.584861997010     1.007825032230
         H           -2.799739359574    -3.339342249100    -0.511446002990     1.007825032230
         H           -4.092821359574     2.824642750900     0.584712997010     1.007825032230
         H           -2.799722359574     3.322389750900    -0.511039002990     1.007825032230
         H           -4.197019359574     2.434012750900    -1.134276002990     1.007825032230

  Basis Set: AUG-CC-PVTZ
    Blend: AUG-CC-PVTZ
  Basis Set: (AUG-CC-PVTZ AUX)
    Blend: AUG-CC-PVTZ-JKFIT + DEF2-UNIVERSAL-JKFIT
	 Reference Energy          =    -641.9661497640316838 [Eh]
	 Singles Energy            =      -0.0000000000000000 [Eh]
	 Same-Spin Energy          =      -0.4670810649419609 [Eh]
	 Opposite-Spin Energy      =      -1.4545658339770613 [Eh]
	 Correlation Energy        =      -1.9216468989190223 [Eh]
	 Total Energy              =    -643.8877966629506773 [Eh]

	 ================> DF-SCS-MP2 Energies <==================
	-----------------------------------------------------------
	 SCS Same-Spin Scale       =       0.3333333333333333 [-]
	 SCS Opposite-Spin Scale   =       1.2000000000000000 [-]
	 SCS Same-Spin Energy      =      -0.1556936883139870 [Eh]
	 SCS Opposite-Spin Energy  =      -1.7454790007724734 [Eh]
	 SCS Correlation Energy    =      -1.9011726890864604 [Eh]
	 SCS Total Energy          =    -643.8673224531181631 [Eh]
	-----------------------------------------------------------

  Dipole Moment: [D]
     X:    -2.0668      Y:    -0.1384      Z:     0.8828     Total:     2.2518

*** Psi4 exiting successfully. Buy a developer a beer!
