                               Psi4 1.4a3.dev225

  ==> Input File <==

--------------------------------------------------------------------------
#psi4
#
memory 32 gb

molecule  {
0 1
  I        2.3983322     0.0000007    -0.1983384
  C       -0.5542210    -0.0000040     0.7369510
  C       -2.5036070    -1.2253050    -0.0650320
  C       -2.5036000     1.2253100    -0.0650260
  C       -1.2095060     1.2097510     0.4687330
  C       -1.2095100    -1.2097530     0.4687280
  C       -3.1346270     0.0000030    -0.3245500
  C        0.8217770    -0.0000070     1.3091860
  C       -3.2172620    -2.5291670    -0.3215690
  C       -3.2172620     2.5291680    -0.3215670
  H       -0.6945570     2.1508370     0.6613300
  H       -0.6945650    -2.1508430     0.6613200
  H       -4.1398900     0.0000070    -0.7462250
  H        1.0275050    -0.8925940     1.8992530
  H        1.0275050     0.8925750     1.8992610
  H       -3.9060370    -2.4424280    -1.1656010
  H       -3.8011950    -2.8333800     0.5532780
  H       -2.5084500    -3.3308180    -0.5430300
  H       -3.8015320     2.8331670     0.5531290
  H       -2.5084330     3.3309140    -0.5426230
  H       -3.9057300     2.4425370    -1.1658600
units angstrom
no_reorient  #important for SAPT in psi4, default
symmetry c1  #important for SAPT in psi4, default
}

set PROPERTIES_ORIGIN ["COM"]
properties('MP2/aug-cc-pvtz', properties = ['dipole'])
--------------------------------------------------------------------------

    Molecular point group: c1
  Charge       = 0
  Multiplicity = 1
  Basis Set: AUG-CC-PVTZ
    Blend: AUG-CC-PVTZ
  Basis Set: (AUG-CC-PVTZ AUX)
    Blend: AUG-CC-PVTZ-JKFIT + DEF2-UNIVERSAL-JKFIT

    Orbital Energies [Eh]
    ---------------------

    Doubly Occupied:

       1A    -11.290084     2A    -11.254483     3A    -11.249594
       4A    -11.249567     5A    -11.233850     6A    -11.233807
       7A    -11.231884     8A    -11.228577     9A    -11.228576
      10A     -7.706071    11A     -5.537503    12A     -5.528246
      13A     -5.528233    14A     -2.266711    15A     -2.262296
      16A     -2.262292    17A     -2.252048    18A     -2.252048
      19A     -1.165546    20A     -1.072995    21A     -1.061539
      22A     -0.970397    23A     -0.939059    24A     -0.933345
      25A     -0.849439    26A     -0.791314    27A     -0.782773
      28A     -0.682722    29A     -0.667291    30A     -0.617741
      31A     -0.588875    32A     -0.586257    33A     -0.573780
      34A     -0.573345    35A     -0.564586    36A     -0.556035
      37A     -0.526270    38A     -0.511143    39A     -0.489738
      40A     -0.485820    41A     -0.444490    42A     -0.358709
      43A     -0.356714    44A     -0.325344    45A     -0.320209

  @DF-RHF Final Energy:  -642.00802617196621

   => Energetics <=

    Nuclear Repulsion Energy =            613.1486435936893713
    One-Electron Energy =               -2201.1306437409625687
    Two-Electron Energy =                 945.9739739753068761
    Total Energy =                       -642.0080261719662076
  Basis Set: (AUG-CC-PVTZ AUX)
    Blend: AUG-CC-PVTZ-RI + DEF2-QZVPP-RI
    Molecular point group: c1

    Geometry (in Angstrom), charge = 0, multiplicity = 1:

       Center              X                  Y                   Z               Mass
    ------------   -----------------  -----------------  -----------------  -----------------
         I            2.075015605894     0.000000640527    -0.196470859834   126.904471900000
         C           -0.877537594106    -0.000004059473     0.738818540166    12.000000000000
         C           -2.826923594106    -1.225305059473    -0.063164459834    12.000000000000
         C           -2.826916594106     1.225309940527    -0.063158459834    12.000000000000
         C           -1.532822594106     1.209750940527     0.470600540166    12.000000000000
         C           -1.532826594106    -1.209753059473     0.470595540166    12.000000000000
         C           -3.457943594106     0.000002940527    -0.322682459834    12.000000000000
         C            0.498460405894    -0.000007059473     1.311053540166    12.000000000000
         C           -3.540578594106    -2.529167059473    -0.319701459834    12.000000000000
         C           -3.540578594106     2.529167940527    -0.319699459834    12.000000000000
         H           -1.017873594106     2.150836940527     0.663197540166     1.007825032230
         H           -1.017881594106    -2.150843059473     0.663187540166     1.007825032230
         H           -4.463206594106     0.000006940527    -0.744357459834     1.007825032230
         H            0.704188405894    -0.892594059473     1.901120540166     1.007825032230
         H            0.704188405894     0.892574940527     1.901128540166     1.007825032230
         H           -4.229353594106    -2.442428059473    -1.163733459834     1.007825032230
         H           -4.124511594106    -2.833380059473     0.555145540166     1.007825032230
         H           -2.831766594106    -3.330818059473    -0.541162459834     1.007825032230
         H           -4.124848594106     2.833166940527     0.554996540166     1.007825032230
         H           -2.831749594106     3.330913940527    -0.540755459834     1.007825032230
         H           -4.229046594106     2.442536940527    -1.163992459834     1.007825032230

  Basis Set: AUG-CC-PVTZ
    Blend: AUG-CC-PVTZ
  Basis Set: (AUG-CC-PVTZ AUX)
    Blend: AUG-CC-PVTZ-JKFIT + DEF2-UNIVERSAL-JKFIT
	 Reference Energy          =    -642.0080261719662076 [Eh]
	 Singles Energy            =      -0.0000000000000000 [Eh]
	 Same-Spin Energy          =      -0.4674370715672501 [Eh]
	 Opposite-Spin Energy      =      -1.4523682253230639 [Eh]
	 Correlation Energy        =      -1.9198052968903139 [Eh]
	 Total Energy              =    -643.9278314688565388 [Eh]

	 ================> DF-SCS-MP2 Energies <==================
	-----------------------------------------------------------
	 SCS Same-Spin Scale       =       0.3333333333333333 [-]
	 SCS Opposite-Spin Scale   =       1.2000000000000000 [-]
	 SCS Same-Spin Energy      =      -0.1558123571890833 [Eh]
	 SCS Opposite-Spin Energy  =      -1.7428418703876767 [Eh]
	 SCS Correlation Energy    =      -1.8986542275767599 [Eh]
	 SCS Total Energy          =    -643.9066803995430064 [Eh]
	-----------------------------------------------------------

  Dipole Moment: [D]
     X:    -2.1679      Y:    -0.0000      Z:     0.8569     Total:     2.3311

*** Psi4 exiting successfully. Buy a developer a beer!
