                               Psi4 1.4a3.dev225

  ==> Input File <==

--------------------------------------------------------------------------
#psi4
#
memory 32 gb

molecule  {
0 1
  I        2.3447600     0.0000010    -0.2524410
  C       -0.5542210    -0.0000040     0.7369510
  C       -2.5036070    -1.2253050    -0.0650320
  C       -2.4987251     1.3229024    -0.0650562
  C       -1.2095060     1.2097510     0.4687330
  C       -1.2095100    -1.2097530     0.4687280
  C       -3.1346270     0.0000030    -0.3245500
  C        0.8217770    -0.0000070     1.3091860
  C       -3.2172620    -2.5291670    -0.3215690
  C       -3.2172620     2.5291680    -0.3215670
  H       -0.6945570     2.1508370     0.6613300
  H       -0.6945650    -2.1508430     0.6613200
  H       -4.1398900     0.0000070    -0.7462250
  H        1.0275050    -0.8925940     1.8992530
  H        1.0275050     0.8925750     1.8992610
  H       -3.9060370    -2.4424280    -1.1656010
  H       -3.8011950    -2.8333800     0.5532780
  H       -2.5084500    -3.3308180    -0.5430300
  H       -3.8015320     2.8331670     0.5531290
  H       -2.5084330     3.3309140    -0.5426230
  H       -3.9057300     2.4425370    -1.1658600
units angstrom
no_reorient  #important for SAPT in psi4, default
symmetry c1  #important for SAPT in psi4, default
}

set PROPERTIES_ORIGIN ["COM"]
properties('MP2/aug-cc-pvtz', properties = ['dipole'])
--------------------------------------------------------------------------

    Molecular point group: c1
  Charge       = 0
  Multiplicity = 1
  Basis Set: AUG-CC-PVTZ
    Blend: AUG-CC-PVTZ
  Basis Set: (AUG-CC-PVTZ AUX)
    Blend: AUG-CC-PVTZ-JKFIT + DEF2-UNIVERSAL-JKFIT

    Orbital Energies [Eh]
    ---------------------

    Doubly Occupied:

       1A    -11.290478     2A    -11.255428     3A    -11.254409
       4A    -11.248264     5A    -11.238699     6A    -11.234337
       7A    -11.233861     8A    -11.227891     9A    -11.227095
      10A     -7.705612    11A     -5.537047    12A     -5.527784
      13A     -5.527773    14A     -2.266260    15A     -2.261851
      16A     -2.261829    17A     -2.251588    18A     -2.251588
      19A     -1.160638    20A     -1.074941    21A     -1.067243
      22A     -0.972857    23A     -0.937821    24A     -0.931011
      25A     -0.848580    26A     -0.787843    27A     -0.782656
      28A     -0.678183    29A     -0.665257    30A     -0.626201
      31A     -0.591408    32A     -0.591137    33A     -0.577268
      34A     -0.573822    35A     -0.563708    36A     -0.557813
      37A     -0.525232    38A     -0.511888    39A     -0.497678
      40A     -0.471322    41A     -0.439998    42A     -0.358426
      43A     -0.356683    44A     -0.326281    45A     -0.310450

  @DF-RHF Final Energy:  -641.99388632515729

   => Energetics <=

    Nuclear Repulsion Energy =            613.7593574872488489
    One-Electron Energy =               -2202.3302137433570351
    Two-Electron Energy =                 946.5769699309507814
    Total Energy =                       -641.9938863251572911
  Basis Set: (AUG-CC-PVTZ AUX)
    Blend: AUG-CC-PVTZ-RI + DEF2-QZVPP-RI
    Molecular point group: c1

    Geometry (in Angstrom), charge = 0, multiplicity = 1:

       Center              X                  Y                   Z               Mass
    ------------   -----------------  -----------------  -----------------  -----------------
         I            2.048843047973    -0.004760002055    -0.222660906453   126.904471900000
         C           -0.850137952027    -0.004765002055     0.766731093547    12.000000000000
         C           -2.799523952027    -1.230066002055    -0.035251906453    12.000000000000
         C           -2.794642052027     1.318141397945    -0.035276106453    12.000000000000
         C           -1.505422952027     1.204989997945     0.498513093547    12.000000000000
         C           -1.505426952027    -1.214514002055     0.498508093547    12.000000000000
         C           -3.430543952027    -0.004758002055    -0.294769906453    12.000000000000
         C            0.525860047973    -0.004768002055     1.338966093547    12.000000000000
         C           -3.513178952027    -2.533928002055    -0.291788906453    12.000000000000
         C           -3.513178952027     2.524406997945    -0.291786906453    12.000000000000
         H           -0.990473952027     2.146075997945     0.691110093547     1.007825032230
         H           -0.990481952027    -2.155604002055     0.691100093547     1.007825032230
         H           -4.435806952027    -0.004754002055    -0.716444906453     1.007825032230
         H            0.731588047973    -0.897355002055     1.929033093547     1.007825032230
         H            0.731588047973     0.887813997945     1.929041093547     1.007825032230
         H           -4.201953952027    -2.447189002055    -1.135820906453     1.007825032230
         H           -4.097111952027    -2.838141002055     0.583058093547     1.007825032230
         H           -2.804366952027    -3.335579002055    -0.513249906453     1.007825032230
         H           -4.097448952027     2.828405997945     0.582909093547     1.007825032230
         H           -2.804349952027     3.326152997945    -0.512842906453     1.007825032230
         H           -4.201646952027     2.437775997945    -1.136079906453     1.007825032230

  Basis Set: AUG-CC-PVTZ
    Blend: AUG-CC-PVTZ
  Basis Set: (AUG-CC-PVTZ AUX)
    Blend: AUG-CC-PVTZ-JKFIT + DEF2-UNIVERSAL-JKFIT
	 Reference Energy          =    -641.9938863251572911 [Eh]
	 Singles Energy            =      -0.0000000000000000 [Eh]
	 Same-Spin Energy          =      -0.4686537261034756 [Eh]
	 Opposite-Spin Energy      =      -1.4546103059237185 [Eh]
	 Correlation Energy        =      -1.9232640320271941 [Eh]
	 Total Energy              =    -643.9171503571844823 [Eh]

	 ================> DF-SCS-MP2 Energies <==================
	-----------------------------------------------------------
	 SCS Same-Spin Scale       =       0.3333333333333333 [-]
	 SCS Opposite-Spin Scale   =       1.2000000000000000 [-]
	 SCS Same-Spin Energy      =      -0.1562179087011585 [Eh]
	 SCS Opposite-Spin Energy  =      -1.7455323671084622 [Eh]
	 SCS Correlation Energy    =      -1.9017502758096207 [Eh]
	 SCS Total Energy          =    -643.8956366009668955 [Eh]
	-----------------------------------------------------------

  Dipole Moment: [D]
     X:    -2.2015      Y:     0.1130      Z:     0.8664     Total:     2.3686

*** Psi4 exiting successfully. Buy a developer a beer!
