                               Psi4 1.4a3.dev225

  ==> Input File <==

--------------------------------------------------------------------------
#psi4
#
memory 32 gb

molecule  {
0 1
  I        2.3447600     0.0000010    -0.2524410
  C       -0.5542210    -0.0000040     0.7369510
  C       -2.5036070    -1.2253050    -0.0650320
  C       -2.5036000     1.2253100    -0.0650260
  C       -1.2095060     1.2097510     0.4687330
  C       -1.2095100    -1.2097530     0.4687280
  C       -3.1346270     0.0000030    -0.3245500
  C        0.8217770    -0.0000070     1.3091860
  C       -3.2172620    -2.5291670    -0.3215690
  C       -3.2172620     2.5291680    -0.3215670
  H       -0.6473102     2.2371821     0.6790009
  H       -0.6945650    -2.1508430     0.6613200
  H       -4.1398900     0.0000070    -0.7462250
  H        1.0275050    -0.8925940     1.8992530
  H        1.0275050     0.8925750     1.8992610
  H       -3.9060370    -2.4424280    -1.1656010
  H       -3.8011950    -2.8333800     0.5532780
  H       -2.5084500    -3.3308180    -0.5430300
  H       -3.8015320     2.8331670     0.5531290
  H       -2.5084330     3.3309140    -0.5426230
  H       -3.9057300     2.4425370    -1.1658600
units angstrom
no_reorient  #important for SAPT in psi4, default
symmetry c1  #important for SAPT in psi4, default
}

set PROPERTIES_ORIGIN ["COM"]
properties('MP2/aug-cc-pvtz', properties = ['dipole'])
--------------------------------------------------------------------------

    Molecular point group: c1
  Charge       = 0
  Multiplicity = 1
  Basis Set: AUG-CC-PVTZ
    Blend: AUG-CC-PVTZ
  Basis Set: (AUG-CC-PVTZ AUX)
    Blend: AUG-CC-PVTZ-JKFIT + DEF2-UNIVERSAL-JKFIT

    Orbital Energies [Eh]
    ---------------------

    Doubly Occupied:

       1A    -11.290296     2A    -11.255345     3A    -11.250475
       4A    -11.249776     5A    -11.244547     6A    -11.234109
       7A    -11.232158     8A    -11.228685     9A    -11.228286
      10A     -7.706111    11A     -5.537561    12A     -5.528274
      13A     -5.528265    14A     -2.266774    15A     -2.262356
      16A     -2.262335    17A     -2.252068    18A     -2.252067
      19A     -1.165459    20A     -1.073392    21A     -1.060654
      22A     -0.970046    23A     -0.938546    24A     -0.930395
      25A     -0.848916    26A     -0.789269    27A     -0.782472
      28A     -0.673591    29A     -0.667380    30A     -0.617050
      31A     -0.588566    32A     -0.586281    33A     -0.573649
      34A     -0.572543    35A     -0.559181    36A     -0.551489
      37A     -0.526016    38A     -0.511606    39A     -0.489589
      40A     -0.482671    41A     -0.444862    42A     -0.359419
      43A     -0.357106    44A     -0.325569    45A     -0.319564

  @DF-RHF Final Energy:  -642.00054208493225

   => Energetics <=

    Nuclear Repulsion Energy =            614.1375570525235617
    One-Electron Energy =               -2203.1266627145864732
    Two-Electron Energy =                 946.9885635771306625
    Total Energy =                       -642.0005420849322491
  Basis Set: (AUG-CC-PVTZ AUX)
    Blend: AUG-CC-PVTZ-RI + DEF2-QZVPP-RI
    Molecular point group: c1

    Geometry (in Angstrom), charge = 0, multiplicity = 1:

       Center              X                  Y                   Z               Mass
    ------------   -----------------  -----------------  -----------------  -----------------
         I            2.048887286633    -0.000352970733    -0.222734777484   126.904471900000
         C           -0.850093713367    -0.000357970733     0.766657222516    12.000000000000
         C           -2.799479713367    -1.225658970733    -0.035325777484    12.000000000000
         C           -2.799472713367     1.224956029267    -0.035319777484    12.000000000000
         C           -1.505378713367     1.209397029267     0.498439222516    12.000000000000
         C           -1.505382713367    -1.210106970733     0.498434222516    12.000000000000
         C           -3.430499713367    -0.000350970733    -0.294843777484    12.000000000000
         C            0.525904286633    -0.000360970733     1.338892222516    12.000000000000
         C           -3.513134713367    -2.529520970733    -0.291862777484    12.000000000000
         C           -3.513134713367     2.528814029267    -0.291860777484    12.000000000000
         H           -0.943182913367     2.236828129267     0.708707122516     1.007825032230
         H           -0.990437713367    -2.151196970733     0.691026222516     1.007825032230
         H           -4.435762713367    -0.000346970733    -0.716518777484     1.007825032230
         H            0.731632286633    -0.892947970733     1.928959222516     1.007825032230
         H            0.731632286633     0.892221029267     1.928967222516     1.007825032230
         H           -4.201909713367    -2.442781970733    -1.135894777484     1.007825032230
         H           -4.097067713367    -2.833733970733     0.582984222516     1.007825032230
         H           -2.804322713367    -3.331171970733    -0.513323777484     1.007825032230
         H           -4.097404713367     2.832813029267     0.582835222516     1.007825032230
         H           -2.804305713367     3.330560029267    -0.512916777484     1.007825032230
         H           -4.201602713367     2.442183029267    -1.136153777484     1.007825032230

  Basis Set: AUG-CC-PVTZ
    Blend: AUG-CC-PVTZ
  Basis Set: (AUG-CC-PVTZ AUX)
    Blend: AUG-CC-PVTZ-JKFIT + DEF2-UNIVERSAL-JKFIT
	 Reference Energy          =    -642.0005420849322491 [Eh]
	 Singles Energy            =      -0.0000000000000000 [Eh]
	 Same-Spin Energy          =      -0.4678746966237960 [Eh]
	 Opposite-Spin Energy      =      -1.4535649800505639 [Eh]
	 Correlation Energy        =      -1.9214396766743600 [Eh]
	 Total Energy              =    -643.9219817616066166 [Eh]

	 ================> DF-SCS-MP2 Energies <==================
	-----------------------------------------------------------
	 SCS Same-Spin Scale       =       0.3333333333333333 [-]
	 SCS Opposite-Spin Scale   =       1.2000000000000000 [-]
	 SCS Same-Spin Energy      =      -0.1559582322079320 [Eh]
	 SCS Opposite-Spin Energy  =      -1.7442779760606766 [Eh]
	 SCS Correlation Energy    =      -1.9002362082686086 [Eh]
	 SCS Total Energy          =    -643.9007782932008013 [Eh]
	-----------------------------------------------------------

  Dipole Moment: [D]
     X:    -2.1224      Y:    -0.0376      Z:     0.8737     Total:     2.2955

*** Psi4 exiting successfully. Buy a developer a beer!
