                               Psi4 1.4a3.dev225

  ==> Input File <==

--------------------------------------------------------------------------
#psi4
#
memory 32 gb

molecule  {
0 1
  I        2.3447600     0.0000010    -0.2524410
  C       -0.5542210    -0.0000040     0.7369510
  C       -2.5036070    -1.2253050    -0.0650320
  C       -2.5036000     1.2253100    -0.0650260
  C       -1.2095060     1.2097510     0.4687330
  C       -1.2095100    -1.2097530     0.4687280
  C       -3.1346270     0.0000030    -0.3245500
  C        0.7519577    -0.0000074     1.3807769
  C       -3.2172620    -2.5291670    -0.3215690
  C       -3.2172620     2.5291680    -0.3215670
  H       -0.6945570     2.1508370     0.6613300
  H       -0.6945650    -2.1508430     0.6613200
  H       -4.1398900     0.0000070    -0.7462250
  H        1.0275050    -0.8925940     1.8992530
  H        1.0275050     0.8925750     1.8992610
  H       -3.9060370    -2.4424280    -1.1656010
  H       -3.8011950    -2.8333800     0.5532780
  H       -2.5084500    -3.3308180    -0.5430300
  H       -3.8015320     2.8331670     0.5531290
  H       -2.5084330     3.3309140    -0.5426230
  H       -3.9057300     2.4425370    -1.1658600
units angstrom
no_reorient  #important for SAPT in psi4, default
symmetry c1  #important for SAPT in psi4, default
}

set PROPERTIES_ORIGIN ["COM"]
properties('MP2/aug-cc-pvtz', properties = ['dipole'])
--------------------------------------------------------------------------

    Molecular point group: c1
  Charge       = 0
  Multiplicity = 1
  Basis Set: AUG-CC-PVTZ
    Blend: AUG-CC-PVTZ
  Basis Set: (AUG-CC-PVTZ AUX)
    Blend: AUG-CC-PVTZ-JKFIT + DEF2-UNIVERSAL-JKFIT

    Orbital Energies [Eh]
    ---------------------

    Doubly Occupied:

       1A    -11.295319     2A    -11.255193     3A    -11.251539
       4A    -11.251510     5A    -11.236770     6A    -11.236723
       7A    -11.234571     8A    -11.229954     9A    -11.229953
      10A     -7.698015    11A     -5.529076    12A     -5.520307
      13A     -5.520285    14A     -2.257855    15A     -2.253988
      16A     -2.253954    17A     -2.244264    18A     -2.244264
      19A     -1.169697    20A     -1.080055    21A     -1.063542
      22A     -0.969513    23A     -0.939621    24A     -0.935778
      25A     -0.845556    26A     -0.794481    27A     -0.789193
      28A     -0.685851    29A     -0.674366    30A     -0.629276
      31A     -0.600012    32A     -0.587725    33A     -0.577134
      34A     -0.575228    35A     -0.567082    36A     -0.557652
      37A     -0.528600    38A     -0.508793    39A     -0.496506
      40A     -0.488025    41A     -0.431009    42A     -0.354943
      43A     -0.352849    44A     -0.327072    45A     -0.315112

  @DF-RHF Final Energy:  -642.00449944255013

   => Energetics <=

    Nuclear Repulsion Energy =            613.8612845066069212
    One-Electron Energy =               -2202.5551421735463009
    Two-Electron Energy =                 946.6893582243893661
    Total Energy =                       -642.0044994425501272
  Basis Set: (AUG-CC-PVTZ AUX)
    Blend: AUG-CC-PVTZ-RI + DEF2-QZVPP-RI
    Molecular point group: c1

    Geometry (in Angstrom), charge = 0, multiplicity = 1:

       Center              X                  Y                   Z               Mass
    ------------   -----------------  -----------------  -----------------  -----------------
         I            2.052486807499     0.000000805273    -0.226154752902   126.904471900000
         C           -0.846494192501    -0.000004194727     0.763237247098    12.000000000000
         C           -2.795880192501    -1.225305194727    -0.038745752902    12.000000000000
         C           -2.795873192501     1.225309805273    -0.038739752902    12.000000000000
         C           -1.501779192501     1.209750805273     0.495019247098    12.000000000000
         C           -1.501783192501    -1.209753194727     0.495014247098    12.000000000000
         C           -3.426900192501     0.000002805273    -0.298263752902    12.000000000000
         C            0.459684507499    -0.000007594727     1.407063147098    12.000000000000
         C           -3.509535192501    -2.529167194727    -0.295282752902    12.000000000000
         C           -3.509535192501     2.529167805273    -0.295280752902    12.000000000000
         H           -0.986830192501     2.150836805273     0.687616247098     1.007825032230
         H           -0.986838192501    -2.150843194727     0.687606247098     1.007825032230
         H           -4.432163192501     0.000006805273    -0.719938752902     1.007825032230
         H            0.735231807499    -0.892594194727     1.925539247098     1.007825032230
         H            0.735231807499     0.892574805273     1.925547247098     1.007825032230
         H           -4.198310192501    -2.442428194727    -1.139314752902     1.007825032230
         H           -4.093468192501    -2.833380194727     0.579564247098     1.007825032230
         H           -2.800723192501    -3.330818194727    -0.516743752902     1.007825032230
         H           -4.093805192501     2.833166805273     0.579415247098     1.007825032230
         H           -2.800706192501     3.330913805273    -0.516336752902     1.007825032230
         H           -4.198003192501     2.442536805273    -1.139573752902     1.007825032230

  Basis Set: AUG-CC-PVTZ
    Blend: AUG-CC-PVTZ
  Basis Set: (AUG-CC-PVTZ AUX)
    Blend: AUG-CC-PVTZ-JKFIT + DEF2-UNIVERSAL-JKFIT
	 Reference Energy          =    -642.0044994425501272 [Eh]
	 Singles Energy            =      -0.0000000000000000 [Eh]
	 Same-Spin Energy          =      -0.4674952677745382 [Eh]
	 Opposite-Spin Energy      =      -1.4519694592306971 [Eh]
	 Correlation Energy        =      -1.9194647270052352 [Eh]
	 Total Energy              =    -643.9239641695553473 [Eh]

	 ================> DF-SCS-MP2 Energies <==================
	-----------------------------------------------------------
	 SCS Same-Spin Scale       =       0.3333333333333333 [-]
	 SCS Opposite-Spin Scale   =       1.2000000000000000 [-]
	 SCS Same-Spin Energy      =      -0.1558317559248460 [Eh]
	 SCS Opposite-Spin Energy  =      -1.7423633510768364 [Eh]
	 SCS Correlation Energy    =      -1.8981951070016825 [Eh]
	 SCS Total Energy          =    -643.9026945495518248 [Eh]
	-----------------------------------------------------------

  Dipole Moment: [D]
     X:    -2.4924      Y:    -0.0000      Z:     1.0337     Total:     2.6982

*** Psi4 exiting successfully. Buy a developer a beer!
