                               Psi4 1.4a3.dev225

  ==> Input File <==

--------------------------------------------------------------------------
#psi4
#
memory 32 gb

molecule  {
0 1
  I        2.3447600     0.0000010    -0.2524410
  C       -0.5542210    -0.0000040     0.7369510
  C       -2.5036070    -1.2253050    -0.0650320
  C       -2.5036000     1.2253100    -0.0650260
  C       -1.2126568     1.1121759     0.4645837
  C       -1.2095100    -1.2097530     0.4687280
  C       -3.1346270     0.0000030    -0.3245500
  C        0.8217770    -0.0000070     1.3091860
  C       -3.2172620    -2.5291670    -0.3215690
  C       -3.2172620     2.5291680    -0.3215670
  H       -0.6945570     2.1508370     0.6613300
  H       -0.6945650    -2.1508430     0.6613200
  H       -4.1398900     0.0000070    -0.7462250
  H        1.0275050    -0.8925940     1.8992530
  H        1.0275050     0.8925750     1.8992610
  H       -3.9060370    -2.4424280    -1.1656010
  H       -3.8011950    -2.8333800     0.5532780
  H       -2.5084500    -3.3308180    -0.5430300
  H       -3.8015320     2.8331670     0.5531290
  H       -2.5084330     3.3309140    -0.5426230
  H       -3.9057300     2.4425370    -1.1658600
units angstrom
no_reorient  #important for SAPT in psi4, default
symmetry c1  #important for SAPT in psi4, default
}

set PROPERTIES_ORIGIN ["COM"]
properties('MP2/aug-cc-pvtz', properties = ['dipole'])
--------------------------------------------------------------------------

    Molecular point group: c1
  Charge       = 0
  Multiplicity = 1
  Basis Set: AUG-CC-PVTZ
    Blend: AUG-CC-PVTZ
  Basis Set: (AUG-CC-PVTZ AUX)
    Blend: AUG-CC-PVTZ-JKFIT + DEF2-UNIVERSAL-JKFIT

    Orbital Energies [Eh]
    ---------------------

    Doubly Occupied:

       1A    -11.291016     2A    -11.249424     3A    -11.247025
       4A    -11.244255     5A    -11.232737     6A    -11.232639
       7A    -11.231568     8A    -11.231463     9A    -11.227474
      10A     -7.706453    11A     -5.537909    12A     -5.528612
      13A     -5.528606    14A     -2.267122    15A     -2.262695
      16A     -2.262684    17A     -2.252401    18A     -2.252400
      19A     -1.174079    20A     -1.077866    21A     -1.059382
      22A     -0.975146    23A     -0.939103    24A     -0.932468
      25A     -0.848916    26A     -0.798002    27A     -0.782372
      28A     -0.675119    29A     -0.669326    30A     -0.617938
      31A     -0.589975    32A     -0.587379    33A     -0.575499
      34A     -0.573275    35A     -0.557923    36A     -0.547698
      37A     -0.529839    38A     -0.516121    39A     -0.496383
      40A     -0.472345    41A     -0.445684    42A     -0.360043
      43A     -0.357253    44A     -0.328475    45A     -0.320863

  @DF-RHF Final Energy:  -641.99629418540758

   => Energetics <=

    Nuclear Repulsion Energy =            616.2308390357096641
    One-Electron Energy =               -2207.2643606785350130
    Two-Electron Energy =                 949.0372274574176572
    Total Energy =                       -641.9962941854075780
  Basis Set: (AUG-CC-PVTZ AUX)
    Blend: AUG-CC-PVTZ-RI + DEF2-QZVPP-RI
    Molecular point group: c1

    Geometry (in Angstrom), charge = 0, multiplicity = 1:

       Center              X                  Y                   Z               Mass
    ------------   -----------------  -----------------  -----------------  -----------------
         I            2.049234560578     0.004760729640    -0.222459967024   126.904471900000
         C           -0.849746439422     0.004755729640     0.766932032976    12.000000000000
         C           -2.799132439422    -1.220545270360    -0.035050967024    12.000000000000
         C           -2.799125439422     1.230069729640    -0.035044967024    12.000000000000
         C           -1.508182239422     1.116935629640     0.494564732976    12.000000000000
         C           -1.505035439422    -1.204993270360     0.498709032976    12.000000000000
         C           -3.430152439422     0.004762729640    -0.294568967024    12.000000000000
         C            0.526251560578     0.004752729640     1.339167032976    12.000000000000
         C           -3.512787439422    -2.524407270360    -0.291587967024    12.000000000000
         C           -3.512787439422     2.533927729640    -0.291585967024    12.000000000000
         H           -0.990082439422     2.155596729640     0.691311032976     1.007825032230
         H           -0.990090439422    -2.146083270360     0.691301032976     1.007825032230
         H           -4.435415439422     0.004766729640    -0.716243967024     1.007825032230
         H            0.731979560578    -0.887834270360     1.929234032976     1.007825032230
         H            0.731979560578     0.897334729640     1.929242032976     1.007825032230
         H           -4.201562439422    -2.437668270360    -1.135619967024     1.007825032230
         H           -4.096720439422    -2.828620270360     0.583259032976     1.007825032230
         H           -2.803975439422    -3.326058270360    -0.513048967024     1.007825032230
         H           -4.097057439422     2.837926729640     0.583110032976     1.007825032230
         H           -2.803958439422     3.335673729640    -0.512641967024     1.007825032230
         H           -4.201255439422     2.447296729640    -1.135878967024     1.007825032230

  Basis Set: AUG-CC-PVTZ
    Blend: AUG-CC-PVTZ
  Basis Set: (AUG-CC-PVTZ AUX)
    Blend: AUG-CC-PVTZ-JKFIT + DEF2-UNIVERSAL-JKFIT
	 Reference Energy          =    -641.9962941854075780 [Eh]
	 Singles Energy            =      -0.0000000000000000 [Eh]
	 Same-Spin Energy          =      -0.4677943740105836 [Eh]
	 Opposite-Spin Energy      =      -1.4530413392930737 [Eh]
	 Correlation Energy        =      -1.9208357133036573 [Eh]
	 Total Energy              =    -643.9171298987112095 [Eh]

	 ================> DF-SCS-MP2 Energies <==================
	-----------------------------------------------------------
	 SCS Same-Spin Scale       =       0.3333333333333333 [-]
	 SCS Opposite-Spin Scale   =       1.2000000000000000 [-]
	 SCS Same-Spin Energy      =      -0.1559314580035279 [Eh]
	 SCS Opposite-Spin Energy  =      -1.7436496071516883 [Eh]
	 SCS Correlation Energy    =      -1.8995810651552161 [Eh]
	 SCS Total Energy          =    -643.8958752505627672 [Eh]
	-----------------------------------------------------------

  Dipole Moment: [D]
     X:    -2.1080      Y:     0.0077      Z:     0.8591     Total:     2.2763

*** Psi4 exiting successfully. Buy a developer a beer!
