                               Psi4 1.4a3.dev225

  ==> Input File <==

--------------------------------------------------------------------------
#psi4
#
memory 32 gb

molecule  {
0 1
  I        2.3447600     0.0000010    -0.2524410
  C       -0.5542210    -0.0000040     0.7369510
  C       -2.5036070    -1.2253050    -0.0650320
  C       -2.5299550     1.2040186    -0.1053253
  C       -1.2095060     1.2097510     0.4687330
  C       -1.2095100    -1.2097530     0.4687280
  C       -3.1346270     0.0000030    -0.3245500
  C        0.8217770    -0.0000070     1.3091860
  C       -3.2172620    -2.5291670    -0.3215690
  C       -3.2172620     2.5291680    -0.3215670
  H       -0.6945570     2.1508370     0.6613300
  H       -0.6945650    -2.1508430     0.6613200
  H       -4.1398900     0.0000070    -0.7462250
  H        1.0275050    -0.8925940     1.8992530
  H        1.0275050     0.8925750     1.8992610
  H       -3.9060370    -2.4424280    -1.1656010
  H       -3.8011950    -2.8333800     0.5532780
  H       -2.5084500    -3.3308180    -0.5430300
  H       -3.8015320     2.8331670     0.5531290
  H       -2.5084330     3.3309140    -0.5426230
  H       -3.9057300     2.4425370    -1.1658600
units angstrom
no_reorient  #important for SAPT in psi4, default
symmetry c1  #important for SAPT in psi4, default
}

set PROPERTIES_ORIGIN ["COM"]
properties('MP2/aug-cc-pvtz', properties = ['dipole'])
--------------------------------------------------------------------------

    Molecular point group: c1
  Charge       = 0
  Multiplicity = 1
  Basis Set: AUG-CC-PVTZ
    Blend: AUG-CC-PVTZ
  Basis Set: (AUG-CC-PVTZ AUX)
    Blend: AUG-CC-PVTZ-JKFIT + DEF2-UNIVERSAL-JKFIT

    Orbital Energies [Eh]
    ---------------------

    Doubly Occupied:

       1A    -11.290147     2A    -11.253656     3A    -11.249851
       4A    -11.249178     5A    -11.236828     6A    -11.232881
       7A    -11.228545     8A    -11.228420     9A    -11.227725
      10A     -7.706135    11A     -5.537583    12A     -5.528304
      13A     -5.528287    14A     -2.266796    15A     -2.262383
      16A     -2.262354    17A     -2.252095    18A     -2.252095
      19A     -1.165152    20A     -1.075424    21A     -1.059056
      22A     -0.969385    23A     -0.942437    24A     -0.930283
      25A     -0.848147    26A     -0.794925    27A     -0.779566
      28A     -0.682236    29A     -0.666913    30A     -0.617307
      31A     -0.588507    32A     -0.586053    33A     -0.577955
      34A     -0.573319    35A     -0.561295    36A     -0.555611
      37A     -0.525273    38A     -0.510230    39A     -0.491961
      40A     -0.481832    41A     -0.445335    42A     -0.359795
      43A     -0.357026    44A     -0.324829    45A     -0.318892

  @DF-RHF Final Energy:  -642.00515458789937

   => Energetics <=

    Nuclear Repulsion Energy =            614.5575661313038154
    One-Electron Energy =               -2203.9614289932533211
    Two-Electron Energy =                 947.3987082740502501
    Total Energy =                       -642.0051545878993693
  Basis Set: (AUG-CC-PVTZ AUX)
    Blend: AUG-CC-PVTZ-RI + DEF2-QZVPP-RI
    Molecular point group: c1

    Geometry (in Angstrom), charge = 0, multiplicity = 1:

       Center              X                  Y                   Z               Mass
    ------------   -----------------  -----------------  -----------------  -----------------
         I            2.050366516269     0.001039430549    -0.220696484627   126.904471900000
         C           -0.848614483731     0.001034430549     0.768695515373    12.000000000000
         C           -2.798000483731    -1.224266569451    -0.033287484627    12.000000000000
         C           -2.824348483731     1.205057030549    -0.073580784627    12.000000000000
         C           -1.503899483731     1.210789430549     0.500477515373    12.000000000000
         C           -1.503903483731    -1.208714569451     0.500472515373    12.000000000000
         C           -3.429020483731     0.001041430549    -0.292805484627    12.000000000000
         C            0.527383516269     0.001031430549     1.340930515373    12.000000000000
         C           -3.511655483731    -2.528128569451    -0.289824484627    12.000000000000
         C           -3.511655483731     2.530206430549    -0.289822484627    12.000000000000
         H           -0.988950483731     2.151875430549     0.693074515373     1.007825032230
         H           -0.988958483731    -2.149804569451     0.693064515373     1.007825032230
         H           -4.434283483731     0.001045430549    -0.714480484627     1.007825032230
         H            0.733111516269    -0.891555569451     1.930997515373     1.007825032230
         H            0.733111516269     0.893613430549     1.931005515373     1.007825032230
         H           -4.200430483731    -2.441389569451    -1.133856484627     1.007825032230
         H           -4.095588483731    -2.832341569451     0.585022515373     1.007825032230
         H           -2.802843483731    -3.329779569451    -0.511285484627     1.007825032230
         H           -4.095925483731     2.834205430549     0.584873515373     1.007825032230
         H           -2.802826483731     3.331952430549    -0.510878484627     1.007825032230
         H           -4.200123483731     2.443575430549    -1.134115484627     1.007825032230

  Basis Set: AUG-CC-PVTZ
    Blend: AUG-CC-PVTZ
  Basis Set: (AUG-CC-PVTZ AUX)
    Blend: AUG-CC-PVTZ-JKFIT + DEF2-UNIVERSAL-JKFIT
	 Reference Energy          =    -642.0051545878993693 [Eh]
	 Singles Energy            =      -0.0000000000000000 [Eh]
	 Same-Spin Energy          =      -0.4674975438981173 [Eh]
	 Opposite-Spin Energy      =      -1.4526991419865549 [Eh]
	 Correlation Energy        =      -1.9201966858846722 [Eh]
	 Total Energy              =    -643.9253512737840310 [Eh]

	 ================> DF-SCS-MP2 Energies <==================
	-----------------------------------------------------------
	 SCS Same-Spin Scale       =       0.3333333333333333 [-]
	 SCS Opposite-Spin Scale   =       1.2000000000000000 [-]
	 SCS Same-Spin Energy      =      -0.1558325146327058 [Eh]
	 SCS Opposite-Spin Energy  =      -1.7432389703838658 [Eh]
	 SCS Correlation Energy    =      -1.8990714850165715 [Eh]
	 SCS Total Energy          =    -643.9042260729158897 [Eh]
	-----------------------------------------------------------

  Dipole Moment: [D]
     X:    -2.0822      Y:     0.0046      Z:     0.8985     Total:     2.2678

*** Psi4 exiting successfully. Buy a developer a beer!
