                               Psi4 1.4a3.dev225

  ==> Input File <==

--------------------------------------------------------------------------
#psi4
#
memory 32 gb

molecule  {
0 1
  I        2.3447600     0.0000010    -0.2524410
  C       -0.5542210    -0.0000040     0.7369510
  C       -2.5036070    -1.2253050    -0.0650320
  C       -2.5036000     1.2253100    -0.0650260
  C       -1.2095060     1.2097510     0.4687330
  C       -1.2095100    -1.2097530     0.4687280
  C       -3.1346270     0.0000030    -0.3245500
  C        0.8217770    -0.0000070     1.3091860
  C       -3.2172620    -2.5291670    -0.3215690
  C       -3.2172620     2.5291680    -0.3215670
  H       -0.6945570     2.1508370     0.6613300
  H       -0.6945650    -2.1508430     0.6613200
  H       -4.1398900     0.0000070    -0.7462250
  H        0.9956622    -0.9530244     1.8079208
  H        1.0275050     0.8925750     1.8992610
  H       -3.9060370    -2.4424280    -1.1656010
  H       -3.8011950    -2.8333800     0.5532780
  H       -2.5084500    -3.3308180    -0.5430300
  H       -3.8015320     2.8331670     0.5531290
  H       -2.5084330     3.3309140    -0.5426230
  H       -3.9057300     2.4425370    -1.1658600
units angstrom
no_reorient  #important for SAPT in psi4, default
symmetry c1  #important for SAPT in psi4, default
}

set PROPERTIES_ORIGIN ["COM"]
properties('MP2/aug-cc-pvtz', properties = ['dipole'])
--------------------------------------------------------------------------

    Molecular point group: c1
  Charge       = 0
  Multiplicity = 1
  Basis Set: AUG-CC-PVTZ
    Blend: AUG-CC-PVTZ
  Basis Set: (AUG-CC-PVTZ AUX)
    Blend: AUG-CC-PVTZ-JKFIT + DEF2-UNIVERSAL-JKFIT

    Orbital Energies [Eh]
    ---------------------

    Doubly Occupied:

       1A    -11.291259     2A    -11.253704     3A    -11.249586
       4A    -11.249393     5A    -11.233584     6A    -11.233031
       7A    -11.231319     8A    -11.228521     9A    -11.228367
      10A     -7.705545    11A     -5.536956    12A     -5.527744
      13A     -5.527713    14A     -2.266170    15A     -2.261791
      16A     -2.261746    17A     -2.251563    18A     -2.251562
      19A     -1.165586    20A     -1.074092    21A     -1.061356
      22A     -0.970179    23A     -0.938668    24A     -0.933338
      25A     -0.848962    26A     -0.791660    27A     -0.781170
      28A     -0.682233    29A     -0.670046    30A     -0.614955
      31A     -0.595943    32A     -0.586091    33A     -0.573645
      34A     -0.571927    35A     -0.564549    36A     -0.555851
      37A     -0.526677    38A     -0.510777    39A     -0.489084
      40A     -0.485794    41A     -0.443409    42A     -0.358647
      43A     -0.357049    44A     -0.325143    45A     -0.318598

  @DF-RHF Final Energy:  -642.00663368835717

   => Energetics <=

    Nuclear Repulsion Energy =            614.8224776725901393
    One-Electron Energy =               -2204.4882598539552419
    Two-Electron Energy =                 947.6591484930079332
    Total Energy =                       -642.0066336883571694
  Basis Set: (AUG-CC-PVTZ AUX)
    Blend: AUG-CC-PVTZ-RI + DEF2-QZVPP-RI
    Molecular point group: c1

    Geometry (in Angstrom), charge = 0, multiplicity = 1:

       Center              X                  Y                   Z               Mass
    ------------   -----------------  -----------------  -----------------  -----------------
         I            2.049211317290     0.000248369541    -0.222288191003   126.904471900000
         C           -0.849769682710     0.000243369541     0.767103808997    12.000000000000
         C           -2.799155682710    -1.225057630459    -0.034879191003    12.000000000000
         C           -2.799148682710     1.225557369541    -0.034873191003    12.000000000000
         C           -1.505054682710     1.209998369541     0.498885808997    12.000000000000
         C           -1.505058682710    -1.209505630459     0.498880808997    12.000000000000
         C           -3.430175682710     0.000250369541    -0.294397191003    12.000000000000
         C            0.526228317290     0.000240369541     1.339338808997    12.000000000000
         C           -3.512810682710    -2.528919630459    -0.291416191003    12.000000000000
         C           -3.512810682710     2.529415369541    -0.291414191003    12.000000000000
         H           -0.990105682710     2.151084369541     0.691482808997     1.007825032230
         H           -0.990113682710    -2.150595630459     0.691472808997     1.007825032230
         H           -4.435438682710     0.000254369541    -0.716072191003     1.007825032230
         H            0.700113517290    -0.952777030459     1.838073608997     1.007825032230
         H            0.731956317290     0.892822369541     1.929413808997     1.007825032230
         H           -4.201585682710    -2.442180630459    -1.135448191003     1.007825032230
         H           -4.096743682710    -2.833132630459     0.583430808997     1.007825032230
         H           -2.803998682710    -3.330570630459    -0.512877191003     1.007825032230
         H           -4.097080682710     2.833414369541     0.583281808997     1.007825032230
         H           -2.803981682710     3.331161369541    -0.512470191003     1.007825032230
         H           -4.201278682710     2.442784369541    -1.135707191003     1.007825032230

  Basis Set: AUG-CC-PVTZ
    Blend: AUG-CC-PVTZ
  Basis Set: (AUG-CC-PVTZ AUX)
    Blend: AUG-CC-PVTZ-JKFIT + DEF2-UNIVERSAL-JKFIT
	 Reference Energy          =    -642.0066336883571694 [Eh]
	 Singles Energy            =      -0.0000000000000000 [Eh]
	 Same-Spin Energy          =      -0.4677320825346735 [Eh]
	 Opposite-Spin Energy      =      -1.4527138547614933 [Eh]
	 Correlation Energy        =      -1.9204459372961669 [Eh]
	 Total Energy              =    -643.9270796256533913 [Eh]

	 ================> DF-SCS-MP2 Energies <==================
	-----------------------------------------------------------
	 SCS Same-Spin Scale       =       0.3333333333333333 [-]
	 SCS Opposite-Spin Scale   =       1.2000000000000000 [-]
	 SCS Same-Spin Energy      =      -0.1559106941782245 [Eh]
	 SCS Opposite-Spin Energy  =      -1.7432566257137918 [Eh]
	 SCS Correlation Energy    =      -1.8991673198920163 [Eh]
	 SCS Total Energy          =    -643.9058010082492274 [Eh]
	-----------------------------------------------------------

  Dipole Moment: [D]
     X:    -2.1341      Y:    -0.0110      Z:     0.8714     Total:     2.3052

*** Psi4 exiting successfully. Buy a developer a beer!
