                               Psi4 1.4a3.dev225

  ==> Input File <==

--------------------------------------------------------------------------
#psi4
#
memory 32 gb

molecule  {
0 1
  I        2.3447600     0.0000010    -0.2524410
  C       -0.5542210    -0.0000040     0.7369510
  C       -2.5036070    -1.2253050    -0.0650320
  C       -2.5036000     1.2253100    -0.0650260
  C       -1.2095060     1.2097510     0.4687330
  C       -1.2095100    -1.2097530     0.4687280
  C       -3.1346270     0.0000030    -0.3245500
  C        0.8217770    -0.0000070     1.3091860
  C       -3.2172620    -2.5291670    -0.3215690
  C       -3.2172620     2.5291680    -0.3215670
  H       -0.6945570     2.1508370     0.6613300
  H       -0.6945650    -2.1508430     0.6613200
  H       -4.1398900     0.0000070    -0.7462250
  H        1.0275050    -0.8925940     1.8992530
  H        1.0275050     0.8925750     1.8992610
  H       -4.0320880    -2.4265541    -1.3200652
  H       -3.8011950    -2.8333800     0.5532780
  H       -2.5084500    -3.3308180    -0.5430300
  H       -3.8015320     2.8331670     0.5531290
  H       -2.5084330     3.3309140    -0.5426230
  H       -3.9057300     2.4425370    -1.1658600
units angstrom
no_reorient  #important for SAPT in psi4, default
symmetry c1  #important for SAPT in psi4, default
}

set PROPERTIES_ORIGIN ["COM"]
properties('MP2/aug-cc-pvtz', properties = ['dipole'])
--------------------------------------------------------------------------

    Molecular point group: c1
  Charge       = 0
  Multiplicity = 1
  Basis Set: AUG-CC-PVTZ
    Blend: AUG-CC-PVTZ
  Basis Set: (AUG-CC-PVTZ AUX)
    Blend: AUG-CC-PVTZ-JKFIT + DEF2-UNIVERSAL-JKFIT

    Orbital Energies [Eh]
    ---------------------

    Doubly Occupied:

       1A    -11.291000     2A    -11.255093     3A    -11.251517
       4A    -11.250808     5A    -11.249737     6A    -11.235083
       7A    -11.234192     8A    -11.231837     9A    -11.228639
      10A     -7.706683    11A     -5.538134    12A     -5.528845
      13A     -5.528834    14A     -2.267348    15A     -2.262931
      16A     -2.262906    17A     -2.252638    18A     -2.252637
      19A     -1.166075    20A     -1.073295    21A     -1.060448
      22A     -0.968447    23A     -0.937853    24A     -0.927098
      25A     -0.849404    26A     -0.790376    27A     -0.781747
      28A     -0.682924    29A     -0.666529    30A     -0.617644
      31A     -0.589015    32A     -0.583891    33A     -0.574408
      34A     -0.572930    35A     -0.564992    36A     -0.544904
      37A     -0.512547    38A     -0.509884    39A     -0.487063
      40A     -0.483345    41A     -0.444804    42A     -0.359920
      43A     -0.357699    44A     -0.325845    45A     -0.319364

  @DF-RHF Final Energy:  -641.98782480347882

   => Energetics <=

    Nuclear Repulsion Energy =            613.8375103169736349
    One-Electron Energy =               -2202.4880451756239381
    Two-Electron Energy =                 946.6627100551713738
    Total Energy =                       -641.9878248034788157
  Basis Set: (AUG-CC-PVTZ AUX)
    Blend: AUG-CC-PVTZ-RI + DEF2-QZVPP-RI
    Molecular point group: c1

    Geometry (in Angstrom), charge = 0, multiplicity = 1:

       Center              X                  Y                   Z               Mass
    ------------   -----------------  -----------------  -----------------  -----------------
         I            2.049597288960    -0.000064249722    -0.222029538747   126.904471900000
         C           -0.849383711040    -0.000069249722     0.767362461253    12.000000000000
         C           -2.798769711040    -1.225370249722    -0.034620538747    12.000000000000
         C           -2.798762711040     1.225244750278    -0.034614538747    12.000000000000
         C           -1.504668711040     1.209685750278     0.499144461253    12.000000000000
         C           -1.504672711040    -1.209818249722     0.499139461253    12.000000000000
         C           -3.429789711040    -0.000062249722    -0.294138538747    12.000000000000
         C            0.526614288960    -0.000072249722     1.339597461253    12.000000000000
         C           -3.512424711040    -2.529232249722    -0.291157538747    12.000000000000
         C           -3.512424711040     2.529102750278    -0.291155538747    12.000000000000
         H           -0.989719711040     2.150771750278     0.691741461253     1.007825032230
         H           -0.989727711040    -2.150908249722     0.691731461253     1.007825032230
         H           -4.435052711040    -0.000058249722    -0.715813538747     1.007825032230
         H            0.732342288960    -0.892659249722     1.929664461253     1.007825032230
         H            0.732342288960     0.892509750278     1.929672461253     1.007825032230
         H           -4.327250711040    -2.426619349722    -1.289653738747     1.007825032230
         H           -4.096357711040    -2.833445249722     0.583689461253     1.007825032230
         H           -2.803612711040    -3.330883249722    -0.512618538747     1.007825032230
         H           -4.096694711040     2.833101750278     0.583540461253     1.007825032230
         H           -2.803595711040     3.330848750278    -0.512211538747     1.007825032230
         H           -4.200892711040     2.442471750278    -1.135448538747     1.007825032230

  Basis Set: AUG-CC-PVTZ
    Blend: AUG-CC-PVTZ
  Basis Set: (AUG-CC-PVTZ AUX)
    Blend: AUG-CC-PVTZ-JKFIT + DEF2-UNIVERSAL-JKFIT
	 Reference Energy          =    -641.9878248034788157 [Eh]
	 Singles Energy            =      -0.0000000000000000 [Eh]
	 Same-Spin Energy          =      -0.4676204745541946 [Eh]
	 Opposite-Spin Energy      =      -1.4542497940913686 [Eh]
	 Correlation Energy        =      -1.9218702686455631 [Eh]
	 Total Energy              =    -643.9096950721243502 [Eh]

	 ================> DF-SCS-MP2 Energies <==================
	-----------------------------------------------------------
	 SCS Same-Spin Scale       =       0.3333333333333333 [-]
	 SCS Opposite-Spin Scale   =       1.2000000000000000 [-]
	 SCS Same-Spin Energy      =      -0.1558734915180648 [Eh]
	 SCS Opposite-Spin Energy  =      -1.7450997529096421 [Eh]
	 SCS Correlation Energy    =      -1.9009732444277070 [Eh]
	 SCS Total Energy          =    -643.8887980479065618 [Eh]
	-----------------------------------------------------------

  Dipole Moment: [D]
     X:    -1.9896      Y:     0.0570      Z:     0.9738     Total:     2.2159

*** Psi4 exiting successfully. Buy a developer a beer!
