                               Psi4 1.4a3.dev225

  ==> Input File <==

--------------------------------------------------------------------------
#psi4
#
memory 32 gb

molecule  {
0 1
  I        2.3447600     0.0000010    -0.2524410
  C       -0.5542210    -0.0000040     0.7369510
  C       -2.5036070    -1.2253050    -0.0650320
  C       -2.5019499     1.2741454    -0.0653664
  C       -1.2095060     1.2097510     0.4687330
  C       -1.2095100    -1.2097530     0.4687280
  C       -3.1346270     0.0000030    -0.3245500
  C        0.8217770    -0.0000070     1.3091860
  C       -3.2172620    -2.5291670    -0.3215690
  C       -3.2172620     2.5291680    -0.3215670
  H       -0.6945570     2.1508370     0.6613300
  H       -0.6945650    -2.1508430     0.6613200
  H       -4.1398900     0.0000070    -0.7462250
  H        1.0275050    -0.8925940     1.8992530
  H        1.0275050     0.8925750     1.8992610
  H       -3.9060370    -2.4424280    -1.1656010
  H       -3.8011950    -2.8333800     0.5532780
  H       -2.5084500    -3.3308180    -0.5430300
  H       -3.8015320     2.8331670     0.5531290
  H       -2.5084330     3.3309140    -0.5426230
  H       -3.9057300     2.4425370    -1.1658600
units angstrom
no_reorient  #important for SAPT in psi4, default
symmetry c1  #important for SAPT in psi4, default
}

set PROPERTIES_ORIGIN ["COM"]
properties('MP2/aug-cc-pvtz', properties = ['dipole'])
--------------------------------------------------------------------------

    Molecular point group: c1
  Charge       = 0
  Multiplicity = 1
  Basis Set: AUG-CC-PVTZ
    Blend: AUG-CC-PVTZ
  Basis Set: (AUG-CC-PVTZ AUX)
    Blend: AUG-CC-PVTZ-JKFIT + DEF2-UNIVERSAL-JKFIT

    Orbital Energies [Eh]
    ---------------------

    Doubly Occupied:

       1A    -11.290427     2A    -11.254254     3A    -11.252348
       4A    -11.248766     5A    -11.235207     6A    -11.233803
       7A    -11.233458     8A    -11.228107     9A    -11.227731
      10A     -7.705907    11A     -5.537347    12A     -5.528075
      13A     -5.528066    14A     -2.266560    15A     -2.262148
      16A     -2.262126    17A     -2.251876    18A     -2.251876
      19A     -1.162675    20A     -1.072588    21A     -1.064981
      22A     -0.971356    23A     -0.936738    24A     -0.933634
      25A     -0.848835    26A     -0.788548    27A     -0.783865
      28A     -0.680174    29A     -0.666046    30A     -0.621346
      31A     -0.589941    32A     -0.587995    33A     -0.575648
      34A     -0.572669    35A     -0.564667    36A     -0.556744
      37A     -0.525437    38A     -0.511048    39A     -0.494188
      40A     -0.480197    41A     -0.442223    42A     -0.358899
      43A     -0.356957    44A     -0.325350    45A     -0.314880

  @DF-RHF Final Energy:  -642.00372953347244

   => Energetics <=

    Nuclear Repulsion Energy =            614.1759698001363859
    One-Electron Energy =               -2203.1879796212206202
    Two-Electron Energy =                 947.0082802876116830
    Total Energy =                       -642.0037295334724377
  Basis Set: (AUG-CC-PVTZ AUX)
    Blend: AUG-CC-PVTZ-RI + DEF2-QZVPP-RI
    Molecular point group: c1

    Geometry (in Angstrom), charge = 0, multiplicity = 1:

       Center              X                  Y                   Z               Mass
    ------------   -----------------  -----------------  -----------------  -----------------
         I            2.049000361335    -0.002381520416    -0.222645774164   126.904471900000
         C           -0.849980638665    -0.002386520416     0.766746225836    12.000000000000
         C           -2.799366638665    -1.227687520416    -0.035236774164    12.000000000000
         C           -2.797709538665     1.271762879584    -0.035571174164    12.000000000000
         C           -1.505265638665     1.207368479584     0.498528225836    12.000000000000
         C           -1.505269638665    -1.212135520416     0.498523225836    12.000000000000
         C           -3.430386638665    -0.002379520416    -0.294754774164    12.000000000000
         C            0.526017361335    -0.002389520416     1.338981225836    12.000000000000
         C           -3.513021638665    -2.531549520416    -0.291773774164    12.000000000000
         C           -3.513021638665     2.526785479584    -0.291771774164    12.000000000000
         H           -0.990316638665     2.148454479584     0.691125225836     1.007825032230
         H           -0.990324638665    -2.153225520416     0.691115225836     1.007825032230
         H           -4.435649638665    -0.002375520416    -0.716429774164     1.007825032230
         H            0.731745361335    -0.894976520416     1.929048225836     1.007825032230
         H            0.731745361335     0.890192479584     1.929056225836     1.007825032230
         H           -4.201796638665    -2.444810520416    -1.135805774164     1.007825032230
         H           -4.096954638665    -2.835762520416     0.583073225836     1.007825032230
         H           -2.804209638665    -3.333200520416    -0.513234774164     1.007825032230
         H           -4.097291638665     2.830784479584     0.582924225836     1.007825032230
         H           -2.804192638665     3.328531479584    -0.512827774164     1.007825032230
         H           -4.201489638665     2.440154479584    -1.136064774164     1.007825032230

  Basis Set: AUG-CC-PVTZ
    Blend: AUG-CC-PVTZ
  Basis Set: (AUG-CC-PVTZ AUX)
    Blend: AUG-CC-PVTZ-JKFIT + DEF2-UNIVERSAL-JKFIT
	 Reference Energy          =    -642.0037295334724377 [Eh]
	 Singles Energy            =      -0.0000000000000000 [Eh]
	 Same-Spin Energy          =      -0.4680446468834979 [Eh]
	 Opposite-Spin Energy      =      -1.4534072078538331 [Eh]
	 Correlation Energy        =      -1.9214518547373309 [Eh]
	 Total Energy              =    -643.9251813882098077 [Eh]

	 ================> DF-SCS-MP2 Energies <==================
	-----------------------------------------------------------
	 SCS Same-Spin Scale       =       0.3333333333333333 [-]
	 SCS Opposite-Spin Scale   =       1.2000000000000000 [-]
	 SCS Same-Spin Energy      =      -0.1560148822944993 [Eh]
	 SCS Opposite-Spin Energy  =      -1.7440886494245997 [Eh]
	 SCS Correlation Energy    =      -1.9001035317190991 [Eh]
	 SCS Total Energy          =    -643.9038330651915203 [Eh]
	-----------------------------------------------------------

  Dipole Moment: [D]
     X:    -2.1502      Y:     0.0554      Z:     0.8759     Total:     2.3224

*** Psi4 exiting successfully. Buy a developer a beer!
