                               Psi4 1.4a3.dev225

  ==> Input File <==

--------------------------------------------------------------------------
#psi4
#
memory 32 gb

molecule  {
0 1
  I        2.3447600     0.0000010    -0.2524410
  C       -0.5542210    -0.0000040     0.7369510
  C       -2.5036070    -1.2253050    -0.0650320
  C       -2.5036000     1.2253100    -0.0650260
  C       -1.2095060     1.2097510     0.4687330
  C       -1.1632902    -1.2091975     0.4877917
  C       -3.1346270     0.0000030    -0.3245500
  C        0.8217770    -0.0000070     1.3091860
  C       -3.2172620    -2.5291670    -0.3215690
  C       -3.2172620     2.5291680    -0.3215670
  H       -0.6945570     2.1508370     0.6613300
  H       -0.6945650    -2.1508430     0.6613200
  H       -4.1398900     0.0000070    -0.7462250
  H        1.0275050    -0.8925940     1.8992530
  H        1.0275050     0.8925750     1.8992610
  H       -3.9060370    -2.4424280    -1.1656010
  H       -3.8011950    -2.8333800     0.5532780
  H       -2.5084500    -3.3308180    -0.5430300
  H       -3.8015320     2.8331670     0.5531290
  H       -2.5084330     3.3309140    -0.5426230
  H       -3.9057300     2.4425370    -1.1658600
units angstrom
no_reorient  #important for SAPT in psi4, default
symmetry c1  #important for SAPT in psi4, default
}

set PROPERTIES_ORIGIN ["COM"]
properties('MP2/aug-cc-pvtz', properties = ['dipole'])
--------------------------------------------------------------------------

    Molecular point group: c1
  Charge       = 0
  Multiplicity = 1
  Basis Set: AUG-CC-PVTZ
    Blend: AUG-CC-PVTZ
  Basis Set: (AUG-CC-PVTZ AUX)
    Blend: AUG-CC-PVTZ-JKFIT + DEF2-UNIVERSAL-JKFIT

    Orbital Energies [Eh]
    ---------------------

    Doubly Occupied:

       1A    -11.288978     2A    -11.255013     3A    -11.251792
       4A    -11.250054     5A    -11.233748     6A    -11.232483
       7A    -11.231107     8A    -11.229164     9A    -11.228540
      10A     -7.705567    11A     -5.536990    12A     -5.527752
      13A     -5.527735    14A     -2.266200    15A     -2.261803
      16A     -2.261775    17A     -2.251559    18A     -2.251559
      19A     -1.163936    20A     -1.075051    21A     -1.057737
      22A     -0.969630    23A     -0.939068    24A     -0.933688
      25A     -0.847611    26A     -0.792562    27A     -0.780679
      28A     -0.685150    29A     -0.666297    30A     -0.617454
      31A     -0.588266    32A     -0.585708    33A     -0.576619
      34A     -0.573448    35A     -0.564312    36A     -0.556608
      37A     -0.526152    38A     -0.511086    39A     -0.490490
      40A     -0.483889    41A     -0.442719    42A     -0.359103
      43A     -0.356649    44A     -0.323203    45A     -0.319176

  @DF-RHF Final Energy:  -642.00475774369659

   => Energetics <=

    Nuclear Repulsion Energy =            614.4551907589888060
    One-Electron Energy =               -2203.7636762617685235
    Two-Electron Energy =                 947.3037277590830172
    Total Energy =                       -642.0047577436965867
  Basis Set: (AUG-CC-PVTZ AUX)
    Blend: AUG-CC-PVTZ-RI + DEF2-QZVPP-RI
    Molecular point group: c1

    Geometry (in Angstrom), charge = 0, multiplicity = 1:

       Center              X                  Y                   Z               Mass
    ------------   -----------------  -----------------  -----------------  -----------------
         I            2.046826146081    -0.000026312842    -0.223592352000   126.904471900000
         C           -0.852154853919    -0.000031312842     0.765799648000    12.000000000000
         C           -2.801540853919    -1.225332312842    -0.036183352000    12.000000000000
         C           -2.801533853919     1.225282687158    -0.036177352000    12.000000000000
         C           -1.507439853919     1.209723687158     0.497581648000    12.000000000000
         C           -1.461224053919    -1.209224812842     0.516640348000    12.000000000000
         C           -3.432560853919    -0.000024312842    -0.295701352000    12.000000000000
         C            0.523843146081    -0.000034312842     1.338034648000    12.000000000000
         C           -3.515195853919    -2.529194312842    -0.292720352000    12.000000000000
         C           -3.515195853919     2.529140687158    -0.292718352000    12.000000000000
         H           -0.992490853919     2.150809687158     0.690178648000     1.007825032230
         H           -0.992498853919    -2.150870312842     0.690168648000     1.007825032230
         H           -4.437823853919    -0.000020312842    -0.717376352000     1.007825032230
         H            0.729571146081    -0.892621312842     1.928101648000     1.007825032230
         H            0.729571146081     0.892547687158     1.928109648000     1.007825032230
         H           -4.203970853919    -2.442455312842    -1.136752352000     1.007825032230
         H           -4.099128853919    -2.833407312842     0.582126648000     1.007825032230
         H           -2.806383853919    -3.330845312842    -0.514181352000     1.007825032230
         H           -4.099465853919     2.833139687158     0.581977648000     1.007825032230
         H           -2.806366853919     3.330886687158    -0.513774352000     1.007825032230
         H           -4.203663853919     2.442509687158    -1.137011352000     1.007825032230

  Basis Set: AUG-CC-PVTZ
    Blend: AUG-CC-PVTZ
  Basis Set: (AUG-CC-PVTZ AUX)
    Blend: AUG-CC-PVTZ-JKFIT + DEF2-UNIVERSAL-JKFIT
	 Reference Energy          =    -642.0047577436965867 [Eh]
	 Singles Energy            =      -0.0000000000000000 [Eh]
	 Same-Spin Energy          =      -0.4674566416089172 [Eh]
	 Opposite-Spin Energy      =      -1.4526852520148539 [Eh]
	 Correlation Energy        =      -1.9201418936237711 [Eh]
	 Total Energy              =    -643.9248996373203227 [Eh]

	 ================> DF-SCS-MP2 Energies <==================
	-----------------------------------------------------------
	 SCS Same-Spin Scale       =       0.3333333333333333 [-]
	 SCS Opposite-Spin Scale   =       1.2000000000000000 [-]
	 SCS Same-Spin Energy      =      -0.1558188805363057 [Eh]
	 SCS Opposite-Spin Energy  =      -1.7432223024178246 [Eh]
	 SCS Correlation Energy    =      -1.8990411829541303 [Eh]
	 SCS Total Energy          =    -643.9037989266506656 [Eh]
	-----------------------------------------------------------

  Dipole Moment: [D]
     X:    -2.1334      Y:    -0.0276      Z:     0.8840     Total:     2.3095

*** Psi4 exiting successfully. Buy a developer a beer!
