                               Psi4 1.4a3.dev225

  ==> Input File <==

--------------------------------------------------------------------------
#psi4
#
memory 32 gb

molecule  {
0 1
  I        2.3447600     0.0000010    -0.2524410
  C       -0.5324005    -0.0921619     0.6939346
  C       -2.5036070    -1.2253050    -0.0650320
  C       -2.5036000     1.2253100    -0.0650260
  C       -1.2095060     1.2097510     0.4687330
  C       -1.2095100    -1.2097530     0.4687280
  C       -3.1346270     0.0000030    -0.3245500
  C        0.8217770    -0.0000070     1.3091860
  C       -3.2172620    -2.5291670    -0.3215690
  C       -3.2172620     2.5291680    -0.3215670
  H       -0.6945570     2.1508370     0.6613300
  H       -0.6945650    -2.1508430     0.6613200
  H       -4.1398900     0.0000070    -0.7462250
  H        1.0275050    -0.8925940     1.8992530
  H        1.0275050     0.8925750     1.8992610
  H       -3.9060370    -2.4424280    -1.1656010
  H       -3.8011950    -2.8333800     0.5532780
  H       -2.5084500    -3.3308180    -0.5430300
  H       -3.8015320     2.8331670     0.5531290
  H       -2.5084330     3.3309140    -0.5426230
  H       -3.9057300     2.4425370    -1.1658600
units angstrom
no_reorient  #important for SAPT in psi4, default
symmetry c1  #important for SAPT in psi4, default
}

set PROPERTIES_ORIGIN ["COM"]
properties('MP2/aug-cc-pvtz', properties = ['dipole'])
--------------------------------------------------------------------------

    Molecular point group: c1
  Charge       = 0
  Multiplicity = 1
  Basis Set: AUG-CC-PVTZ
    Blend: AUG-CC-PVTZ
  Basis Set: (AUG-CC-PVTZ AUX)
    Blend: AUG-CC-PVTZ-JKFIT + DEF2-UNIVERSAL-JKFIT

    Orbital Energies [Eh]
    ---------------------

    Doubly Occupied:

       1A    -11.291774     2A    -11.254107     3A    -11.250316
       4A    -11.247883     5A    -11.238346     6A    -11.231191
       7A    -11.228863     8A    -11.227520     9A    -11.226708
      10A     -7.705817    11A     -5.537240    12A     -5.528009
      13A     -5.527979    14A     -2.266455    15A     -2.262065
      16A     -2.262028    17A     -2.251819    18A     -2.251817
      19A     -1.166143    20A     -1.075639    21A     -1.059701
      22A     -0.972589    23A     -0.940883    24A     -0.928560
      25A     -0.848403    26A     -0.796544    27A     -0.777890
      28A     -0.682390    29A     -0.666110    30A     -0.623208
      31A     -0.589830    32A     -0.585868    33A     -0.574926
      34A     -0.572408    35A     -0.560728    36A     -0.555389
      37A     -0.526905    38A     -0.511656    39A     -0.495038
      40A     -0.475139    41A     -0.442821    42A     -0.360413
      43A     -0.356891    44A     -0.332467    45A     -0.311657

  @DF-RHF Final Energy:  -641.99654898448102

   => Energetics <=

    Nuclear Repulsion Energy =            614.8745324245447819
    One-Electron Energy =               -2204.5819035599938616
    Two-Electron Energy =                 947.7108221509681698
    Total Energy =                       -641.9965489844810236
  Basis Set: (AUG-CC-PVTZ AUX)
    Blend: AUG-CC-PVTZ-RI + DEF2-QZVPP-RI
    Molecular point group: c1

    Geometry (in Angstrom), charge = 0, multiplicity = 1:

       Center              X                  Y                   Z               Mass
    ------------   -----------------  -----------------  -----------------  -----------------
         I            2.048016401574     0.004496465827    -0.220563938070   126.904471900000
         C           -0.829144098426    -0.087666434173     0.725811661930    12.000000000000
         C           -2.800350598426    -1.220809534173    -0.033154938070    12.000000000000
         C           -2.800343598426     1.229805465827    -0.033148938070    12.000000000000
         C           -1.506249598426     1.214246465827     0.500610061930    12.000000000000
         C           -1.506253598426    -1.205257534173     0.500605061930    12.000000000000
         C           -3.431370598426     0.004498465827    -0.292672938070    12.000000000000
         C            0.525033401574     0.004488465827     1.341063061930    12.000000000000
         C           -3.514005598426    -2.524671534173    -0.289691938070    12.000000000000
         C           -3.514005598426     2.533663465827    -0.289689938070    12.000000000000
         H           -0.991300598426     2.155332465827     0.693207061930     1.007825032230
         H           -0.991308598426    -2.146347534173     0.693197061930     1.007825032230
         H           -4.436633598426     0.004502465827    -0.714347938070     1.007825032230
         H            0.730761401574    -0.888098534173     1.931130061930     1.007825032230
         H            0.730761401574     0.897070465827     1.931138061930     1.007825032230
         H           -4.202780598426    -2.437932534173    -1.133723938070     1.007825032230
         H           -4.097938598426    -2.828884534173     0.585155061930     1.007825032230
         H           -2.805193598426    -3.326322534173    -0.511152938070     1.007825032230
         H           -4.098275598426     2.837662465827     0.585006061930     1.007825032230
         H           -2.805176598426     3.335409465827    -0.510745938070     1.007825032230
         H           -4.202473598426     2.447032465827    -1.133982938070     1.007825032230

  Basis Set: AUG-CC-PVTZ
    Blend: AUG-CC-PVTZ
  Basis Set: (AUG-CC-PVTZ AUX)
    Blend: AUG-CC-PVTZ-JKFIT + DEF2-UNIVERSAL-JKFIT
	 Reference Energy          =    -641.9965489844810236 [Eh]
	 Singles Energy            =      -0.0000000000000000 [Eh]
	 Same-Spin Energy          =      -0.4674604554709668 [Eh]
	 Opposite-Spin Energy      =      -1.4532762947841289 [Eh]
	 Correlation Energy        =      -1.9207367502550956 [Eh]
	 Total Energy              =    -643.9172857347360832 [Eh]

	 ================> DF-SCS-MP2 Energies <==================
	-----------------------------------------------------------
	 SCS Same-Spin Scale       =       0.3333333333333333 [-]
	 SCS Opposite-Spin Scale   =       1.2000000000000000 [-]
	 SCS Same-Spin Energy      =      -0.1558201518236556 [Eh]
	 SCS Opposite-Spin Energy  =      -1.7439315537409545 [Eh]
	 SCS Correlation Energy    =      -1.8997517055646100 [Eh]
	 SCS Total Energy          =    -643.8963006900456776 [Eh]
	-----------------------------------------------------------

  Dipole Moment: [D]
     X:    -2.0890      Y:     0.0009      Z:     0.9188     Total:     2.2822

*** Psi4 exiting successfully. Buy a developer a beer!
