                               Psi4 1.4a3.dev225

  ==> Input File <==

--------------------------------------------------------------------------
#psi4
#
memory 32 gb

molecule  {
0 1
  I        2.3447600     0.0000010    -0.2524410
  C       -0.5542210    -0.0000040     0.7369510
  C       -2.5036070    -1.2253050    -0.0650320
  C       -2.5036000     1.2253100    -0.0650260
  C       -1.2095060     1.2097510     0.4687330
  C       -1.2095100    -1.2097530     0.4687280
  C       -3.1346270     0.0000030    -0.3245500
  C        0.8217770    -0.0000070     1.3091860
  C       -3.2172620    -2.5291670    -0.3215690
  C       -3.3118891     2.7020513    -0.3555827
  H       -0.6945570     2.1508370     0.6613300
  H       -0.6945650    -2.1508430     0.6613200
  H       -4.1398900     0.0000070    -0.7462250
  H        1.0275050    -0.8925940     1.8992530
  H        1.0275050     0.8925750     1.8992610
  H       -3.9060370    -2.4424280    -1.1656010
  H       -3.8011950    -2.8333800     0.5532780
  H       -2.5084500    -3.3308180    -0.5430300
  H       -3.8015320     2.8331670     0.5531290
  H       -2.5084330     3.3309140    -0.5426230
  H       -3.9057300     2.4425370    -1.1658600
units angstrom
no_reorient  #important for SAPT in psi4, default
symmetry c1  #important for SAPT in psi4, default
}

set PROPERTIES_ORIGIN ["COM"]
properties('MP2/aug-cc-pvtz', properties = ['dipole'])
--------------------------------------------------------------------------

    Molecular point group: c1
  Charge       = 0
  Multiplicity = 1
  Basis Set: AUG-CC-PVTZ
    Blend: AUG-CC-PVTZ
  Basis Set: (AUG-CC-PVTZ AUX)
    Blend: AUG-CC-PVTZ-JKFIT + DEF2-UNIVERSAL-JKFIT

    Orbital Energies [Eh]
    ---------------------

    Doubly Occupied:

       1A    -11.290000     2A    -11.255018     3A    -11.253575
       4A    -11.248696     5A    -11.233218     6A    -11.232717
       7A    -11.231265     8A    -11.228568     9A    -11.227905
      10A     -7.705844    11A     -5.537282    12A     -5.528014
      13A     -5.528003    14A     -2.266494    15A     -2.262085
      16A     -2.262061    17A     -2.251815    18A     -2.251815
      19A     -1.161574    20A     -1.070688    21A     -1.047138
      22A     -0.968981    23A     -0.942749    24A     -0.933925
      25A     -0.848450    26A     -0.790399    27A     -0.781456
      28A     -0.681403    29A     -0.664266    30A     -0.610016
      31A     -0.603912    32A     -0.596197    33A     -0.578844
      34A     -0.576065    35A     -0.566699    36A     -0.546562
      37A     -0.533856    38A     -0.512830    39A     -0.490116
      40A     -0.449951    41A     -0.444548    42A     -0.359179
      43A     -0.356937    44A     -0.326360    45A     -0.318610

  @DF-RHF Final Energy:  -641.98047775794510

   => Energetics <=

    Nuclear Repulsion Energy =            611.1720422895649563
    One-Electron Energy =               -2197.1928754089899485
    Two-Electron Energy =                 944.0403553614797829
    Total Energy =                       -641.9804777579450956
  Basis Set: (AUG-CC-PVTZ AUX)
    Blend: AUG-CC-PVTZ-RI + DEF2-QZVPP-RI
    Molecular point group: c1

    Geometry (in Angstrom), charge = 0, multiplicity = 1:

       Center              X                  Y                   Z               Mass
    ------------   -----------------  -----------------  -----------------  -----------------
         I            2.053696990587    -0.008432870017    -0.221003013479   126.904471900000
         C           -0.845284009413    -0.008437870017     0.768388986521    12.000000000000
         C           -2.794670009413    -1.233738870017    -0.033594013479    12.000000000000
         C           -2.794663009413     1.216876129983    -0.033588013479    12.000000000000
         C           -1.500569009413     1.201317129983     0.500170986521    12.000000000000
         C           -1.500573009413    -1.218186870017     0.500165986521    12.000000000000
         C           -3.425690009413    -0.008430870017    -0.293112013479    12.000000000000
         C            0.530713990587    -0.008440870017     1.340623986521    12.000000000000
         C           -3.508325009413    -2.537600870017    -0.290131013479    12.000000000000
         C           -3.602952109413     2.693617429983    -0.324144713479    12.000000000000
         H           -0.985620009413     2.142403129983     0.692767986521     1.007825032230
         H           -0.985628009413    -2.159276870017     0.692757986521     1.007825032230
         H           -4.430953009413    -0.008426870017    -0.714787013479     1.007825032230
         H            0.736441990587    -0.901027870017     1.930690986521     1.007825032230
         H            0.736441990587     0.884141129983     1.930698986521     1.007825032230
         H           -4.197100009413    -2.450861870017    -1.134163013479     1.007825032230
         H           -4.092258009413    -2.841813870017     0.584715986521     1.007825032230
         H           -2.799513009413    -3.339251870017    -0.511592013479     1.007825032230
         H           -4.092595009413     2.824733129983     0.584566986521     1.007825032230
         H           -2.799496009413     3.322480129983    -0.511185013479     1.007825032230
         H           -4.196793009413     2.434103129983    -1.134422013479     1.007825032230

  Basis Set: AUG-CC-PVTZ
    Blend: AUG-CC-PVTZ
  Basis Set: (AUG-CC-PVTZ AUX)
    Blend: AUG-CC-PVTZ-JKFIT + DEF2-UNIVERSAL-JKFIT
	 Reference Energy          =    -641.9804777579450956 [Eh]
	 Singles Energy            =      -0.0000000000000000 [Eh]
	 Same-Spin Energy          =      -0.4673969372364508 [Eh]
	 Opposite-Spin Energy      =      -1.4536682233419691 [Eh]
	 Correlation Energy        =      -1.9210651605784199 [Eh]
	 Total Energy              =    -643.9015429185235462 [Eh]

	 ================> DF-SCS-MP2 Energies <==================
	-----------------------------------------------------------
	 SCS Same-Spin Scale       =       0.3333333333333333 [-]
	 SCS Opposite-Spin Scale   =       1.2000000000000000 [-]
	 SCS Same-Spin Energy      =      -0.1557989790788169 [Eh]
	 SCS Opposite-Spin Energy  =      -1.7444018680103628 [Eh]
	 SCS Correlation Energy    =      -1.9002008470891798 [Eh]
	 SCS Total Energy          =    -643.8806786050342907 [Eh]
	-----------------------------------------------------------

  Dipole Moment: [D]
     X:    -2.0653      Y:    -0.0625      Z:     0.8933     Total:     2.2511

*** Psi4 exiting successfully. Buy a developer a beer!
