                               Psi4 1.4a3.dev225

  ==> Input File <==

--------------------------------------------------------------------------
#psi4
#
memory 32 gb

molecule  {
0 1
  I        2.3447600     0.0000010    -0.2524410
  C       -0.5542210    -0.0000040     0.7369510
  C       -2.5036070    -1.2253050    -0.0650320
  C       -2.5036000     1.2253100    -0.0650260
  C       -1.2095060     1.2097510     0.4687330
  C       -1.2095100    -1.2097530     0.4687280
  C       -3.1346270     0.0000030    -0.3245500
  C        0.8217770    -0.0000070     1.3091860
  C       -3.2077994    -2.5118786    -0.3181675
  C       -3.2172620     2.5291680    -0.3215670
  H       -0.6945570     2.1508370     0.6613300
  H       -0.6945650    -2.1508430     0.6613200
  H       -4.1398900     0.0000070    -0.7462250
  H        1.0275050    -0.8925940     1.8992530
  H        1.0275050     0.8925750     1.8992610
  H       -3.9060370    -2.4424280    -1.1656010
  H       -3.8011950    -2.8333800     0.5532780
  H       -2.5084500    -3.3308180    -0.5430300
  H       -3.8015320     2.8331670     0.5531290
  H       -2.5084330     3.3309140    -0.5426230
  H       -3.9057300     2.4425370    -1.1658600
units angstrom
no_reorient  #important for SAPT in psi4, default
symmetry c1  #important for SAPT in psi4, default
}

set PROPERTIES_ORIGIN ["COM"]
properties('MP2/aug-cc-pvtz', properties = ['dipole'])
--------------------------------------------------------------------------

    Molecular point group: c1
  Charge       = 0
  Multiplicity = 1
  Basis Set: AUG-CC-PVTZ
    Blend: AUG-CC-PVTZ
  Basis Set: (AUG-CC-PVTZ AUX)
    Blend: AUG-CC-PVTZ-JKFIT + DEF2-UNIVERSAL-JKFIT

    Orbital Energies [Eh]
    ---------------------

    Doubly Occupied:

       1A    -11.290394     2A    -11.254193     3A    -11.249308
       4A    -11.248360     5A    -11.233317     6A    -11.233260
       7A    -11.231290     8A    -11.228967     9A    -11.228346
      10A     -7.706228    11A     -5.537675    12A     -5.528394
      13A     -5.528383    14A     -2.266888    15A     -2.262473
      16A     -2.262450    17A     -2.252189    18A     -2.252189
      19A     -1.165826    20A     -1.073817    21A     -1.062761
      22A     -0.970200    23A     -0.938481    24A     -0.932721
      25A     -0.849220    26A     -0.790957    27A     -0.783276
      28A     -0.682432    29A     -0.667450    30A     -0.619355
      31A     -0.588954    32A     -0.585410    33A     -0.574382
      34A     -0.572232    35A     -0.565044    36A     -0.554308
      37A     -0.523923    38A     -0.511040    39A     -0.489868
      40A     -0.486642    41A     -0.444246    42A     -0.359466
      43A     -0.357234    44A     -0.324643    45A     -0.318920

  @DF-RHF Final Energy:  -642.00728433029099

   => Energetics <=

    Nuclear Repulsion Energy =            615.0038999804741024
    One-Electron Energy =               -2204.8481410615063396
    Two-Electron Energy =                 947.8369567507411375
    Total Energy =                       -642.0072843302909860
  Basis Set: (AUG-CC-PVTZ AUX)
    Blend: AUG-CC-PVTZ-RI + DEF2-QZVPP-RI
    Molecular point group: c1

    Geometry (in Angstrom), charge = 0, multiplicity = 1:

       Center              X                  Y                   Z               Mass
    ------------   -----------------  -----------------  -----------------  -----------------
         I            2.048619249129    -0.000842583233    -0.222828312885   126.904471900000
         C           -0.850361750871    -0.000847583233     0.766563687115    12.000000000000
         C           -2.799747750871    -1.226148583233    -0.035419312885    12.000000000000
         C           -2.799740750871     1.224466416767    -0.035413312885    12.000000000000
         C           -1.505646750871     1.208907416767     0.498345687115    12.000000000000
         C           -1.505650750871    -1.210596583233     0.498340687115    12.000000000000
         C           -3.430767750871    -0.000840583233    -0.294937312885    12.000000000000
         C            0.525636249129    -0.000850583233     1.338798687115    12.000000000000
         C           -3.503940150871    -2.512722183233    -0.288554812885    12.000000000000
         C           -3.513402750871     2.528324416767    -0.291954312885    12.000000000000
         H           -0.990697750871     2.149993416767     0.690942687115     1.007825032230
         H           -0.990705750871    -2.151686583233     0.690932687115     1.007825032230
         H           -4.436030750871    -0.000836583233    -0.716612312885     1.007825032230
         H            0.731364249129    -0.893437583233     1.928865687115     1.007825032230
         H            0.731364249129     0.891731416767     1.928873687115     1.007825032230
         H           -4.202177750871    -2.443271583233    -1.135988312885     1.007825032230
         H           -4.097335750871    -2.834223583233     0.582890687115     1.007825032230
         H           -2.804590750871    -3.331661583233    -0.513417312885     1.007825032230
         H           -4.097672750871     2.832323416767     0.582741687115     1.007825032230
         H           -2.804573750871     3.330070416767    -0.513010312885     1.007825032230
         H           -4.201870750871     2.441693416767    -1.136247312885     1.007825032230

  Basis Set: AUG-CC-PVTZ
    Blend: AUG-CC-PVTZ
  Basis Set: (AUG-CC-PVTZ AUX)
    Blend: AUG-CC-PVTZ-JKFIT + DEF2-UNIVERSAL-JKFIT
	 Reference Energy          =    -642.0072843302909860 [Eh]
	 Singles Energy            =      -0.0000000000000000 [Eh]
	 Same-Spin Energy          =      -0.4677483442440251 [Eh]
	 Opposite-Spin Energy      =      -1.4527375105426157 [Eh]
	 Correlation Energy        =      -1.9204858547866408 [Eh]
	 Total Energy              =    -643.9277701850776339 [Eh]

	 ================> DF-SCS-MP2 Energies <==================
	-----------------------------------------------------------
	 SCS Same-Spin Scale       =       0.3333333333333333 [-]
	 SCS Opposite-Spin Scale   =       1.2000000000000000 [-]
	 SCS Same-Spin Energy      =      -0.1559161147480083 [Eh]
	 SCS Opposite-Spin Energy  =      -1.7432850126511388 [Eh]
	 SCS Correlation Energy    =      -1.8992011273991471 [Eh]
	 SCS Total Energy          =    -643.9064854576901098 [Eh]
	-----------------------------------------------------------

  Dipole Moment: [D]
     X:    -2.1000      Y:    -0.0011      Z:     0.8857     Total:     2.2791

*** Psi4 exiting successfully. Buy a developer a beer!
