                               Psi4 1.4a3.dev225

  ==> Input File <==

--------------------------------------------------------------------------
#psi4
#
memory 32 gb

molecule  {
0 1
  I        2.3447600     0.0000010    -0.2524410
  C       -0.5542210    -0.0000040     0.7369510
  C       -2.5036070    -1.2253050    -0.0650320
  C       -2.5036000     1.2253100    -0.0650260
  C       -1.0246269     1.2075282     0.5449878
  C       -1.2095100    -1.2097530     0.4687280
  C       -3.1346270     0.0000030    -0.3245500
  C        0.8217770    -0.0000070     1.3091860
  C       -3.2172620    -2.5291670    -0.3215690
  C       -3.2172620     2.5291680    -0.3215670
  H       -0.6945570     2.1508370     0.6613300
  H       -0.6945650    -2.1508430     0.6613200
  H       -4.1398900     0.0000070    -0.7462250
  H        1.0275050    -0.8925940     1.8992530
  H        1.0275050     0.8925750     1.8992610
  H       -3.9060370    -2.4424280    -1.1656010
  H       -3.8011950    -2.8333800     0.5532780
  H       -2.5084500    -3.3308180    -0.5430300
  H       -3.8015320     2.8331670     0.5531290
  H       -2.5084330     3.3309140    -0.5426230
  H       -3.9057300     2.4425370    -1.1658600
units angstrom
no_reorient  #important for SAPT in psi4, default
symmetry c1  #important for SAPT in psi4, default
}

set PROPERTIES_ORIGIN ["COM"]
properties('MP2/aug-cc-pvtz', properties = ['dipole'])
--------------------------------------------------------------------------

    Molecular point group: c1
  Charge       = 0
  Multiplicity = 1
  Basis Set: AUG-CC-PVTZ
    Blend: AUG-CC-PVTZ
  Basis Set: (AUG-CC-PVTZ AUX)
    Blend: AUG-CC-PVTZ-JKFIT + DEF2-UNIVERSAL-JKFIT

    Orbital Energies [Eh]
    ---------------------

    Doubly Occupied:

       1A    -11.285354     2A    -11.267025     3A    -11.253036
       4A    -11.245977     5A    -11.235325     6A    -11.231212
       7A    -11.230525     8A    -11.230372     9A    -11.229482
      10A     -7.703713    11A     -5.535057    12A     -5.525961
      13A     -5.525919    14A     -2.264259    15A     -2.259923
      16A     -2.259874    17A     -2.249806    18A     -2.249805
      19A     -1.163293    20A     -1.083016    21A     -1.049369
      22A     -0.967810    23A     -0.941773    24A     -0.935871
      25A     -0.843889    26A     -0.796516    27A     -0.776498
      28A     -0.695538    29A     -0.665953    30A     -0.617495
      31A     -0.589610    32A     -0.586342    33A     -0.585087
      34A     -0.573840    35A     -0.565185    36A     -0.556360
      37A     -0.525598    38A     -0.511830    39A     -0.499056
      40A     -0.458286    41A     -0.436847    42A     -0.359094
      43A     -0.355134    44A     -0.333778    45A     -0.307937

  @DF-RHF Final Energy:  -641.96603513428443

   => Energetics <=

    Nuclear Repulsion Energy =            614.1071370821864548
    One-Electron Energy =               -2203.0190856682256708
    Two-Electron Energy =                 946.9459134517547909
    Total Energy =                       -641.9660351342844251
  Basis Set: (AUG-CC-PVTZ AUX)
    Blend: AUG-CC-PVTZ-RI + DEF2-QZVPP-RI
    Molecular point group: c1

    Geometry (in Angstrom), charge = 0, multiplicity = 1:

       Center              X                  Y                   Z               Mass
    ------------   -----------------  -----------------  -----------------  -----------------
         I            2.040062017872     0.000109219195    -0.226382268961   126.904471900000
         C           -0.858918982128     0.000104219195     0.763009731039    12.000000000000
         C           -2.808304982128    -1.225196780805    -0.038973268961    12.000000000000
         C           -2.808297982128     1.225418219195    -0.038967268961    12.000000000000
         C           -1.329324882128     1.207636419195     0.571046531039    12.000000000000
         C           -1.514207982128    -1.209644780805     0.494786731039    12.000000000000
         C           -3.439324982128     0.000111219195    -0.298491268961    12.000000000000
         C            0.517079017872     0.000101219195     1.335244731039    12.000000000000
         C           -3.521959982128    -2.529058780805    -0.295510268961    12.000000000000
         C           -3.521959982128     2.529276219195    -0.295508268961    12.000000000000
         H           -0.999254982128     2.150945219195     0.687388731039     1.007825032230
         H           -0.999262982128    -2.150734780805     0.687378731039     1.007825032230
         H           -4.444587982128     0.000115219195    -0.720166268961     1.007825032230
         H            0.722807017872    -0.892485780805     1.925311731039     1.007825032230
         H            0.722807017872     0.892683219195     1.925319731039     1.007825032230
         H           -4.210734982128    -2.442319780805    -1.139542268961     1.007825032230
         H           -4.105892982128    -2.833271780805     0.579336731039     1.007825032230
         H           -2.813147982128    -3.330709780805    -0.516971268961     1.007825032230
         H           -4.106229982128     2.833275219195     0.579187731039     1.007825032230
         H           -2.813130982128     3.331022219195    -0.516564268961     1.007825032230
         H           -4.210427982128     2.442645219195    -1.139801268961     1.007825032230

  Basis Set: AUG-CC-PVTZ
    Blend: AUG-CC-PVTZ
  Basis Set: (AUG-CC-PVTZ AUX)
    Blend: AUG-CC-PVTZ-JKFIT + DEF2-UNIVERSAL-JKFIT
	 Reference Energy          =    -641.9660351342844251 [Eh]
	 Singles Energy            =      -0.0000000000000000 [Eh]
	 Same-Spin Energy          =      -0.4670645187635559 [Eh]
	 Opposite-Spin Energy      =      -1.4544877748697667 [Eh]
	 Correlation Energy        =      -1.9215522936333227 [Eh]
	 Total Energy              =    -643.8875874279177651 [Eh]

	 ================> DF-SCS-MP2 Energies <==================
	-----------------------------------------------------------
	 SCS Same-Spin Scale       =       0.3333333333333333 [-]
	 SCS Opposite-Spin Scale   =       1.2000000000000000 [-]
	 SCS Same-Spin Energy      =      -0.1556881729211853 [Eh]
	 SCS Opposite-Spin Energy  =      -1.7453853298437199 [Eh]
	 SCS Correlation Energy    =      -1.9010735027649051 [Eh]
	 SCS Total Energy          =    -643.8671086370493413 [Eh]
	-----------------------------------------------------------

  Dipole Moment: [D]
     X:    -2.2303      Y:     0.0814      Z:     0.8843     Total:     2.4006

*** Psi4 exiting successfully. Buy a developer a beer!
