                               Psi4 1.4a3.dev225

  ==> Input File <==

--------------------------------------------------------------------------
#psi4
#
memory 32 gb

molecule  {
0 1
  I        2.4996514     0.0000001    -0.0846912
  C       -0.5542210    -0.0000040     0.7369510
  C       -2.5036070    -1.2253050    -0.0650320
  C       -2.5036000     1.2253100    -0.0650260
  C       -1.2095060     1.2097510     0.4687330
  C       -1.2095100    -1.2097530     0.4687280
  C       -3.1346270     0.0000030    -0.3245500
  C        0.8217770    -0.0000070     1.3091860
  C       -3.2172620    -2.5291670    -0.3215690
  C       -3.2172620     2.5291680    -0.3215670
  H       -0.6945570     2.1508370     0.6613300
  H       -0.6945650    -2.1508430     0.6613200
  H       -4.1398900     0.0000070    -0.7462250
  H        1.0275050    -0.8925940     1.8992530
  H        1.0275050     0.8925750     1.8992610
  H       -3.9060370    -2.4424280    -1.1656010
  H       -3.8011950    -2.8333800     0.5532780
  H       -2.5084500    -3.3308180    -0.5430300
  H       -3.8015320     2.8331670     0.5531290
  H       -2.5084330     3.3309140    -0.5426230
  H       -3.9057300     2.4425370    -1.1658600
units angstrom
no_reorient  #important for SAPT in psi4, default
symmetry c1  #important for SAPT in psi4, default
}

set PROPERTIES_ORIGIN ["COM"]
properties('MP2/aug-cc-pvtz', properties = ['dipole'])
--------------------------------------------------------------------------

    Molecular point group: c1
  Charge       = 0
  Multiplicity = 1
  Basis Set: AUG-CC-PVTZ
    Blend: AUG-CC-PVTZ
  Basis Set: (AUG-CC-PVTZ AUX)
    Blend: AUG-CC-PVTZ-JKFIT + DEF2-UNIVERSAL-JKFIT

    Orbital Energies [Eh]
    ---------------------

    Doubly Occupied:

       1A    -11.289543     2A    -11.255272     3A    -11.250228
       4A    -11.250200     5A    -11.234939     6A    -11.234895
       7A    -11.233023     8A    -11.229099     9A    -11.229098
      10A     -7.705919    11A     -5.537343    12A     -5.528122
      13A     -5.528064    14A     -2.266542    15A     -2.262155
      16A     -2.262120    17A     -2.251910    18A     -2.251908
      19A     -1.166133    20A     -1.072823    21A     -1.062239
      22A     -0.971209    23A     -0.939941    24A     -0.933982
      25A     -0.850087    26A     -0.791953    27A     -0.782103
      28A     -0.683487    29A     -0.667779    30A     -0.617846
      31A     -0.589179    32A     -0.586784    33A     -0.574321
      34A     -0.573873    35A     -0.565315    36A     -0.556641
      37A     -0.526889    38A     -0.510613    39A     -0.490706
      40A     -0.486521    41A     -0.444095    42A     -0.357466
      43A     -0.355824    44A     -0.326156    45A     -0.322265

  @DF-RHF Final Energy:  -642.00719594195448

   => Energetics <=

    Nuclear Repulsion Energy =            610.3796818913366451
    One-Electron Energy =               -2195.5605341995287745
    Two-Electron Energy =                 943.1736563662377648
    Total Energy =                       -642.0071959419544783
  Basis Set: (AUG-CC-PVTZ AUX)
    Blend: AUG-CC-PVTZ-RI + DEF2-QZVPP-RI
    Molecular point group: c1

    Geometry (in Angstrom), charge = 0, multiplicity = 1:

       Center              X                  Y                   Z               Mass
    ------------   -----------------  -----------------  -----------------  -----------------
         I            2.124065075561     0.000000350062    -0.141453302557   126.904471900000
         C           -0.929807324439    -0.000003749938     0.680188897443    12.000000000000
         C           -2.879193324439    -1.225304749938    -0.121794102557    12.000000000000
         C           -2.879186324439     1.225310250062    -0.121788102557    12.000000000000
         C           -1.585092324439     1.209751250062     0.411970897443    12.000000000000
         C           -1.585096324439    -1.209752749938     0.411965897443    12.000000000000
         C           -3.510213324439     0.000003250062    -0.381312102557    12.000000000000
         C            0.446190675561    -0.000006749938     1.252423897443    12.000000000000
         C           -3.592848324439    -2.529166749938    -0.378331102557    12.000000000000
         C           -3.592848324439     2.529168250062    -0.378329102557    12.000000000000
         H           -1.070143324439     2.150837250062     0.604567897443     1.007825032230
         H           -1.070151324439    -2.150842749938     0.604557897443     1.007825032230
         H           -4.515476324439     0.000007250062    -0.802987102557     1.007825032230
         H            0.651918675561    -0.892593749938     1.842490897443     1.007825032230
         H            0.651918675561     0.892575250062     1.842498897443     1.007825032230
         H           -4.281623324439    -2.442427749938    -1.222363102557     1.007825032230
         H           -4.176781324439    -2.833379749938     0.496515897443     1.007825032230
         H           -2.884036324439    -3.330817749938    -0.599792102557     1.007825032230
         H           -4.177118324439     2.833167250062     0.496366897443     1.007825032230
         H           -2.884019324439     3.330914250062    -0.599385102557     1.007825032230
         H           -4.281316324439     2.442537250062    -1.222622102557     1.007825032230

  Basis Set: AUG-CC-PVTZ
    Blend: AUG-CC-PVTZ
  Basis Set: (AUG-CC-PVTZ AUX)
    Blend: AUG-CC-PVTZ-JKFIT + DEF2-UNIVERSAL-JKFIT
	 Reference Energy          =    -642.0071959419544783 [Eh]
	 Singles Energy            =      -0.0000000000000000 [Eh]
	 Same-Spin Energy          =      -0.4672611822735256 [Eh]
	 Opposite-Spin Energy      =      -1.4521154079847385 [Eh]
	 Correlation Energy        =      -1.9193765902582640 [Eh]
	 Total Energy              =    -643.9265725322127309 [Eh]

	 ================> DF-SCS-MP2 Energies <==================
	-----------------------------------------------------------
	 SCS Same-Spin Scale       =       0.3333333333333333 [-]
	 SCS Opposite-Spin Scale   =       1.2000000000000000 [-]
	 SCS Same-Spin Energy      =      -0.1557537274245085 [Eh]
	 SCS Opposite-Spin Energy  =      -1.7425384895816862 [Eh]
	 SCS Correlation Energy    =      -1.8982922170061947 [Eh]
	 SCS Total Energy          =    -643.9054881589606794 [Eh]
	-----------------------------------------------------------

  Dipole Moment: [D]
     X:    -2.2971      Y:    -0.0000      Z:     0.7946     Total:     2.4307

*** Psi4 exiting successfully. Buy a developer a beer!
