                               Psi4 1.4a3.dev225

  ==> Input File <==

--------------------------------------------------------------------------
#psi4
#
memory 32 gb

molecule  {
0 1
  I        2.3447600     0.0000010    -0.2524410
  C       -0.5542210    -0.0000040     0.7369510
  C       -2.5036070    -1.2253050    -0.0650320
  C       -2.5036000     1.2253100    -0.0650260
  C       -1.2095060     1.2097510     0.4687330
  C       -1.2095100    -1.2097530     0.4687280
  C       -3.1346270     0.0000030    -0.3245500
  C        0.8217770    -0.0000070     1.3091860
  C       -3.2172620    -2.5291670    -0.3215690
  C       -3.2172620     2.5291680    -0.3215670
  H       -0.6945570     2.1508370     0.6613300
  H       -0.6945650    -2.1508430     0.6613200
  H       -4.1398900     0.0000070    -0.7462250
  H        1.0275050    -0.8925940     1.8992530
  H        1.0275050     0.8925750     1.8992610
  H       -3.9060370    -2.4424280    -1.1656010
  H       -3.8011950    -2.8333800     0.5532780
  H       -2.6381799    -3.1840963    -0.5024972
  H       -3.8015320     2.8331670     0.5531290
  H       -2.5084330     3.3309140    -0.5426230
  H       -3.9057300     2.4425370    -1.1658600
units angstrom
no_reorient  #important for SAPT in psi4, default
symmetry c1  #important for SAPT in psi4, default
}

set PROPERTIES_ORIGIN ["COM"]
properties('MP2/aug-cc-pvtz', properties = ['dipole'])
--------------------------------------------------------------------------

    Molecular point group: c1
  Charge       = 0
  Multiplicity = 1
  Basis Set: AUG-CC-PVTZ
    Blend: AUG-CC-PVTZ
  Basis Set: (AUG-CC-PVTZ AUX)
    Blend: AUG-CC-PVTZ-JKFIT + DEF2-UNIVERSAL-JKFIT

    Orbital Energies [Eh]
    ---------------------

    Doubly Occupied:

       1A    -11.290231     2A    -11.253947     3A    -11.248679
       4A    -11.247988     5A    -11.233116     6A    -11.232828
       7A    -11.230183     8A    -11.227898     9A    -11.203767
      10A     -7.706089    11A     -5.537531    12A     -5.528257
      13A     -5.528246    14A     -2.266744    15A     -2.262332
      16A     -2.262308    17A     -2.252055    18A     -2.252054
      19A     -1.165226    20A     -1.074508    21A     -1.065179
      22A     -0.976526    23A     -0.949213    24A     -0.934633
      25A     -0.848964    26A     -0.796689    27A     -0.782960
      28A     -0.682765    29A     -0.670222    30A     -0.619397
      31A     -0.602526    32A     -0.587655    33A     -0.579495
      34A     -0.572224    35A     -0.566536    36A     -0.559704
      37A     -0.530851    38A     -0.511632    39A     -0.488651
      40A     -0.485593    41A     -0.444510    42A     -0.359318
      43A     -0.357127    44A     -0.324836    45A     -0.318441

  @DF-RHF Final Energy:  -641.97363762002533

   => Energetics <=

    Nuclear Repulsion Energy =            615.6042328331722047
    One-Electron Energy =               -2205.9164707102086140
    Two-Electron Energy =                 948.3386002570109667
    Total Energy =                       -641.9736376200253289
  Basis Set: (AUG-CC-PVTZ AUX)
    Blend: AUG-CC-PVTZ-RI + DEF2-QZVPP-RI
    Molecular point group: c1

    Geometry (in Angstrom), charge = 0, multiplicity = 1:

       Center              X                  Y                   Z               Mass
    ------------   -----------------  -----------------  -----------------  -----------------
         I            2.049612361439    -0.000600334095    -0.222828442852   126.904471900000
         C           -0.849368638561    -0.000605334095     0.766563557148    12.000000000000
         C           -2.798754638561    -1.225906334095    -0.035419442852    12.000000000000
         C           -2.798747638561     1.224708665905    -0.035413442852    12.000000000000
         C           -1.504653638561     1.209149665905     0.498345557148    12.000000000000
         C           -1.504657638561    -1.210354334095     0.498340557148    12.000000000000
         C           -3.429774638561    -0.000598334095    -0.294937442852    12.000000000000
         C            0.526629361439    -0.000608334095     1.338798557148    12.000000000000
         C           -3.512409638561    -2.529768334095    -0.291956442852    12.000000000000
         C           -3.512409638561     2.528566665905    -0.291954442852    12.000000000000
         H           -0.989704638561     2.150235665905     0.690942557148     1.007825032230
         H           -0.989712638561    -2.151444334095     0.690932557148     1.007825032230
         H           -4.435037638561    -0.000594334095    -0.716612442852     1.007825032230
         H            0.732357361439    -0.893195334095     1.928865557148     1.007825032230
         H            0.732357361439     0.891973665905     1.928873557148     1.007825032230
         H           -4.201184638561    -2.443029334095    -1.135988442852     1.007825032230
         H           -4.096342638561    -2.833981334095     0.582890557148     1.007825032230
         H           -2.933327538561    -3.184697634095    -0.472884642852     1.007825032230
         H           -4.096679638561     2.832565665905     0.582741557148     1.007825032230
         H           -2.803580638561     3.330312665905    -0.513010442852     1.007825032230
         H           -4.200877638561     2.441935665905    -1.136247442852     1.007825032230

  Basis Set: AUG-CC-PVTZ
    Blend: AUG-CC-PVTZ
  Basis Set: (AUG-CC-PVTZ AUX)
    Blend: AUG-CC-PVTZ-JKFIT + DEF2-UNIVERSAL-JKFIT
	 Reference Energy          =    -641.9736376200253289 [Eh]
	 Singles Energy            =      -0.0000000000000000 [Eh]
	 Same-Spin Energy          =      -0.4676268307594506 [Eh]
	 Opposite-Spin Energy      =      -1.4518877414962426 [Eh]
	 Correlation Energy        =      -1.9195145722556930 [Eh]
	 Total Energy              =    -643.8931521922810362 [Eh]

	 ================> DF-SCS-MP2 Energies <==================
	-----------------------------------------------------------
	 SCS Same-Spin Scale       =       0.3333333333333333 [-]
	 SCS Opposite-Spin Scale   =       1.2000000000000000 [-]
	 SCS Same-Spin Energy      =      -0.1558756102531502 [Eh]
	 SCS Opposite-Spin Energy  =      -1.7422652897954911 [Eh]
	 SCS Correlation Energy    =      -1.8981409000486413 [Eh]
	 SCS Total Energy          =    -643.8717785200739172 [Eh]
	-----------------------------------------------------------

  Dipole Moment: [D]
     X:    -2.0909      Y:    -0.0790      Z:     0.8710     Total:     2.2664

*** Psi4 exiting successfully. Buy a developer a beer!
