                               Psi4 1.4a3.dev225

  ==> Input File <==

--------------------------------------------------------------------------
#psi4
#
memory 32 gb

molecule  {
0 1
  I        2.3447600     0.0000010    -0.2524410
  C       -0.5542210    -0.0000040     0.7369510
  C       -2.5036070    -1.2253050    -0.0650320
  C       -2.5036000     1.2253100    -0.0650260
  C       -1.2095060     1.2097510     0.4687330
  C       -1.1701587    -1.2337264     0.4851780
  C       -3.1346270     0.0000030    -0.3245500
  C        0.8217770    -0.0000070     1.3091860
  C       -3.2172620    -2.5291670    -0.3215690
  C       -3.2172620     2.5291680    -0.3215670
  H       -0.6945570     2.1508370     0.6613300
  H       -0.6945650    -2.1508430     0.6613200
  H       -4.1398900     0.0000070    -0.7462250
  H        1.0275050    -0.8925940     1.8992530
  H        1.0275050     0.8925750     1.8992610
  H       -3.9060370    -2.4424280    -1.1656010
  H       -3.8011950    -2.8333800     0.5532780
  H       -2.5084500    -3.3308180    -0.5430300
  H       -3.8015320     2.8331670     0.5531290
  H       -2.5084330     3.3309140    -0.5426230
  H       -3.9057300     2.4425370    -1.1658600
units angstrom
no_reorient  #important for SAPT in psi4, default
symmetry c1  #important for SAPT in psi4, default
}

set PROPERTIES_ORIGIN ["COM"]
properties('MP2/aug-cc-pvtz', properties = ['dipole'])
--------------------------------------------------------------------------

    Molecular point group: c1
  Charge       = 0
  Multiplicity = 1
  Basis Set: AUG-CC-PVTZ
    Blend: AUG-CC-PVTZ
  Basis Set: (AUG-CC-PVTZ AUX)
    Blend: AUG-CC-PVTZ-JKFIT + DEF2-UNIVERSAL-JKFIT

    Orbital Energies [Eh]
    ---------------------

    Doubly Occupied:

       1A    -11.289076     2A    -11.254833     3A    -11.254463
       4A    -11.250582     5A    -11.234046     6A    -11.232871
       7A    -11.231183     8A    -11.228783     9A    -11.228275
      10A     -7.705638    11A     -5.537064    12A     -5.527819
      13A     -5.527802    14A     -2.266274    15A     -2.261876
      16A     -2.261846    17A     -2.251624    18A     -2.251624
      19A     -1.162247    20A     -1.073625    21A     -1.058746
      22A     -0.968641    23A     -0.939195    24A     -0.933590
      25A     -0.848015    26A     -0.792951    27A     -0.779499
      28A     -0.687327    29A     -0.665680    30A     -0.617834
      31A     -0.588194    32A     -0.585539    33A     -0.576934
      34A     -0.573294    35A     -0.566434    36A     -0.556546
      37A     -0.525300    38A     -0.510091    39A     -0.490764
      40A     -0.483645    41A     -0.442738    42A     -0.359029
      43A     -0.356741    44A     -0.321152    45A     -0.320102

  @DF-RHF Final Energy:  -642.00430329314452

   => Energetics <=

    Nuclear Repulsion Energy =            614.0878089259227863
    One-Electron Energy =               -2203.0251618381175831
    Two-Electron Energy =                 946.9330496190503936
    Total Energy =                       -642.0043032931445168
  Basis Set: (AUG-CC-PVTZ AUX)
    Blend: AUG-CC-PVTZ-RI + DEF2-QZVPP-RI
    Molecular point group: c1

    Geometry (in Angstrom), charge = 0, multiplicity = 1:

       Center              X                  Y                   Z               Mass
    ------------   -----------------  -----------------  -----------------  -----------------
         I            2.047161207737     0.001170264844    -0.223464849540   126.904471900000
         C           -0.851819792263     0.001165264844     0.765927150460    12.000000000000
         C           -2.801205792263    -1.224135735156    -0.036055849540    12.000000000000
         C           -2.801198792263     1.226479264844    -0.036049849540    12.000000000000
         C           -1.507104792263     1.210920264844     0.497709150460    12.000000000000
         C           -1.467757492263    -1.232557135156     0.514154150460    12.000000000000
         C           -3.432225792263     0.001172264844    -0.295573849540    12.000000000000
         C            0.524178207737     0.001162264844     1.338162150460    12.000000000000
         C           -3.514860792263    -2.527997735156    -0.292592849540    12.000000000000
         C           -3.514860792263     2.530337264844    -0.292590849540    12.000000000000
         H           -0.992155792263     2.152006264844     0.690306150460     1.007825032230
         H           -0.992163792263    -2.149673735156     0.690296150460     1.007825032230
         H           -4.437488792263     0.001176264844    -0.717248849540     1.007825032230
         H            0.729906207737    -0.891424735156     1.928229150460     1.007825032230
         H            0.729906207737     0.893744264844     1.928237150460     1.007825032230
         H           -4.203635792263    -2.441258735156    -1.136624849540     1.007825032230
         H           -4.098793792263    -2.832210735156     0.582254150460     1.007825032230
         H           -2.806048792263    -3.329648735156    -0.514053849540     1.007825032230
         H           -4.099130792263     2.834336264844     0.582105150460     1.007825032230
         H           -2.806031792263     3.332083264844    -0.513646849540     1.007825032230
         H           -4.203328792263     2.443706264844    -1.136883849540     1.007825032230

  Basis Set: AUG-CC-PVTZ
    Blend: AUG-CC-PVTZ
  Basis Set: (AUG-CC-PVTZ AUX)
    Blend: AUG-CC-PVTZ-JKFIT + DEF2-UNIVERSAL-JKFIT
	 Reference Energy          =    -642.0043032931445168 [Eh]
	 Singles Energy            =      -0.0000000000000000 [Eh]
	 Same-Spin Energy          =      -0.4675142396490291 [Eh]
	 Opposite-Spin Energy      =      -1.4527849211249988 [Eh]
	 Correlation Energy        =      -1.9202991607740278 [Eh]
	 Total Energy              =    -643.9246024539185100 [Eh]

	 ================> DF-SCS-MP2 Energies <==================
	-----------------------------------------------------------
	 SCS Same-Spin Scale       =       0.3333333333333333 [-]
	 SCS Opposite-Spin Scale   =       1.2000000000000000 [-]
	 SCS Same-Spin Energy      =      -0.1558380798830097 [Eh]
	 SCS Opposite-Spin Energy  =      -1.7433419053499986 [Eh]
	 SCS Correlation Energy    =      -1.8991799852330082 [Eh]
	 SCS Total Energy          =    -643.9034832783775073 [Eh]
	-----------------------------------------------------------

  Dipole Moment: [D]
     X:    -2.1304      Y:    -0.0128      Z:     0.8884     Total:     2.3082

*** Psi4 exiting successfully. Buy a developer a beer!
