                               Psi4 1.4a3.dev225

  ==> Input File <==

--------------------------------------------------------------------------
#psi4
#
memory 32 gb

molecule  {
0 1
  I        2.3447600     0.0000010    -0.2524410
  C       -0.5542210    -0.0000040     0.7369510
  C       -2.5036070    -1.2253050    -0.0650320
  C       -2.5036000     1.2253100    -0.0650260
  C       -1.3019455     1.2108624     0.4306056
  C       -1.2095100    -1.2097530     0.4687280
  C       -3.1346270     0.0000030    -0.3245500
  C        0.8217770    -0.0000070     1.3091860
  C       -3.2172620    -2.5291670    -0.3215690
  C       -3.2172620     2.5291680    -0.3215670
  H       -0.6945570     2.1508370     0.6613300
  H       -0.6945650    -2.1508430     0.6613200
  H       -4.1398900     0.0000070    -0.7462250
  H        1.0275050    -0.8925940     1.8992530
  H        1.0275050     0.8925750     1.8992610
  H       -3.9060370    -2.4424280    -1.1656010
  H       -3.8011950    -2.8333800     0.5532780
  H       -2.5084500    -3.3308180    -0.5430300
  H       -3.8015320     2.8331670     0.5531290
  H       -2.5084330     3.3309140    -0.5426230
  H       -3.9057300     2.4425370    -1.1658600
units angstrom
no_reorient  #important for SAPT in psi4, default
symmetry c1  #important for SAPT in psi4, default
}

set PROPERTIES_ORIGIN ["COM"]
properties('MP2/aug-cc-pvtz', properties = ['dipole'])
--------------------------------------------------------------------------

    Molecular point group: c1
  Charge       = 0
  Multiplicity = 1
  Basis Set: AUG-CC-PVTZ
    Blend: AUG-CC-PVTZ
  Basis Set: (AUG-CC-PVTZ AUX)
    Blend: AUG-CC-PVTZ-JKFIT + DEF2-UNIVERSAL-JKFIT

    Orbital Energies [Eh]
    ---------------------

    Doubly Occupied:

       1A    -11.293081     2A    -11.258803     3A    -11.247985
       4A    -11.235591     5A    -11.234860     6A    -11.231657
       7A    -11.231209     8A    -11.227982     9A    -11.226632
      10A     -7.707290    11A     -5.538774    12A     -5.529435
      13A     -5.529414    14A     -2.267993    15A     -2.263555
      16A     -2.263528    17A     -2.253203    18A     -2.253202
      19A     -1.170235    20A     -1.074684    21A     -1.065022
      22A     -0.970363    23A     -0.938276    24A     -0.932568
      25A     -0.852241    26A     -0.789302    27A     -0.785767
      28A     -0.677455    29A     -0.669193    30A     -0.618306
      31A     -0.589734    32A     -0.587143    33A     -0.574604
      34A     -0.571950    35A     -0.562302    36A     -0.551667
      37A     -0.524560    38A     -0.512407    39A     -0.495994
      40A     -0.470117    41A     -0.448959    42A     -0.360456
      43A     -0.358312    44A     -0.337057    45A     -0.312207

  @DF-RHF Final Energy:  -641.99455270173769

   => Energetics <=

    Nuclear Repulsion Energy =            615.1287253274095974
    One-Electron Energy =               -2205.0564052664808514
    Two-Electron Energy =                 947.9331272373336787
    Total Energy =                       -641.9945527017376889
  Basis Set: (AUG-CC-PVTZ AUX)
    Blend: AUG-CC-PVTZ-RI + DEF2-QZVPP-RI
    Molecular point group: c1

    Geometry (in Angstrom), charge = 0, multiplicity = 1:

       Center              X                  Y                   Z               Mass
    ------------   -----------------  -----------------  -----------------  -----------------
         I            2.053590274291    -0.000053430957    -0.220802435040   126.904471900000
         C           -0.845390725709    -0.000058430957     0.768589564960    12.000000000000
         C           -2.794776725709    -1.225359430957    -0.033393435040    12.000000000000
         C           -2.794769725709     1.225255569043    -0.033387435040    12.000000000000
         C           -1.593115225709     1.210807969043     0.462244164960    12.000000000000
         C           -1.500679725709    -1.209807430957     0.500366564960    12.000000000000
         C           -3.425796725709    -0.000051430957    -0.292911435040    12.000000000000
         C            0.530607274291    -0.000061430957     1.340824564960    12.000000000000
         C           -3.508431725709    -2.529221430957    -0.289930435040    12.000000000000
         C           -3.508431725709     2.529113569043    -0.289928435040    12.000000000000
         H           -0.985726725709     2.150782569043     0.692968564960     1.007825032230
         H           -0.985734725709    -2.150897430957     0.692958564960     1.007825032230
         H           -4.431059725709    -0.000047430957    -0.714586435040     1.007825032230
         H            0.736335274291    -0.892648430957     1.930891564960     1.007825032230
         H            0.736335274291     0.892520569043     1.930899564960     1.007825032230
         H           -4.197206725709    -2.442482430957    -1.133962435040     1.007825032230
         H           -4.092364725709    -2.833434430957     0.584916564960     1.007825032230
         H           -2.799619725709    -3.330872430957    -0.511391435040     1.007825032230
         H           -4.092701725709     2.833112569043     0.584767564960     1.007825032230
         H           -2.799602725709     3.330859569043    -0.510984435040     1.007825032230
         H           -4.196899725709     2.442482569043    -1.134221435040     1.007825032230

  Basis Set: AUG-CC-PVTZ
    Blend: AUG-CC-PVTZ
  Basis Set: (AUG-CC-PVTZ AUX)
    Blend: AUG-CC-PVTZ-JKFIT + DEF2-UNIVERSAL-JKFIT
	 Reference Energy          =    -641.9945527017376889 [Eh]
	 Singles Energy            =      -0.0000000000000000 [Eh]
	 Same-Spin Energy          =      -0.4675460278594095 [Eh]
	 Opposite-Spin Energy      =      -1.4530237078197259 [Eh]
	 Correlation Energy        =      -1.9205697356791354 [Eh]
	 Total Energy              =    -643.9151224374168123 [Eh]

	 ================> DF-SCS-MP2 Energies <==================
	-----------------------------------------------------------
	 SCS Same-Spin Scale       =       0.3333333333333333 [-]
	 SCS Opposite-Spin Scale   =       1.2000000000000000 [-]
	 SCS Same-Spin Energy      =      -0.1558486759531365 [Eh]
	 SCS Opposite-Spin Energy  =      -1.7436284493836711 [Eh]
	 SCS Correlation Energy    =      -1.8994771253368077 [Eh]
	 SCS Total Energy          =    -643.8940298270745188 [Eh]
	-----------------------------------------------------------

  Dipole Moment: [D]
     X:    -2.0370      Y:    -0.0725      Z:     0.8883     Total:     2.2234

*** Psi4 exiting successfully. Buy a developer a beer!
