                               Psi4 1.4a3.dev225

  ==> Input File <==

--------------------------------------------------------------------------
#psi4
#
memory 32 gb

molecule  {
0 1
  I        2.3447600     0.0000010    -0.2524410
  C       -0.5542210    -0.0000040     0.7369510
  C       -2.5036070    -1.2253050    -0.0650320
  C       -2.5036000     1.2253100    -0.0650260
  C       -1.2095060     1.2097510     0.4687330
  C       -1.2095100    -1.2097530     0.4687280
  C       -3.1346270     0.0000030    -0.3245500
  C        0.8217770    -0.0000070     1.3091860
  C       -3.2172620    -2.5291670    -0.3215690
  C       -3.2172620     2.5291680    -0.3215670
  H       -0.6945570     2.1508370     0.6613300
  H       -0.6945650    -2.1508430     0.6613200
  H       -4.0476743     0.0000066    -0.7075435
  H        1.0275050    -0.8925940     1.8992530
  H        1.0275050     0.8925750     1.8992610
  H       -3.9060370    -2.4424280    -1.1656010
  H       -3.8011950    -2.8333800     0.5532780
  H       -2.5084500    -3.3308180    -0.5430300
  H       -3.8015320     2.8331670     0.5531290
  H       -2.5084330     3.3309140    -0.5426230
  H       -3.9057300     2.4425370    -1.1658600
units angstrom
no_reorient  #important for SAPT in psi4, default
symmetry c1  #important for SAPT in psi4, default
}

set PROPERTIES_ORIGIN ["COM"]
properties('MP2/aug-cc-pvtz', properties = ['dipole'])
--------------------------------------------------------------------------

    Molecular point group: c1
  Charge       = 0
  Multiplicity = 1
  Basis Set: AUG-CC-PVTZ
    Blend: AUG-CC-PVTZ
  Basis Set: (AUG-CC-PVTZ AUX)
    Blend: AUG-CC-PVTZ-JKFIT + DEF2-UNIVERSAL-JKFIT

    Orbital Energies [Eh]
    ---------------------

    Doubly Occupied:

       1A    -11.290091     2A    -11.253759     3A    -11.248313
       4A    -11.248300     5A    -11.232495     6A    -11.232452
       7A    -11.228364     8A    -11.228363     9A    -11.219071
      10A     -7.705983    11A     -5.537426    12A     -5.528150
      13A     -5.528140    14A     -2.266639    15A     -2.262226
      16A     -2.262203    17A     -2.251947    18A     -2.251947
      19A     -1.165340    20A     -1.074472    21A     -1.060743
      22A     -0.970296    23A     -0.942914    24A     -0.932736
      25A     -0.850865    26A     -0.790335    27A     -0.786546
      28A     -0.692877    29A     -0.666642    30A     -0.620356
      31A     -0.588520    32A     -0.585958    33A     -0.575505
      34A     -0.573537    35A     -0.563748    36A     -0.560640
      37A     -0.525821    38A     -0.512524    39A     -0.490989
      40A     -0.484768    41A     -0.444222    42A     -0.359221
      43A     -0.356993    44A     -0.324290    45A     -0.318553

  @DF-RHF Final Energy:  -642.00229896103258

   => Energetics <=

    Nuclear Repulsion Energy =            615.2064315299845703
    One-Electron Energy =               -2205.2269046495439397
    Two-Electron Energy =                 948.0181741585269037
    Total Energy =                       -642.0022989610325794
  Basis Set: (AUG-CC-PVTZ AUX)
    Blend: AUG-CC-PVTZ-RI + DEF2-QZVPP-RI
    Molecular point group: c1

    Geometry (in Angstrom), charge = 0, multiplicity = 1:

       Center              X                  Y                   Z               Mass
    ------------   -----------------  -----------------  -----------------  -----------------
         I            2.048703048728     0.000000787399    -0.222820858062   126.904471900000
         C           -0.850277951272    -0.000004212601     0.766571141938    12.000000000000
         C           -2.799663951272    -1.225305212601    -0.035411858062    12.000000000000
         C           -2.799656951272     1.225309787399    -0.035405858062    12.000000000000
         C           -1.505562951272     1.209750787399     0.498353141938    12.000000000000
         C           -1.505566951272    -1.209753212601     0.498348141938    12.000000000000
         C           -3.430683951272     0.000002787399    -0.294929858062    12.000000000000
         C            0.525720048728    -0.000007212601     1.338806141938    12.000000000000
         C           -3.513318951272    -2.529167212601    -0.291948858062    12.000000000000
         C           -3.513318951272     2.529167787399    -0.291946858062    12.000000000000
         H           -0.990613951272     2.150836787399     0.690950141938     1.007825032230
         H           -0.990621951272    -2.150843212601     0.690940141938     1.007825032230
         H           -4.343731251272     0.000006387399    -0.677923358062     1.007825032230
         H            0.731448048728    -0.892594212601     1.928873141938     1.007825032230
         H            0.731448048728     0.892574787399     1.928881141938     1.007825032230
         H           -4.202093951272    -2.442428212601    -1.135980858062     1.007825032230
         H           -4.097251951272    -2.833380212601     0.582898141938     1.007825032230
         H           -2.804506951272    -3.330818212601    -0.513409858062     1.007825032230
         H           -4.097588951272     2.833166787399     0.582749141938     1.007825032230
         H           -2.804489951272     3.330913787399    -0.513002858062     1.007825032230
         H           -4.201786951272     2.442536787399    -1.136239858062     1.007825032230

  Basis Set: AUG-CC-PVTZ
    Blend: AUG-CC-PVTZ
  Basis Set: (AUG-CC-PVTZ AUX)
    Blend: AUG-CC-PVTZ-JKFIT + DEF2-UNIVERSAL-JKFIT
	 Reference Energy          =    -642.0022989610325794 [Eh]
	 Singles Energy            =      -0.0000000000000000 [Eh]
	 Same-Spin Energy          =      -0.4673486634139656 [Eh]
	 Opposite-Spin Energy      =      -1.4519714584397918 [Eh]
	 Correlation Energy        =      -1.9193201218537574 [Eh]
	 Total Energy              =    -643.9216190828863091 [Eh]

	 ================> DF-SCS-MP2 Energies <==================
	-----------------------------------------------------------
	 SCS Same-Spin Scale       =       0.3333333333333333 [-]
	 SCS Opposite-Spin Scale   =       1.2000000000000000 [-]
	 SCS Same-Spin Energy      =      -0.1557828878046552 [Eh]
	 SCS Opposite-Spin Energy  =      -1.7423657501277501 [Eh]
	 SCS Correlation Energy    =      -1.8981486379324053 [Eh]
	 SCS Total Energy          =    -643.9004475989650018 [Eh]
	-----------------------------------------------------------

  Dipole Moment: [D]
     X:    -2.1377      Y:    -0.0000      Z:     0.8716     Total:     2.3085

*** Psi4 exiting successfully. Buy a developer a beer!
