                               Psi4 1.4a3.dev225

  ==> Input File <==

--------------------------------------------------------------------------
#psi4
#
memory 32 gb

molecule  {
0 1
  I        2.3447600     0.0000010    -0.2524410
  C       -0.5542210    -0.0000040     0.7369510
  C       -2.5036070    -1.2253050    -0.0650320
  C       -2.5036000     1.2253100    -0.0650260
  C       -1.2097035     1.2341752     0.4693645
  C       -1.2095100    -1.2097530     0.4687280
  C       -3.1346270     0.0000030    -0.3245500
  C        0.8217770    -0.0000070     1.3091860
  C       -3.2172620    -2.5291670    -0.3215690
  C       -3.2172620     2.5291680    -0.3215670
  H       -0.6945570     2.1508370     0.6613300
  H       -0.6945650    -2.1508430     0.6613200
  H       -4.1398900     0.0000070    -0.7462250
  H        1.0275050    -0.8925940     1.8992530
  H        1.0275050     0.8925750     1.8992610
  H       -3.9060370    -2.4424280    -1.1656010
  H       -3.8011950    -2.8333800     0.5532780
  H       -2.5084500    -3.3308180    -0.5430300
  H       -3.8015320     2.8331670     0.5531290
  H       -2.5084330     3.3309140    -0.5426230
  H       -3.9057300     2.4425370    -1.1658600
units angstrom
no_reorient  #important for SAPT in psi4, default
symmetry c1  #important for SAPT in psi4, default
}

set PROPERTIES_ORIGIN ["COM"]
properties('MP2/aug-cc-pvtz', properties = ['dipole'])
--------------------------------------------------------------------------

    Molecular point group: c1
  Charge       = 0
  Multiplicity = 1
  Basis Set: AUG-CC-PVTZ
    Blend: AUG-CC-PVTZ
  Basis Set: (AUG-CC-PVTZ AUX)
    Blend: AUG-CC-PVTZ-JKFIT + DEF2-UNIVERSAL-JKFIT

    Orbital Energies [Eh]
    ---------------------

    Doubly Occupied:

       1A    -11.290236     2A    -11.256540     3A    -11.249882
       4A    -11.249411     5A    -11.233486     6A    -11.233448
       7A    -11.231266     8A    -11.228562     9A    -11.227518
      10A     -7.706169    11A     -5.537614    12A     -5.528335
      13A     -5.528323    14A     -2.266827    15A     -2.262414
      16A     -2.262388    17A     -2.252131    18A     -2.252131
      19A     -1.163464    20A     -1.072116    21A     -1.061664
      22A     -0.968940    23A     -0.938736    24A     -0.933028
      25A     -0.849249    26A     -0.791331    27A     -0.781596
      28A     -0.684674    29A     -0.666400    30A     -0.617992
      31A     -0.588675    32A     -0.585751    33A     -0.573839
      34A     -0.572812    35A     -0.566838    36A     -0.555957
      37A     -0.524997    38A     -0.510552    39A     -0.490134
      40A     -0.484169    41A     -0.444299    42A     -0.359359
      43A     -0.357221    44A     -0.325330    45A     -0.317388

  @DF-RHF Final Energy:  -642.00687241575883

   => Energetics <=

    Nuclear Repulsion Energy =            614.2505989519160039
    One-Electron Energy =               -2203.3485601350348588
    Two-Electron Energy =                 947.0910887673601337
    Total Energy =                       -642.0068724157588349
  Basis Set: (AUG-CC-PVTZ AUX)
    Blend: AUG-CC-PVTZ-RI + DEF2-QZVPP-RI
    Molecular point group: c1

    Geometry (in Angstrom), charge = 0, multiplicity = 1:

       Center              X                  Y                   Z               Mass
    ------------   -----------------  -----------------  -----------------  -----------------
         I            2.049090491627    -0.001190684413    -0.222693185742   126.904471900000
         C           -0.849890508373    -0.001195684413     0.766698814258    12.000000000000
         C           -2.799276508373    -1.226496684413    -0.035284185742    12.000000000000
         C           -2.799269508373     1.224118315587    -0.035278185742    12.000000000000
         C           -1.505373008373     1.232983515587     0.499112314258    12.000000000000
         C           -1.505179508373    -1.210944684413     0.498475814258    12.000000000000
         C           -3.430296508373    -0.001188684413    -0.294802185742    12.000000000000
         C            0.526107491627    -0.001198684413     1.338933814258    12.000000000000
         C           -3.512931508373    -2.530358684413    -0.291821185742    12.000000000000
         C           -3.512931508373     2.527976315587    -0.291819185742    12.000000000000
         H           -0.990226508373     2.149645315587     0.691077814258     1.007825032230
         H           -0.990234508373    -2.152034684413     0.691067814258     1.007825032230
         H           -4.435559508373    -0.001184684413    -0.716477185742     1.007825032230
         H            0.731835491627    -0.893785684413     1.929000814258     1.007825032230
         H            0.731835491627     0.891383315587     1.929008814258     1.007825032230
         H           -4.201706508373    -2.443619684413    -1.135853185742     1.007825032230
         H           -4.096864508373    -2.834571684413     0.583025814258     1.007825032230
         H           -2.804119508373    -3.332009684413    -0.513282185742     1.007825032230
         H           -4.097201508373     2.831975315587     0.582876814258     1.007825032230
         H           -2.804102508373     3.329722315587    -0.512875185742     1.007825032230
         H           -4.201399508373     2.441345315587    -1.136112185742     1.007825032230

  Basis Set: AUG-CC-PVTZ
    Blend: AUG-CC-PVTZ
  Basis Set: (AUG-CC-PVTZ AUX)
    Blend: AUG-CC-PVTZ-JKFIT + DEF2-UNIVERSAL-JKFIT
	 Reference Energy          =    -642.0068724157588349 [Eh]
	 Singles Energy            =      -0.0000000000000000 [Eh]
	 Same-Spin Energy          =      -0.4675512545368170 [Eh]
	 Opposite-Spin Energy      =      -1.4526537563528947 [Eh]
	 Correlation Energy        =      -1.9202050108897117 [Eh]
	 Total Energy              =    -643.9270774266485660 [Eh]

	 ================> DF-SCS-MP2 Energies <==================
	-----------------------------------------------------------
	 SCS Same-Spin Scale       =       0.3333333333333333 [-]
	 SCS Opposite-Spin Scale   =       1.2000000000000000 [-]
	 SCS Same-Spin Energy      =      -0.1558504181789390 [Eh]
	 SCS Opposite-Spin Energy  =      -1.7431845076234735 [Eh]
	 SCS Correlation Energy    =      -1.8990349258024126 [Eh]
	 SCS Total Energy          =    -643.9059073415612602 [Eh]
	-----------------------------------------------------------

  Dipole Moment: [D]
     X:    -2.1003      Y:    -0.0086      Z:     0.8901     Total:     2.2812

*** Psi4 exiting successfully. Buy a developer a beer!
