                               Psi4 1.4a3.dev225

  ==> Input File <==

--------------------------------------------------------------------------
#psi4
#
memory 32 gb

molecule  {
0 1
  I        2.2893322     0.0000013    -0.3046410
  C       -0.5542210    -0.0000040     0.7369510
  C       -2.5036070    -1.2253050    -0.0650320
  C       -2.5036000     1.2253100    -0.0650260
  C       -1.2095060     1.2097510     0.4687330
  C       -1.2095100    -1.2097530     0.4687280
  C       -3.1346270     0.0000030    -0.3245500
  C        0.8217770    -0.0000070     1.3091860
  C       -3.2172620    -2.5291670    -0.3215690
  C       -3.2172620     2.5291680    -0.3215670
  H       -0.6945570     2.1508370     0.6613300
  H       -0.6945650    -2.1508430     0.6613200
  H       -4.1398900     0.0000070    -0.7462250
  H        1.0275050    -0.8925940     1.8992530
  H        1.0275050     0.8925750     1.8992610
  H       -3.9060370    -2.4424280    -1.1656010
  H       -3.8011950    -2.8333800     0.5532780
  H       -2.5084500    -3.3308180    -0.5430300
  H       -3.8015320     2.8331670     0.5531290
  H       -2.5084330     3.3309140    -0.5426230
  H       -3.9057300     2.4425370    -1.1658600
units angstrom
no_reorient  #important for SAPT in psi4, default
symmetry c1  #important for SAPT in psi4, default
}

set PROPERTIES_ORIGIN ["COM"]
properties('MP2/aug-cc-pvtz', properties = ['dipole'])
--------------------------------------------------------------------------

    Molecular point group: c1
  Charge       = 0
  Multiplicity = 1
  Basis Set: AUG-CC-PVTZ
    Blend: AUG-CC-PVTZ
  Basis Set: (AUG-CC-PVTZ AUX)
    Blend: AUG-CC-PVTZ-JKFIT + DEF2-UNIVERSAL-JKFIT

    Orbital Energies [Eh]
    ---------------------

    Doubly Occupied:

       1A    -11.290625     2A    -11.253815     3A    -11.248920
       4A    -11.248894     5A    -11.232639     6A    -11.232596
       7A    -11.230604     8A    -11.228019     9A    -11.228018
      10A     -7.706340    11A     -5.537805    12A     -5.528506
      13A     -5.528472    14A     -2.267025    15A     -2.262608
      16A     -2.262566    17A     -2.252281    18A     -2.252279
      19A     -1.164959    20A     -1.073302    21A     -1.060783
      22A     -0.969629    23A     -0.938121    24A     -0.932672
      25A     -0.848861    26A     -0.790639    27A     -0.783424
      28A     -0.681883    29A     -0.666800    30A     -0.617721
      31A     -0.588619    32A     -0.585693    33A     -0.573200
      34A     -0.572809    35A     -0.563800    36A     -0.555378
      37A     -0.525622    38A     -0.511615    39A     -0.488747
      40A     -0.485076    41A     -0.444628    42A     -0.360256
      43A     -0.357742    44A     -0.324447    45A     -0.317503

  @DF-RHF Final Energy:  -642.00745576348913

   => Energetics <=

    Nuclear Repulsion Energy =            616.1944833743685876
    One-Electron Energy =               -2207.2520005727465104
    Two-Electron Energy =                 949.0500614348886756
    Total Energy =                       -642.0074557634891335
  Basis Set: (AUG-CC-PVTZ AUX)
    Blend: AUG-CC-PVTZ-RI + DEF2-QZVPP-RI
    Molecular point group: c1

    Geometry (in Angstrom), charge = 0, multiplicity = 1:

       Center              X                  Y                   Z               Mass
    ------------   -----------------  -----------------  -----------------  -----------------
         I            2.022247796893     0.000000930992    -0.247932835000   126.904471900000
         C           -0.821305403107    -0.000004369008     0.793659165000    12.000000000000
         C           -2.770691403107    -1.225305369008    -0.008323835000    12.000000000000
         C           -2.770684403107     1.225309630992    -0.008317835000    12.000000000000
         C           -1.476590403107     1.209750630992     0.525441165000    12.000000000000
         C           -1.476594403107    -1.209753369008     0.525436165000    12.000000000000
         C           -3.401711403107     0.000002630992    -0.267841835000    12.000000000000
         C            0.554692596893    -0.000007369008     1.365894165000    12.000000000000
         C           -3.484346403107    -2.529167369008    -0.264860835000    12.000000000000
         C           -3.484346403107     2.529167630992    -0.264858835000    12.000000000000
         H           -0.961641403107     2.150836630992     0.718038165000     1.007825032230
         H           -0.961649403107    -2.150843369008     0.718028165000     1.007825032230
         H           -4.406974403107     0.000006630992    -0.689516835000     1.007825032230
         H            0.760420596893    -0.892594369008     1.955961165000     1.007825032230
         H            0.760420596893     0.892574630992     1.955969165000     1.007825032230
         H           -4.173121403107    -2.442428369008    -1.108892835000     1.007825032230
         H           -4.068279403107    -2.833380369008     0.609986165000     1.007825032230
         H           -2.775534403107    -3.330818369008    -0.486321835000     1.007825032230
         H           -4.068616403107     2.833166630992     0.609837165000     1.007825032230
         H           -2.775517403107     3.330913630992    -0.485914835000     1.007825032230
         H           -4.172814403107     2.442536630992    -1.109151835000     1.007825032230

  Basis Set: AUG-CC-PVTZ
    Blend: AUG-CC-PVTZ
  Basis Set: (AUG-CC-PVTZ AUX)
    Blend: AUG-CC-PVTZ-JKFIT + DEF2-UNIVERSAL-JKFIT
	 Reference Energy          =    -642.0074557634891335 [Eh]
	 Singles Energy            =      -0.0000000000000000 [Eh]
	 Same-Spin Energy          =      -0.4677233245082858 [Eh]
	 Opposite-Spin Energy      =      -1.4528080444823350 [Eh]
	 Correlation Energy        =      -1.9205313689906207 [Eh]
	 Total Energy              =    -643.9279871324797568 [Eh]

	 ================> DF-SCS-MP2 Energies <==================
	-----------------------------------------------------------
	 SCS Same-Spin Scale       =       0.3333333333333333 [-]
	 SCS Opposite-Spin Scale   =       1.2000000000000000 [-]
	 SCS Same-Spin Energy      =      -0.1559077748360952 [Eh]
	 SCS Opposite-Spin Energy  =      -1.7433696533788019 [Eh]
	 SCS Correlation Energy    =      -1.8992774282148972 [Eh]
	 SCS Total Energy          =    -643.9067331917040065 [Eh]
	-----------------------------------------------------------

  Dipole Moment: [D]
     X:    -2.0295      Y:    -0.0000      Z:     0.9123     Total:     2.2251

*** Psi4 exiting successfully. Buy a developer a beer!
