                               Psi4 1.4a3.dev225

  ==> Input File <==

--------------------------------------------------------------------------
#psi4
#
memory 32 gb

molecule  {
0 1
  I        2.3447600     0.0000010    -0.2524410
  C       -0.5542210    -0.0000040     0.7369510
  C       -2.5036070    -1.2253050    -0.0650320
  C       -2.5036000     1.2253100    -0.0650260
  C       -1.2165929     1.0635654     0.4615397
  C       -1.2095100    -1.2097530     0.4687280
  C       -3.1346270     0.0000030    -0.3245500
  C        0.8217770    -0.0000070     1.3091860
  C       -3.2172620    -2.5291670    -0.3215690
  C       -3.2172620     2.5291680    -0.3215670
  H       -0.6945570     2.1508370     0.6613300
  H       -0.6945650    -2.1508430     0.6613200
  H       -4.1398900     0.0000070    -0.7462250
  H        1.0275050    -0.8925940     1.8992530
  H        1.0275050     0.8925750     1.8992610
  H       -3.9060370    -2.4424280    -1.1656010
  H       -3.8011950    -2.8333800     0.5532780
  H       -2.5084500    -3.3308180    -0.5430300
  H       -3.8015320     2.8331670     0.5531290
  H       -2.5084330     3.3309140    -0.5426230
  H       -3.9057300     2.4425370    -1.1658600
units angstrom
no_reorient  #important for SAPT in psi4, default
symmetry c1  #important for SAPT in psi4, default
}

set PROPERTIES_ORIGIN ["COM"]
properties('MP2/aug-cc-pvtz', properties = ['dipole'])
--------------------------------------------------------------------------

    Molecular point group: c1
  Charge       = 0
  Multiplicity = 1
  Basis Set: AUG-CC-PVTZ
    Blend: AUG-CC-PVTZ
  Basis Set: (AUG-CC-PVTZ AUX)
    Blend: AUG-CC-PVTZ-JKFIT + DEF2-UNIVERSAL-JKFIT

    Orbital Energies [Eh]
    ---------------------

    Doubly Occupied:

       1A    -11.291488     2A    -11.250022     3A    -11.246141
       4A    -11.239518     5A    -11.233033     6A    -11.232803
       7A    -11.232593     8A    -11.231944     9A    -11.227218
      10A     -7.706707    11A     -5.538174    12A     -5.528865
      13A     -5.528851    14A     -2.267388    15A     -2.262954
      16A     -2.262943    17A     -2.252640    18A     -2.252640
      19A     -1.179593    20A     -1.080622    21A     -1.058653
      22A     -0.978138    23A     -0.939863    24A     -0.932064
      25A     -0.848943    26A     -0.803457    27A     -0.780743
      28A     -0.673403    29A     -0.669765    30A     -0.618493
      31A     -0.590813    32A     -0.588375    33A     -0.577151
      34A     -0.573423    35A     -0.558138    36A     -0.541375
      37A     -0.531497    38A     -0.519297    39A     -0.499536
      40A     -0.462186    41A     -0.445667    42A     -0.360534
      43A     -0.357349    44A     -0.332379    45A     -0.320251

  @DF-RHF Final Energy:  -641.98097464688590

   => Energetics <=

    Nuclear Repulsion Energy =            617.0556693511058484
    One-Electron Energy =               -2208.8580237073711032
    Two-Electron Energy =                 949.8213797093794710
    Total Energy =                       -641.9809746468858975
  Basis Set: (AUG-CC-PVTZ AUX)
    Blend: AUG-CC-PVTZ-RI + DEF2-QZVPP-RI
    Molecular point group: c1

    Geometry (in Angstrom), charge = 0, multiplicity = 1:

       Center              X                  Y                   Z               Mass
    ------------   -----------------  -----------------  -----------------  -----------------
         I            2.049426572834     0.007132064663    -0.222311473513   126.904471900000
         C           -0.849554427166     0.007127064663     0.767080526487    12.000000000000
         C           -2.798940427166    -1.218173935337    -0.034902473513    12.000000000000
         C           -2.798933427166     1.232441064663    -0.034896473513    12.000000000000
         C           -1.511926327166     1.070696464663     0.491669226487    12.000000000000
         C           -1.504843427166    -1.202621935337     0.498857526487    12.000000000000
         C           -3.429960427166     0.007134064663    -0.294420473513    12.000000000000
         C            0.526443572834     0.007124064663     1.339315526487    12.000000000000
         C           -3.512595427166    -2.522035935337    -0.291439473513    12.000000000000
         C           -3.512595427166     2.536299064663    -0.291437473513    12.000000000000
         H           -0.989890427166     2.157968064663     0.691459526487     1.007825032230
         H           -0.989898427166    -2.143711935337     0.691449526487     1.007825032230
         H           -4.435223427166     0.007138064663    -0.716095473513     1.007825032230
         H            0.732171572834    -0.885462935337     1.929382526487     1.007825032230
         H            0.732171572834     0.899706064663     1.929390526487     1.007825032230
         H           -4.201370427166    -2.435296935337    -1.135471473513     1.007825032230
         H           -4.096528427166    -2.826248935337     0.583407526487     1.007825032230
         H           -2.803783427166    -3.323686935337    -0.512900473513     1.007825032230
         H           -4.096865427166     2.840298064663     0.583258526487     1.007825032230
         H           -2.803766427166     3.338045064663    -0.512493473513     1.007825032230
         H           -4.201063427166     2.449668064663    -1.135730473513     1.007825032230

  Basis Set: AUG-CC-PVTZ
    Blend: AUG-CC-PVTZ
  Basis Set: (AUG-CC-PVTZ AUX)
    Blend: AUG-CC-PVTZ-JKFIT + DEF2-UNIVERSAL-JKFIT
	 Reference Energy          =    -641.9809746468858975 [Eh]
	 Singles Energy            =      -0.0000000000000000 [Eh]
	 Same-Spin Energy          =      -0.4680212890742586 [Eh]
	 Opposite-Spin Energy      =      -1.4537258815886096 [Eh]
	 Correlation Energy        =      -1.9217471706628682 [Eh]
	 Total Energy              =    -643.9027218175488088 [Eh]

	 ================> DF-SCS-MP2 Energies <==================
	-----------------------------------------------------------
	 SCS Same-Spin Scale       =       0.3333333333333333 [-]
	 SCS Opposite-Spin Scale   =       1.2000000000000000 [-]
	 SCS Same-Spin Energy      =      -0.1560070963580862 [Eh]
	 SCS Opposite-Spin Energy  =      -1.7444710579063314 [Eh]
	 SCS Correlation Energy    =      -1.9004781542644176 [Eh]
	 SCS Total Energy          =    -643.8814528011503171 [Eh]
	-----------------------------------------------------------

  Dipole Moment: [D]
     X:    -2.1187      Y:    -0.0094      Z:     0.8408     Total:     2.2795

*** Psi4 exiting successfully. Buy a developer a beer!
