                               Psi4 1.4a3.dev225

  ==> Input File <==

--------------------------------------------------------------------------
#psi4
#
memory 32 gb

molecule  {
0 1
  I        2.3447600     0.0000010    -0.2524410
  C       -0.5542210    -0.0000040     0.7369510
  C       -2.5036070    -1.2253050    -0.0650320
  C       -2.5036000     1.2253100    -0.0650260
  C       -1.2095060     1.2097510     0.4687330
  C       -1.2095100    -1.2097530     0.4687280
  C       -3.1346270     0.0000030    -0.3245500
  C        0.8217770    -0.0000070     1.3091860
  C       -3.2172620    -2.5291670    -0.3215690
  C       -3.2172620     2.5291680    -0.3215670
  H       -0.6945570     2.1508370     0.6613300
  H       -0.6945650    -2.1508430     0.6613200
  H       -4.1398900     0.0000070    -0.7462250
  H        1.0275050    -0.8925940     1.8992530
  H        1.0275050     0.8925750     1.8992610
  H       -3.9060370    -2.4424280    -1.1656010
  H       -3.8011950    -2.8333800     0.5532780
  H       -2.5084500    -3.3308180    -0.5430300
  H       -3.8015320     2.8331670     0.5531290
  H       -2.6381661     3.1841748    -0.5021643
  H       -3.9057300     2.4425370    -1.1658600
units angstrom
no_reorient  #important for SAPT in psi4, default
symmetry c1  #important for SAPT in psi4, default
}

set PROPERTIES_ORIGIN ["COM"]
properties('MP2/aug-cc-pvtz', properties = ['dipole'])
--------------------------------------------------------------------------

    Molecular point group: c1
  Charge       = 0
  Multiplicity = 1
  Basis Set: AUG-CC-PVTZ
    Blend: AUG-CC-PVTZ
  Basis Set: (AUG-CC-PVTZ AUX)
    Blend: AUG-CC-PVTZ-JKFIT + DEF2-UNIVERSAL-JKFIT

    Orbital Energies [Eh]
    ---------------------

    Doubly Occupied:

       1A    -11.290231     2A    -11.253947     3A    -11.248679
       4A    -11.247988     5A    -11.233116     6A    -11.232828
       7A    -11.230183     8A    -11.227898     9A    -11.203767
      10A     -7.706089    11A     -5.537531    12A     -5.528257
      13A     -5.528246    14A     -2.266744    15A     -2.262332
      16A     -2.262308    17A     -2.252055    18A     -2.252054
      19A     -1.165226    20A     -1.074508    21A     -1.065179
      22A     -0.976526    23A     -0.949213    24A     -0.934633
      25A     -0.848964    26A     -0.796689    27A     -0.782960
      28A     -0.682765    29A     -0.670223    30A     -0.619396
      31A     -0.602520    32A     -0.587654    33A     -0.579496
      34A     -0.572224    35A     -0.566537    36A     -0.559708
      37A     -0.530853    38A     -0.511632    39A     -0.488651
      40A     -0.485593    41A     -0.444509    42A     -0.359318
      43A     -0.357127    44A     -0.324836    45A     -0.318441

  @DF-RHF Final Energy:  -641.97363731586984

   => Energetics <=

    Nuclear Repulsion Energy =            615.6042269016895716
    One-Electron Energy =               -2205.9164607557836462
    Two-Electron Energy =                 948.3385965382242375
    Total Energy =                       -641.9736373158698370
  Basis Set: (AUG-CC-PVTZ AUX)
    Blend: AUG-CC-PVTZ-RI + DEF2-QZVPP-RI
    Molecular point group: c1

    Geometry (in Angstrom), charge = 0, multiplicity = 1:

       Center              X                  Y                   Z               Mass
    ------------   -----------------  -----------------  -----------------  -----------------
         I            2.049612374550     0.000601977312    -0.222828139263   126.904471900000
         C           -0.849368625450     0.000596977312     0.766563860737    12.000000000000
         C           -2.798754625450    -1.224704022688    -0.035419139263    12.000000000000
         C           -2.798747625450     1.225910977312    -0.035413139263    12.000000000000
         C           -1.504653625450     1.210351977312     0.498345860737    12.000000000000
         C           -1.504657625450    -1.209152022688     0.498340860737    12.000000000000
         C           -3.429774625450     0.000603977312    -0.294937139263    12.000000000000
         C            0.526629374550     0.000593977312     1.338798860737    12.000000000000
         C           -3.512409625450    -2.528566022688    -0.291956139263    12.000000000000
         C           -3.512409625450     2.529768977312    -0.291954139263    12.000000000000
         H           -0.989704625450     2.151437977312     0.690942860737     1.007825032230
         H           -0.989712625450    -2.150242022688     0.690932860737     1.007825032230
         H           -4.435037625450     0.000607977312    -0.716612139263     1.007825032230
         H            0.732357374550    -0.891993022688     1.928865860737     1.007825032230
         H            0.732357374550     0.893175977312     1.928873860737     1.007825032230
         H           -4.201184625450    -2.441827022688    -1.135988139263     1.007825032230
         H           -4.096342625450    -2.832779022688     0.582890860737     1.007825032230
         H           -2.803597625450    -3.330217022688    -0.513417139263     1.007825032230
         H           -4.096679625450     2.833767977312     0.582741860737     1.007825032230
         H           -2.933313725450     3.184775777312    -0.472551439263     1.007825032230
         H           -4.200877625450     2.443137977312    -1.136247139263     1.007825032230

  Basis Set: AUG-CC-PVTZ
    Blend: AUG-CC-PVTZ
  Basis Set: (AUG-CC-PVTZ AUX)
    Blend: AUG-CC-PVTZ-JKFIT + DEF2-UNIVERSAL-JKFIT
	 Reference Energy          =    -641.9736373158698370 [Eh]
	 Singles Energy            =      -0.0000000000000000 [Eh]
	 Same-Spin Energy          =      -0.4676267962131461 [Eh]
	 Opposite-Spin Energy      =      -1.4518876603038446 [Eh]
	 Correlation Energy        =      -1.9195144565169908 [Eh]
	 Total Energy              =    -643.8931517723867728 [Eh]

	 ================> DF-SCS-MP2 Energies <==================
	-----------------------------------------------------------
	 SCS Same-Spin Scale       =       0.3333333333333333 [-]
	 SCS Opposite-Spin Scale   =       1.2000000000000000 [-]
	 SCS Same-Spin Energy      =      -0.1558755987377153 [Eh]
	 SCS Opposite-Spin Energy  =      -1.7422651923646135 [Eh]
	 SCS Correlation Energy    =      -1.8981407911023289 [Eh]
	 SCS Total Energy          =    -643.8717781069722150 [Eh]
	-----------------------------------------------------------

  Dipole Moment: [D]
     X:    -2.0909      Y:     0.0789      Z:     0.8710     Total:     2.2665

*** Psi4 exiting successfully. Buy a developer a beer!
