                               Psi4 1.4a3.dev225

  ==> Input File <==

--------------------------------------------------------------------------
#psi4
#
memory 32 gb

molecule  {
0 1
  I        2.3447600     0.0000010    -0.2524410
  C       -0.5542210    -0.0000040     0.7369510
  C       -2.5036070    -1.2253050    -0.0650320
  C       -2.5036000     1.2253100    -0.0650260
  C       -1.2097027     1.1853315     0.4679389
  C       -1.2095100    -1.2097530     0.4687280
  C       -3.1346270     0.0000030    -0.3245500
  C        0.8217770    -0.0000070     1.3091860
  C       -3.2172620    -2.5291670    -0.3215690
  C       -3.2172620     2.5291680    -0.3215670
  H       -0.6945570     2.1508370     0.6613300
  H       -0.6945650    -2.1508430     0.6613200
  H       -4.1398900     0.0000070    -0.7462250
  H        1.0275050    -0.8925940     1.8992530
  H        1.0275050     0.8925750     1.8992610
  H       -3.9060370    -2.4424280    -1.1656010
  H       -3.8011950    -2.8333800     0.5532780
  H       -2.5084500    -3.3308180    -0.5430300
  H       -3.8015320     2.8331670     0.5531290
  H       -2.5084330     3.3309140    -0.5426230
  H       -3.9057300     2.4425370    -1.1658600
units angstrom
no_reorient  #important for SAPT in psi4, default
symmetry c1  #important for SAPT in psi4, default
}

set PROPERTIES_ORIGIN ["COM"]
properties('MP2/aug-cc-pvtz', properties = ['dipole'])
--------------------------------------------------------------------------

    Molecular point group: c1
  Charge       = 0
  Multiplicity = 1
  Basis Set: AUG-CC-PVTZ
    Blend: AUG-CC-PVTZ
  Basis Set: (AUG-CC-PVTZ AUX)
    Blend: AUG-CC-PVTZ-JKFIT + DEF2-UNIVERSAL-JKFIT

    Orbital Energies [Eh]
    ---------------------

    Doubly Occupied:

       1A    -11.290489     2A    -11.251679     3A    -11.249168
       4A    -11.248643     5A    -11.233067     6A    -11.233017
       7A    -11.231288     8A    -11.229091     9A    -11.228061
      10A     -7.706228    11A     -5.537675    12A     -5.528392
      13A     -5.528385    14A     -2.266888    15A     -2.262472
      16A     -2.262451    17A     -2.252188    18A     -2.252188
      19A     -1.167198    20A     -1.074213    21A     -1.060688
      22A     -0.971169    23A     -0.938576    24A     -0.932938
      25A     -0.849050    26A     -0.791595    27A     -0.783833
      28A     -0.680158    29A     -0.667676    30A     -0.617604
      31A     -0.588955    32A     -0.586256    33A     -0.573671
      34A     -0.573191    35A     -0.561296    36A     -0.555165
      37A     -0.526935    38A     -0.512371    39A     -0.490633
      40A     -0.483705    41A     -0.444883    42A     -0.359553
      43A     -0.357205    44A     -0.324837    45A     -0.320238

  @DF-RHF Final Energy:  -642.00739544941905

   => Energetics <=

    Nuclear Repulsion Energy =            615.0267167079424553
    One-Electron Energy =               -2204.8983013116990151
    Two-Electron Energy =                 947.8641891543376232
    Total Energy =                       -642.0073954494190502
  Basis Set: (AUG-CC-PVTZ AUX)
    Blend: AUG-CC-PVTZ-RI + DEF2-QZVPP-RI
    Molecular point group: c1

    Geometry (in Angstrom), charge = 0, multiplicity = 1:

       Center              X                  Y                   Z               Mass
    ------------   -----------------  -----------------  -----------------  -----------------
         I            2.049090452601     0.001192026656    -0.222623641606   126.904471900000
         C           -0.849890547399     0.001187026656     0.766768358394    12.000000000000
         C           -2.799276547399    -1.224113973344    -0.035214641606    12.000000000000
         C           -2.799269547399     1.226501026656    -0.035208641606    12.000000000000
         C           -1.505372247399     1.186522526656     0.497756258394    12.000000000000
         C           -1.505179547399    -1.208561973344     0.498545358394    12.000000000000
         C           -3.430296547399     0.001194026656    -0.294732641606    12.000000000000
         C            0.526107452601     0.001184026656     1.339003358394    12.000000000000
         C           -3.512931547399    -2.527975973344    -0.291751641606    12.000000000000
         C           -3.512931547399     2.530359026656    -0.291749641606    12.000000000000
         H           -0.990226547399     2.152028026656     0.691147358394     1.007825032230
         H           -0.990234547399    -2.149651973344     0.691137358394     1.007825032230
         H           -4.435559547399     0.001198026656    -0.716407641606     1.007825032230
         H            0.731835452601    -0.891402973344     1.929070358394     1.007825032230
         H            0.731835452601     0.893766026656     1.929078358394     1.007825032230
         H           -4.201706547399    -2.441236973344    -1.135783641606     1.007825032230
         H           -4.096864547399    -2.832188973344     0.583095358394     1.007825032230
         H           -2.804119547399    -3.329626973344    -0.513212641606     1.007825032230
         H           -4.097201547399     2.834358026656     0.582946358394     1.007825032230
         H           -2.804102547399     3.332105026656    -0.512805641606     1.007825032230
         H           -4.201399547399     2.443728026656    -1.136042641606     1.007825032230

  Basis Set: AUG-CC-PVTZ
    Blend: AUG-CC-PVTZ
  Basis Set: (AUG-CC-PVTZ AUX)
    Blend: AUG-CC-PVTZ-JKFIT + DEF2-UNIVERSAL-JKFIT
	 Reference Energy          =    -642.0073954494190502 [Eh]
	 Singles Energy            =      -0.0000000000000000 [Eh]
	 Same-Spin Energy          =      -0.4675964878564964 [Eh]
	 Opposite-Spin Energy      =      -1.4525603421549207 [Eh]
	 Correlation Energy        =      -1.9201568300114171 [Eh]
	 Total Energy              =    -643.9275522794304152 [Eh]

	 ================> DF-SCS-MP2 Energies <==================
	-----------------------------------------------------------
	 SCS Same-Spin Scale       =       0.3333333333333333 [-]
	 SCS Opposite-Spin Scale   =       1.2000000000000000 [-]
	 SCS Same-Spin Energy      =      -0.1558654959521655 [Eh]
	 SCS Opposite-Spin Energy  =      -1.7430724105859048 [Eh]
	 SCS Correlation Energy    =      -1.8989379065380703 [Eh]
	 SCS Total Energy          =    -643.9063333559571447 [Eh]
	-----------------------------------------------------------

  Dipole Moment: [D]
     X:    -2.1003      Y:     0.0062      Z:     0.8801     Total:     2.2773

*** Psi4 exiting successfully. Buy a developer a beer!
