                               Psi4 1.4a3.dev225

  ==> Input File <==

--------------------------------------------------------------------------
#psi4
#
memory 32 gb

molecule  {
0 1
  I        2.3447600     0.0000010    -0.2524410
  C       -0.5542210    -0.0000040     0.7369510
  C       -2.5036070    -1.2253050    -0.0650320
  C       -2.5036000     1.2253100    -0.0650260
  C       -1.2095060     1.2097510     0.4687330
  C       -1.2095100    -1.2097530     0.4687280
  C       -3.1346270     0.0000030    -0.3245500
  C        0.8217770    -0.0000070     1.3091860
  C       -3.2172620    -2.5291670    -0.3215690
  C       -3.2172620     2.5291680    -0.3215670
  H       -0.6945570     2.1508370     0.6613300
  H       -0.6945650    -2.1508430     0.6613200
  H       -4.1398900     0.0000070    -0.7462250
  H        1.0275050    -0.8925940     1.8992530
  H        1.0275050     0.8925750     1.8992610
  H       -3.9060370    -2.4424280    -1.1656010
  H       -3.8011950    -2.8333800     0.5532780
  H       -2.5084500    -3.3308180    -0.5430300
  H       -3.8015320     2.8331670     0.5531290
  H       -2.5084330     3.3309140    -0.5426230
  H       -3.9687274     2.4346099    -1.2431160
units angstrom
no_reorient  #important for SAPT in psi4, default
symmetry c1  #important for SAPT in psi4, default
}

set PROPERTIES_ORIGIN ["COM"]
properties('MP2/aug-cc-pvtz', properties = ['dipole'])
--------------------------------------------------------------------------

    Molecular point group: c1
  Charge       = 0
  Multiplicity = 1
  Basis Set: AUG-CC-PVTZ
    Blend: AUG-CC-PVTZ
  Basis Set: (AUG-CC-PVTZ AUX)
    Blend: AUG-CC-PVTZ-JKFIT + DEF2-UNIVERSAL-JKFIT

    Orbital Energies [Eh]
    ---------------------

    Doubly Occupied:

       1A    -11.290639     2A    -11.254558     3A    -11.250182
       4A    -11.249448     5A    -11.240049     6A    -11.234063
       7A    -11.233646     8A    -11.231484     9A    -11.228444
      10A     -7.706405    11A     -5.537854    12A     -5.528570
      13A     -5.528559    14A     -2.267067    15A     -2.262652
      16A     -2.262628    17A     -2.252364    18A     -2.252364
      19A     -1.165575    20A     -1.073084    21A     -1.060526
      22A     -0.968873    23A     -0.937761    24A     -0.929729
      25A     -0.849217    26A     -0.790386    27A     -0.782315
      28A     -0.682520    29A     -0.666610    30A     -0.617440
      31A     -0.588364    32A     -0.584485    33A     -0.573686
      34A     -0.572641    35A     -0.564324    36A     -0.549215
      37A     -0.519147    38A     -0.511805    39A     -0.487586
      40A     -0.486144    41A     -0.444719    42A     -0.359651
      43A     -0.357424    44A     -0.325316    45A     -0.319111

  @DF-RHF Final Energy:  -642.00140268901589

   => Energetics <=

    Nuclear Repulsion Energy =            614.2158832907714441
    One-Electron Energy =               -2203.2773061881912326
    Two-Electron Energy =                 947.0600202084038983
    Total Energy =                       -642.0014026890158902
  Basis Set: (AUG-CC-PVTZ AUX)
    Blend: AUG-CC-PVTZ-RI + DEF2-QZVPP-RI
    Molecular point group: c1

    Geometry (in Angstrom), charge = 0, multiplicity = 1:

       Center              X                  Y                   Z               Mass
    ------------   -----------------  -----------------  -----------------  -----------------
         I            2.049338957909     0.000033263145    -0.222345861295   126.904471900000
         C           -0.849642042091     0.000028263145     0.767046138705    12.000000000000
         C           -2.799028042091    -1.225272736855    -0.034936861295    12.000000000000
         C           -2.799021042091     1.225342263145    -0.034930861295    12.000000000000
         C           -1.504927042091     1.209783263145     0.498828138705    12.000000000000
         C           -1.504931042091    -1.209720736855     0.498823138705    12.000000000000
         C           -3.430048042091     0.000035263145    -0.294454861295    12.000000000000
         C            0.526355957909     0.000025263145     1.339281138705    12.000000000000
         C           -3.512683042091    -2.529134736855    -0.291473861295    12.000000000000
         C           -3.512683042091     2.529200263145    -0.291471861295    12.000000000000
         H           -0.989978042091     2.150869263145     0.691425138705     1.007825032230
         H           -0.989986042091    -2.150810736855     0.691415138705     1.007825032230
         H           -4.435311042091     0.000039263145    -0.716129861295     1.007825032230
         H            0.732083957909    -0.892561736855     1.929348138705     1.007825032230
         H            0.732083957909     0.892607263145     1.929356138705     1.007825032230
         H           -4.201458042091    -2.442395736855    -1.135505861295     1.007825032230
         H           -4.096616042091    -2.833347736855     0.583373138705     1.007825032230
         H           -2.803871042091    -3.330785736855    -0.512934861295     1.007825032230
         H           -4.096953042091     2.833199263145     0.583224138705     1.007825032230
         H           -2.803854042091     3.330946263145    -0.512527861295     1.007825032230
         H           -4.264148442091     2.434642163145    -1.213020861295     1.007825032230

  Basis Set: AUG-CC-PVTZ
    Blend: AUG-CC-PVTZ
  Basis Set: (AUG-CC-PVTZ AUX)
    Blend: AUG-CC-PVTZ-JKFIT + DEF2-UNIVERSAL-JKFIT
	 Reference Energy          =    -642.0014026890158902 [Eh]
	 Singles Energy            =      -0.0000000000000000 [Eh]
	 Same-Spin Energy          =      -0.4675926893973512 [Eh]
	 Opposite-Spin Energy      =      -1.4533262489756600 [Eh]
	 Correlation Energy        =      -1.9209189383730112 [Eh]
	 Total Energy              =    -643.9223216273888966 [Eh]

	 ================> DF-SCS-MP2 Energies <==================
	-----------------------------------------------------------
	 SCS Same-Spin Scale       =       0.3333333333333333 [-]
	 SCS Opposite-Spin Scale   =       1.2000000000000000 [-]
	 SCS Same-Spin Energy      =      -0.1558642297991171 [Eh]
	 SCS Opposite-Spin Energy  =      -1.7439914987707918 [Eh]
	 SCS Correlation Energy    =      -1.8998557285699089 [Eh]
	 SCS Total Energy          =    -643.9012584175858365 [Eh]
	-----------------------------------------------------------

  Dipole Moment: [D]
     X:    -2.0505      Y:    -0.0256      Z:     0.9246     Total:     2.2495

*** Psi4 exiting successfully. Buy a developer a beer!
