                               Psi4 1.4a3.dev225

  ==> Input File <==

--------------------------------------------------------------------------
#psi4
#
memory 32 gb

molecule  {
0 1
  I        2.3447600     0.0000010    -0.2524410
  C       -0.5542210    -0.0000040     0.7369510
  C       -2.5036070    -1.2253050    -0.0650320
  C       -2.5036000     1.2253100    -0.0650260
  C       -1.2095060     1.2097510     0.4687330
  C       -1.2095100    -1.2097530     0.4687280
  C       -3.1346270     0.0000030    -0.3245500
  C        0.8217770    -0.0000070     1.3091860
  C       -3.2172620    -2.5291670    -0.3215690
  C       -3.2172620     2.5291680    -0.3215670
  H       -0.7890507     1.9781468     0.6259883
  H       -0.6945650    -2.1508430     0.6613200
  H       -4.1398900     0.0000070    -0.7462250
  H        1.0275050    -0.8925940     1.8992530
  H        1.0275050     0.8925750     1.8992610
  H       -3.9060370    -2.4424280    -1.1656010
  H       -3.8011950    -2.8333800     0.5532780
  H       -2.5084500    -3.3308180    -0.5430300
  H       -3.8015320     2.8331670     0.5531290
  H       -2.5084330     3.3309140    -0.5426230
  H       -3.9057300     2.4425370    -1.1658600
units angstrom
no_reorient  #important for SAPT in psi4, default
symmetry c1  #important for SAPT in psi4, default
}

set PROPERTIES_ORIGIN ["COM"]
properties('MP2/aug-cc-pvtz', properties = ['dipole'])
--------------------------------------------------------------------------

    Molecular point group: c1
  Charge       = 0
  Multiplicity = 1
  Basis Set: AUG-CC-PVTZ
    Blend: AUG-CC-PVTZ
  Basis Set: (AUG-CC-PVTZ AUX)
    Blend: AUG-CC-PVTZ-JKFIT + DEF2-UNIVERSAL-JKFIT

    Orbital Energies [Eh]
    ---------------------

    Doubly Occupied:

       1A    -11.290510     2A    -11.252609     3A    -11.248712
       4A    -11.247725     5A    -11.231938     6A    -11.229909
       7A    -11.228412     8A    -11.227853     9A    -11.208965
      10A     -7.706379    11A     -5.537823    12A     -5.528549
      13A     -5.528533    14A     -2.267036    15A     -2.262626
      16A     -2.262597    17A     -2.252344    18A     -2.252344
      19A     -1.166354    20A     -1.073509    21A     -1.063905
      22A     -0.971215    23A     -0.945632    24A     -0.936594
      25A     -0.850306    26A     -0.800701    27A     -0.783402
      28A     -0.705715    29A     -0.666592    30A     -0.619856
      31A     -0.590856    32A     -0.585645    33A     -0.580593
      34A     -0.573148    35A     -0.569720    36A     -0.556251
      37A     -0.525805    38A     -0.511080    39A     -0.490353
      40A     -0.486618    41A     -0.444249    42A     -0.359539
      43A     -0.357412    44A     -0.324254    45A     -0.318119

  @DF-RHF Final Energy:  -641.97407486486009

   => Energetics <=

    Nuclear Repulsion Energy =            615.8157816517597212
    One-Electron Energy =               -2206.3351323584233796
    Two-Electron Energy =                 948.5452758418036865
    Total Energy =                       -641.9740748648600857
  Basis Set: (AUG-CC-PVTZ AUX)
    Blend: AUG-CC-PVTZ-RI + DEF2-QZVPP-RI
    Molecular point group: c1

    Geometry (in Angstrom), charge = 0, multiplicity = 1:

       Center              X                  Y                   Z               Mass
    ------------   -----------------  -----------------  -----------------  -----------------
         I            2.049467998476     0.000708298745    -0.222517584482   126.904471900000
         C           -0.849513001524     0.000703298745     0.766874415518    12.000000000000
         C           -2.798899001524    -1.224597701255    -0.035108584482    12.000000000000
         C           -2.798892001524     1.226017298745    -0.035102584482    12.000000000000
         C           -1.504798001524     1.210458298745     0.498656415518    12.000000000000
         C           -1.504802001524    -1.209045701255     0.498651415518    12.000000000000
         C           -3.429919001524     0.000710298745    -0.294626584482    12.000000000000
         C            0.526484998476     0.000700298745     1.339109415518    12.000000000000
         C           -3.512554001524    -2.528459701255    -0.291645584482    12.000000000000
         C           -3.512554001524     2.529875298745    -0.291643584482    12.000000000000
         H           -1.084342701524     1.978854098745     0.655911715518     1.007825032230
         H           -0.989857001524    -2.150135701255     0.691243415518     1.007825032230
         H           -4.435182001524     0.000714298745    -0.716301584482     1.007825032230
         H            0.732212998476    -0.891886701255     1.929176415518     1.007825032230
         H            0.732212998476     0.893282298745     1.929184415518     1.007825032230
         H           -4.201329001524    -2.441720701255    -1.135677584482     1.007825032230
         H           -4.096487001524    -2.832672701255     0.583201415518     1.007825032230
         H           -2.803742001524    -3.330110701255    -0.513106584482     1.007825032230
         H           -4.096824001524     2.833874298745     0.583052415518     1.007825032230
         H           -2.803725001524     3.331621298745    -0.512699584482     1.007825032230
         H           -4.201022001524     2.443244298745    -1.135936584482     1.007825032230

  Basis Set: AUG-CC-PVTZ
    Blend: AUG-CC-PVTZ
  Basis Set: (AUG-CC-PVTZ AUX)
    Blend: AUG-CC-PVTZ-JKFIT + DEF2-UNIVERSAL-JKFIT
	 Reference Energy          =    -641.9740748648600857 [Eh]
	 Singles Energy            =      -0.0000000000000000 [Eh]
	 Same-Spin Energy          =      -0.4671986442222611 [Eh]
	 Opposite-Spin Energy      =      -1.4518075610358006 [Eh]
	 Correlation Energy        =      -1.9190062052580616 [Eh]
	 Total Energy              =    -643.8930810701181144 [Eh]

	 ================> DF-SCS-MP2 Energies <==================
	-----------------------------------------------------------
	 SCS Same-Spin Scale       =       0.3333333333333333 [-]
	 SCS Opposite-Spin Scale   =       1.2000000000000000 [-]
	 SCS Same-Spin Energy      =      -0.1557328814074204 [Eh]
	 SCS Opposite-Spin Energy  =      -1.7421690732429607 [Eh]
	 SCS Correlation Energy    =      -1.8979019546503810 [Eh]
	 SCS Total Energy          =    -643.8719768195104507 [Eh]
	-----------------------------------------------------------

  Dipole Moment: [D]
     X:    -2.0731      Y:     0.0395      Z:     0.8999     Total:     2.2603

*** Psi4 exiting successfully. Buy a developer a beer!
