                               Psi4 1.4a3.dev225

  ==> Input File <==

--------------------------------------------------------------------------
#psi4
#
memory 32 gb

molecule  {
0 1
  I        2.3447600     0.0000010    -0.2524410
  C       -0.5542210    -0.0000040     0.7369510
  C       -2.5036070    -1.2253050    -0.0650320
  C       -2.5036000     1.2253100    -0.0650260
  C       -1.2095060     1.2097510     0.4687330
  C       -1.2095100    -1.2097530     0.4687280
  C       -3.1346270     0.0000030    -0.3245500
  C        0.8217770    -0.0000070     1.3091860
  C       -3.2172620    -2.5291670    -0.3215690
  C       -3.2172620     2.5291680    -0.3215670
  H       -0.6945570     2.1508370     0.6613300
  H       -0.6945650    -2.1508430     0.6613200
  H       -4.1398900     0.0000070    -0.7462250
  H        1.0275050    -0.8925940     1.8992530
  H        1.0275050     0.8925750     1.8992610
  H       -3.9060370    -2.4424280    -1.1656010
  H       -3.8011950    -2.8333800     0.5532780
  H       -2.5084500    -3.3308180    -0.5430300
  H       -3.8329201     2.8331766     0.5313244
  H       -2.5084330     3.3309140    -0.5426230
  H       -3.9057300     2.4425370    -1.1658600
units angstrom
no_reorient  #important for SAPT in psi4, default
symmetry c1  #important for SAPT in psi4, default
}

set PROPERTIES_ORIGIN ["COM"]
properties('MP2/aug-cc-pvtz', properties = ['dipole'])
--------------------------------------------------------------------------

    Molecular point group: c1
  Charge       = 0
  Multiplicity = 1
  Basis Set: AUG-CC-PVTZ
    Blend: AUG-CC-PVTZ
  Basis Set: (AUG-CC-PVTZ AUX)
    Blend: AUG-CC-PVTZ-JKFIT + DEF2-UNIVERSAL-JKFIT

    Orbital Energies [Eh]
    ---------------------

    Doubly Occupied:

       1A    -11.290381     2A    -11.254162     3A    -11.249411
       4A    -11.249287     5A    -11.233402     6A    -11.233358
       7A    -11.231391     8A    -11.228344     9A    -11.228203
      10A     -7.706208    11A     -5.537654    12A     -5.528374
      13A     -5.528364    14A     -2.266867    15A     -2.262453
      16A     -2.262430    17A     -2.252171    18A     -2.252170
      19A     -1.165302    20A     -1.073154    21A     -1.061104
      22A     -0.970045    23A     -0.938580    24A     -0.933146
      25A     -0.849190    26A     -0.791155    27A     -0.783288
      28A     -0.682441    29A     -0.667094    30A     -0.618034
      31A     -0.589073    32A     -0.585243    33A     -0.573174
      34A     -0.572744    35A     -0.564182    36A     -0.555659
      37A     -0.526090    38A     -0.511634    39A     -0.489136
      40A     -0.485617    41A     -0.444648    42A     -0.359470
      43A     -0.357229    44A     -0.325034    45A     -0.318951

  @DF-RHF Final Energy:  -642.00777997906880

   => Energetics <=

    Nuclear Repulsion Energy =            614.6000224923070618
    One-Electron Energy =               -2204.0455111751175536
    Two-Electron Energy =                 947.4377087037416914
    Total Energy =                       -642.0077799790688005
  Basis Set: (AUG-CC-PVTZ AUX)
    Blend: AUG-CC-PVTZ-RI + DEF2-QZVPP-RI
    Molecular point group: c1

    Geometry (in Angstrom), charge = 0, multiplicity = 1:

       Center              X                  Y                   Z               Mass
    ------------   -----------------  -----------------  -----------------  -----------------
         I            2.049209454381     0.000000746429    -0.222573046078   126.904471900000
         C           -0.849771545619    -0.000004253571     0.766818953922    12.000000000000
         C           -2.799157545619    -1.225305253571    -0.035164046078    12.000000000000
         C           -2.799150545619     1.225309746429    -0.035158046078    12.000000000000
         C           -1.505056545619     1.209750746429     0.498600953922    12.000000000000
         C           -1.505060545619    -1.209753253571     0.498595953922    12.000000000000
         C           -3.430177545619     0.000002746429    -0.294682046078    12.000000000000
         C            0.526226454381    -0.000007253571     1.339053953922    12.000000000000
         C           -3.512812545619    -2.529167253571    -0.291701046078    12.000000000000
         C           -3.512812545619     2.529167746429    -0.291699046078    12.000000000000
         H           -0.990107545619     2.150836746429     0.691197953922     1.007825032230
         H           -0.990115545619    -2.150843253571     0.691187953922     1.007825032230
         H           -4.435440545619     0.000006746429    -0.716357046078     1.007825032230
         H            0.731954454381    -0.892594253571     1.929120953922     1.007825032230
         H            0.731954454381     0.892574746429     1.929128953922     1.007825032230
         H           -4.201587545619    -2.442428253571    -1.135733046078     1.007825032230
         H           -4.096745545619    -2.833380253571     0.583145953922     1.007825032230
         H           -2.804000545619    -3.330818253571    -0.513162046078     1.007825032230
         H           -4.128470645619     2.833176346429     0.561192353922     1.007825032230
         H           -2.803983545619     3.330913746429    -0.512755046078     1.007825032230
         H           -4.201280545619     2.442536746429    -1.135992046078     1.007825032230

  Basis Set: AUG-CC-PVTZ
    Blend: AUG-CC-PVTZ
  Basis Set: (AUG-CC-PVTZ AUX)
    Blend: AUG-CC-PVTZ-JKFIT + DEF2-UNIVERSAL-JKFIT
	 Reference Energy          =    -642.0077799790688005 [Eh]
	 Singles Energy            =      -0.0000000000000000 [Eh]
	 Same-Spin Energy          =      -0.4675691853327425 [Eh]
	 Opposite-Spin Energy      =      -1.4525581143763771 [Eh]
	 Correlation Energy        =      -1.9201272997091197 [Eh]
	 Total Energy              =    -643.9279072787778659 [Eh]

	 ================> DF-SCS-MP2 Energies <==================
	-----------------------------------------------------------
	 SCS Same-Spin Scale       =       0.3333333333333333 [-]
	 SCS Opposite-Spin Scale   =       1.2000000000000000 [-]
	 SCS Same-Spin Energy      =      -0.1558563951109141 [Eh]
	 SCS Opposite-Spin Energy  =      -1.7430697372516524 [Eh]
	 SCS Correlation Energy    =      -1.8989261323625666 [Eh]
	 SCS Total Energy          =    -643.9067061114313901 [Eh]
	-----------------------------------------------------------

  Dipole Moment: [D]
     X:    -2.1079      Y:    -0.0083      Z:     0.8815     Total:     2.2848

*** Psi4 exiting successfully. Buy a developer a beer!
