                               Psi4 1.4a3.dev225

  ==> Input File <==

--------------------------------------------------------------------------
#psi4
#
memory 32 gb

molecule  {
0 1
  I        2.3447600     0.0000010    -0.2524410
  C       -0.5542210    -0.0000040     0.7369510
  C       -2.5036070    -1.2253050    -0.0650320
  C       -2.5036000     1.2253100    -0.0650260
  C       -1.2095060     1.2097510     0.4687330
  C       -1.2095100    -1.2097530     0.4687280
  C       -3.1346270     0.0000030    -0.3245500
  C        0.8217770    -0.0000070     1.3091860
  C       -3.2172620    -2.5291670    -0.3215690
  C       -3.2267247     2.5464563    -0.3249686
  H       -0.6945570     2.1508370     0.6613300
  H       -0.6945650    -2.1508430     0.6613200
  H       -4.1398900     0.0000070    -0.7462250
  H        1.0275050    -0.8925940     1.8992530
  H        1.0275050     0.8925750     1.8992610
  H       -3.9060370    -2.4424280    -1.1656010
  H       -3.8011950    -2.8333800     0.5532780
  H       -2.5084500    -3.3308180    -0.5430300
  H       -3.8015320     2.8331670     0.5531290
  H       -2.5084330     3.3309140    -0.5426230
  H       -3.9057300     2.4425370    -1.1658600
units angstrom
no_reorient  #important for SAPT in psi4, default
symmetry c1  #important for SAPT in psi4, default
}

set PROPERTIES_ORIGIN ["COM"]
properties('MP2/aug-cc-pvtz', properties = ['dipole'])
--------------------------------------------------------------------------

    Molecular point group: c1
  Charge       = 0
  Multiplicity = 1
  Basis Set: AUG-CC-PVTZ
    Blend: AUG-CC-PVTZ
  Basis Set: (AUG-CC-PVTZ AUX)
    Blend: AUG-CC-PVTZ-JKFIT + DEF2-UNIVERSAL-JKFIT

    Orbital Energies [Eh]
    ---------------------

    Doubly Occupied:

       1A    -11.290315     2A    -11.254071     3A    -11.250071
       4A    -11.249189     5A    -11.233224     6A    -11.233164
       7A    -11.231242     8A    -11.228258     9A    -11.227752
      10A     -7.706153    11A     -5.537598    12A     -5.528319
      13A     -5.528309    14A     -2.266811    15A     -2.262397
      16A     -2.262373    17A     -2.252116    18A     -2.252115
      19A     -1.164727    20A     -1.072612    21A     -1.059539
      22A     -0.969834    23A     -0.938781    24A     -0.933271
      25A     -0.849060    26A     -0.790979    27A     -0.782923
      28A     -0.682197    29A     -0.666668    30A     -0.616315
      31A     -0.588682    32A     -0.586810    33A     -0.574695
      34A     -0.572091    35A     -0.562920    36A     -0.557279
      37A     -0.527723    38A     -0.511677    39A     -0.489247
      40A     -0.483247    41A     -0.444888    42A     -0.359421
      43A     -0.357184    44A     -0.325146    45A     -0.318940

  @DF-RHF Final Energy:  -642.00778459881371

   => Energetics <=

    Nuclear Repulsion Energy =            614.2725653268058750
    One-Electron Energy =               -2203.4000323089958329
    Two-Electron Energy =                 947.1196823833763574
    Total Energy =                       -642.0077845988137142
  Basis Set: (AUG-CC-PVTZ AUX)
    Blend: AUG-CC-PVTZ-RI + DEF2-QZVPP-RI
    Molecular point group: c1

    Geometry (in Angstrom), charge = 0, multiplicity = 1:

       Center              X                  Y                   Z               Mass
    ------------   -----------------  -----------------  -----------------  -----------------
         I            2.049542469970    -0.000842578354    -0.222496441596   126.904471900000
         C           -0.849438530030    -0.000847578354     0.766895558404    12.000000000000
         C           -2.798824530030    -1.226148578354    -0.035087441596    12.000000000000
         C           -2.798817530030     1.224466421646    -0.035081441596    12.000000000000
         C           -1.504723530030     1.208907421646     0.498677558404    12.000000000000
         C           -1.504727530030    -1.210596578354     0.498672558404    12.000000000000
         C           -3.429844530030    -0.000840578354    -0.294605441596    12.000000000000
         C            0.526559469970    -0.000850578354     1.339130558404    12.000000000000
         C           -3.512479530030    -2.530010578354    -0.291624441596    12.000000000000
         C           -3.521942230030     2.545612721646    -0.295024041596    12.000000000000
         H           -0.989774530030     2.149993421646     0.691274558404     1.007825032230
         H           -0.989782530030    -2.151686578354     0.691264558404     1.007825032230
         H           -4.435107530030    -0.000836578354    -0.716280441596     1.007825032230
         H            0.732287469970    -0.893437578354     1.929197558404     1.007825032230
         H            0.732287469970     0.891731421646     1.929205558404     1.007825032230
         H           -4.201254530030    -2.443271578354    -1.135656441596     1.007825032230
         H           -4.096412530030    -2.834223578354     0.583222558404     1.007825032230
         H           -2.803667530030    -3.331661578354    -0.513085441596     1.007825032230
         H           -4.096749530030     2.832323421646     0.583073558404     1.007825032230
         H           -2.803650530030     3.330070421646    -0.512678441596     1.007825032230
         H           -4.200947530030     2.441693421646    -1.135915441596     1.007825032230

  Basis Set: AUG-CC-PVTZ
    Blend: AUG-CC-PVTZ
  Basis Set: (AUG-CC-PVTZ AUX)
    Blend: AUG-CC-PVTZ-JKFIT + DEF2-UNIVERSAL-JKFIT
	 Reference Energy          =    -642.0077845988137142 [Eh]
	 Singles Energy            =      -0.0000000000000000 [Eh]
	 Same-Spin Energy          =      -0.4674160950476952 [Eh]
	 Opposite-Spin Energy      =      -1.4524461106795408 [Eh]
	 Correlation Energy        =      -1.9198622057272359 [Eh]
	 Total Energy              =    -643.9276468045409274 [Eh]

	 ================> DF-SCS-MP2 Energies <==================
	-----------------------------------------------------------
	 SCS Same-Spin Scale       =       0.3333333333333333 [-]
	 SCS Opposite-Spin Scale   =       1.2000000000000000 [-]
	 SCS Same-Spin Energy      =      -0.1558053650158984 [Eh]
	 SCS Opposite-Spin Energy  =      -1.7429353328154489 [Eh]
	 SCS Correlation Energy    =      -1.8987406978313472 [Eh]
	 SCS Total Energy          =    -643.9065252966450998 [Eh]
	-----------------------------------------------------------

  Dipole Moment: [D]
     X:    -2.0992      Y:    -0.0019      Z:     0.8854     Total:     2.2783

*** Psi4 exiting successfully. Buy a developer a beer!
