                               Psi4 1.4a3.dev225

  ==> Input File <==

--------------------------------------------------------------------------
#psi4
#
memory 32 gb

molecule  {
0 1
  I        2.3447600     0.0000010    -0.2524410
  C       -0.5542210    -0.0000040     0.7369510
  C       -2.5036070    -1.2253050    -0.0650320
  C       -2.5036000     1.2253100    -0.0650260
  C       -1.2095060     1.2097510     0.4687330
  C       -1.2095100    -1.2097530     0.4687280
  C       -3.1346270     0.0000030    -0.3245500
  C        0.8217770    -0.0000070     1.3091860
  C       -3.2172620    -2.5291670    -0.3215690
  C       -3.2172620     2.5291680    -0.3215670
  H       -0.6945570     2.1508370     0.6613300
  H       -0.6945650    -2.1508430     0.6613200
  H       -4.1398900     0.0000070    -0.7462250
  H        1.0275050    -0.8925940     1.8992530
  H        1.0275050     0.8925750     1.8992610
  H       -3.9060370    -2.4424280    -1.1656010
  H       -3.8011950    -2.8333800     0.5532780
  H       -2.5084500    -3.3308180    -0.5430300
  H       -3.7694321     2.8327870     0.5738679
  H       -2.5084330     3.3309140    -0.5426230
  H       -3.9057300     2.4425370    -1.1658600
units angstrom
no_reorient  #important for SAPT in psi4, default
symmetry c1  #important for SAPT in psi4, default
}

set PROPERTIES_ORIGIN ["COM"]
properties('MP2/aug-cc-pvtz', properties = ['dipole'])
--------------------------------------------------------------------------

    Molecular point group: c1
  Charge       = 0
  Multiplicity = 1
  Basis Set: AUG-CC-PVTZ
    Blend: AUG-CC-PVTZ
  Basis Set: (AUG-CC-PVTZ AUX)
    Blend: AUG-CC-PVTZ-JKFIT + DEF2-UNIVERSAL-JKFIT

    Orbital Energies [Eh]
    ---------------------

    Doubly Occupied:

       1A    -11.290327     2A    -11.254104     3A    -11.249210
       4A    -11.249107     5A    -11.233111     6A    -11.233068
       7A    -11.231125     8A    -11.228417     9A    -11.228259
      10A     -7.706172    11A     -5.537618    12A     -5.528338
      13A     -5.528327    14A     -2.266831    15A     -2.262417
      16A     -2.262393    17A     -2.252134    18A     -2.252133
      19A     -1.165201    20A     -1.073108    21A     -1.061247
      22A     -0.969981    23A     -0.938631    24A     -0.932893
      25A     -0.849088    26A     -0.790819    27A     -0.782913
      28A     -0.682182    29A     -0.667019    30A     -0.617445
      31A     -0.588898    32A     -0.586517    33A     -0.574224
      34A     -0.573074    35A     -0.564147    36A     -0.555497
      37A     -0.525789    38A     -0.511063    39A     -0.489339
      40A     -0.485267    41A     -0.444496    42A     -0.359416
      43A     -0.357189    44A     -0.324754    45A     -0.318923

  @DF-RHF Final Energy:  -642.00779177607308

   => Energetics <=

    Nuclear Repulsion Energy =            614.6735049805988638
    One-Electron Energy =               -2204.1981706034771378
    Two-Electron Energy =                 947.5168738468051970
    Total Energy =                       -642.0077917760730770
  Basis Set: (AUG-CC-PVTZ AUX)
    Blend: AUG-CC-PVTZ-RI + DEF2-QZVPP-RI
    Molecular point group: c1

    Geometry (in Angstrom), charge = 0, multiplicity = 1:

       Center              X                  Y                   Z               Mass
    ------------   -----------------  -----------------  -----------------  -----------------
         I            2.048949343591     0.000002342623    -0.222747347102   126.904471900000
         C           -0.850031656409    -0.000002657377     0.766644652898    12.000000000000
         C           -2.799417656409    -1.225303657377    -0.035338347102    12.000000000000
         C           -2.799410656409     1.225311342623    -0.035332347102    12.000000000000
         C           -1.505316656409     1.209752342623     0.498426652898    12.000000000000
         C           -1.505320656409    -1.209751657377     0.498421652898    12.000000000000
         C           -3.430437656409     0.000004342623    -0.294856347102    12.000000000000
         C            0.525966343591    -0.000005657377     1.338879652898    12.000000000000
         C           -3.513072656409    -2.529165657377    -0.291875347102    12.000000000000
         C           -3.513072656409     2.529169342623    -0.291873347102    12.000000000000
         H           -0.990367656409     2.150838342623     0.691023652898     1.007825032230
         H           -0.990375656409    -2.150841657377     0.691013652898     1.007825032230
         H           -4.435700656409     0.000008342623    -0.716531347102     1.007825032230
         H            0.731694343591    -0.892592657377     1.928946652898     1.007825032230
         H            0.731694343591     0.892576342623     1.928954652898     1.007825032230
         H           -4.201847656409    -2.442426657377    -1.135907347102     1.007825032230
         H           -4.097005656409    -2.833378657377     0.582971652898     1.007825032230
         H           -2.804260656409    -3.330816657377    -0.513336347102     1.007825032230
         H           -4.065242756409     2.832788342623     0.603561552898     1.007825032230
         H           -2.804243656409     3.330915342623    -0.512929347102     1.007825032230
         H           -4.201540656409     2.442538342623    -1.136166347102     1.007825032230

  Basis Set: AUG-CC-PVTZ
    Blend: AUG-CC-PVTZ
  Basis Set: (AUG-CC-PVTZ AUX)
    Blend: AUG-CC-PVTZ-JKFIT + DEF2-UNIVERSAL-JKFIT
	 Reference Energy          =    -642.0077917760730770 [Eh]
	 Singles Energy            =      -0.0000000000000000 [Eh]
	 Same-Spin Energy          =      -0.4675753849680708 [Eh]
	 Opposite-Spin Energy      =      -1.4525865403537246 [Eh]
	 Correlation Energy        =      -1.9201619253217954 [Eh]
	 Total Energy              =    -643.9279537013949266 [Eh]

	 ================> DF-SCS-MP2 Energies <==================
	-----------------------------------------------------------
	 SCS Same-Spin Scale       =       0.3333333333333333 [-]
	 SCS Opposite-Spin Scale   =       1.2000000000000000 [-]
	 SCS Same-Spin Energy      =      -0.1558584616560236 [Eh]
	 SCS Opposite-Spin Energy  =      -1.7431038484244694 [Eh]
	 SCS Correlation Energy    =      -1.8989623100804931 [Eh]
	 SCS Total Energy          =    -643.9067540861535690 [Eh]
	-----------------------------------------------------------

  Dipole Moment: [D]
     X:    -2.0922      Y:     0.0086      Z:     0.8886     Total:     2.2731

*** Psi4 exiting successfully. Buy a developer a beer!
