                               Psi4 1.4a3.dev225

  ==> Input File <==

--------------------------------------------------------------------------
#psi4
#
memory 32 gb

molecule  {
0 1
  I        2.3447600     0.0000010    -0.2524410
  C       -0.5542210    -0.0000040     0.7369510
  C       -2.5036070    -1.2253050    -0.0650320
  C       -2.5036000     1.2253100    -0.0650260
  C       -1.2095060     1.2097510     0.4687330
  C       -1.2095100    -1.2097530     0.4687280
  C       -3.1346270     0.0000030    -0.3245500
  C        0.8217770    -0.0000070     1.3091860
  C       -3.2172620    -2.5291670    -0.3215690
  C       -3.2409188     2.5723888    -0.3300709
  H       -0.6945570     2.1508370     0.6613300
  H       -0.6945650    -2.1508430     0.6613200
  H       -4.1398900     0.0000070    -0.7462250
  H        1.0275050    -0.8925940     1.8992530
  H        1.0275050     0.8925750     1.8992610
  H       -3.9060370    -2.4424280    -1.1656010
  H       -3.8011950    -2.8333800     0.5532780
  H       -2.5084500    -3.3308180    -0.5430300
  H       -3.8015320     2.8331670     0.5531290
  H       -2.5084330     3.3309140    -0.5426230
  H       -3.9057300     2.4425370    -1.1658600
units angstrom
no_reorient  #important for SAPT in psi4, default
symmetry c1  #important for SAPT in psi4, default
}

set PROPERTIES_ORIGIN ["COM"]
properties('MP2/aug-cc-pvtz', properties = ['dipole'])
--------------------------------------------------------------------------

    Molecular point group: c1
  Charge       = 0
  Multiplicity = 1
  Basis Set: AUG-CC-PVTZ
    Blend: AUG-CC-PVTZ
  Basis Set: (AUG-CC-PVTZ AUX)
    Blend: AUG-CC-PVTZ-JKFIT + DEF2-UNIVERSAL-JKFIT

    Orbital Energies [Eh]
    ---------------------

    Doubly Occupied:

       1A    -11.290258     2A    -11.253982     3A    -11.251188
       4A    -11.249100     5A    -11.233192     6A    -11.233076
       7A    -11.231220     8A    -11.228194     9A    -11.227156
      10A     -7.706097    11A     -5.537541    12A     -5.528264
      13A     -5.528254    14A     -2.266754    15A     -2.262341
      16A     -2.262317    17A     -2.252062    18A     -2.252061
      19A     -1.164026    20A     -1.072045    21A     -1.057125
      22A     -0.969603    23A     -0.939185    24A     -0.933578
      25A     -0.848946    26A     -0.790941    27A     -0.782656
      28A     -0.682036    29A     -0.666149    30A     -0.614582
      31A     -0.588905    32A     -0.588592    33A     -0.576198
      34A     -0.571318    35A     -0.560933    36A     -0.559200
      37A     -0.529867    38A     -0.512028    39A     -0.489486
      40A     -0.479009    41A     -0.445258    42A     -0.359384
      43A     -0.357144    44A     -0.325460    45A     -0.318915

  @DF-RHF Final Energy:  -642.00624392500458

   => Energetics <=

    Nuclear Repulsion Energy =            613.7361901201592218
    One-Electron Energy =               -2202.3336199232812760
    Two-Electron Energy =                 946.5911858781173578
    Total Energy =                       -642.0062439250045827
  Basis Set: (AUG-CC-PVTZ AUX)
    Blend: AUG-CC-PVTZ-RI + DEF2-QZVPP-RI
    Molecular point group: c1

    Geometry (in Angstrom), charge = 0, multiplicity = 1:

       Center              X                  Y                   Z               Mass
    ------------   -----------------  -----------------  -----------------  -----------------
         I            2.050234891699    -0.002107626965    -0.222247539349   126.904471900000
         C           -0.848746108301    -0.002112626965     0.767144460651    12.000000000000
         C           -2.798132108301    -1.227413626965    -0.034838539349    12.000000000000
         C           -2.798125108301     1.223201373035    -0.034832539349    12.000000000000
         C           -1.504031108301     1.207642373035     0.498926460651    12.000000000000
         C           -1.504035108301    -1.211861626965     0.498921460651    12.000000000000
         C           -3.429152108301    -0.002105626965    -0.294356539349    12.000000000000
         C            0.527251891699    -0.002115626965     1.339379460651    12.000000000000
         C           -3.511787108301    -2.531275626965    -0.291375539349    12.000000000000
         C           -3.535443908301     2.570280173035    -0.299877439349    12.000000000000
         H           -0.989082108301     2.148728373035     0.691523460651     1.007825032230
         H           -0.989090108301    -2.152951626965     0.691513460651     1.007825032230
         H           -4.434415108301    -0.002101626965    -0.716031539349     1.007825032230
         H            0.732979891699    -0.894702626965     1.929446460651     1.007825032230
         H            0.732979891699     0.890466373035     1.929454460651     1.007825032230
         H           -4.200562108301    -2.444536626965    -1.135407539349     1.007825032230
         H           -4.095720108301    -2.835488626965     0.583471460651     1.007825032230
         H           -2.802975108301    -3.332926626965    -0.512836539349     1.007825032230
         H           -4.096057108301     2.831058373035     0.583322460651     1.007825032230
         H           -2.802958108301     3.328805373035    -0.512429539349     1.007825032230
         H           -4.200255108301     2.440428373035    -1.135666539349     1.007825032230

  Basis Set: AUG-CC-PVTZ
    Blend: AUG-CC-PVTZ
  Basis Set: (AUG-CC-PVTZ AUX)
    Blend: AUG-CC-PVTZ-JKFIT + DEF2-UNIVERSAL-JKFIT
	 Reference Energy          =    -642.0062439250045827 [Eh]
	 Singles Energy            =      -0.0000000000000000 [Eh]
	 Same-Spin Energy          =      -0.4672523491347919 [Eh]
	 Opposite-Spin Energy      =      -1.4523717009641806 [Eh]
	 Correlation Energy        =      -1.9196240500989723 [Eh]
	 Total Energy              =    -643.9258679751035288 [Eh]

	 ================> DF-SCS-MP2 Energies <==================
	-----------------------------------------------------------
	 SCS Same-Spin Scale       =       0.3333333333333333 [-]
	 SCS Opposite-Spin Scale   =       1.2000000000000000 [-]
	 SCS Same-Spin Energy      =      -0.1557507830449306 [Eh]
	 SCS Opposite-Spin Energy  =      -1.7428460411570166 [Eh]
	 SCS Correlation Energy    =      -1.8985968242019471 [Eh]
	 SCS Total Energy          =    -643.9048407492065280 [Eh]
	-----------------------------------------------------------

  Dipole Moment: [D]
     X:    -2.0974      Y:    -0.0060      Z:     0.8856     Total:     2.2767

*** Psi4 exiting successfully. Buy a developer a beer!
