                               Psi4 1.4a3.dev225

  ==> Input File <==

--------------------------------------------------------------------------
#psi4
#
memory 32 gb

molecule  {
0 1
  I        2.3447600     0.0000010    -0.2524410
  C       -0.5542210    -0.0000040     0.7369510
  C       -2.5036070    -1.2253050    -0.0650320
  C       -2.5036000     1.2253100    -0.0650260
  C       -1.2095060     1.2097510     0.4687330
  C       -1.2095100    -1.2097530     0.4687280
  C       -3.1346270     0.0000030    -0.3245500
  C        0.8217770    -0.0000070     1.3091860
  C       -3.2172620    -2.5291670    -0.3215690
  C       -3.2172620     2.5291680    -0.3215670
  H       -0.6945570     2.1508370     0.6613300
  H       -0.6945650    -2.1508430     0.6613200
  H       -4.1398900     0.0000070    -0.7462250
  H        1.0275050    -0.8925940     1.8992530
  H        1.0275050     0.8925750     1.8992610
  H       -3.9060370    -2.4424280    -1.1656010
  H       -3.8011950    -2.8333800     0.5532780
  H       -2.5084500    -3.3308180    -0.5430300
  H       -3.8015320     2.8331670     0.5531290
  H       -2.5084330     3.3309140    -0.5426230
  H       -3.8742313     2.4465005    -1.1272320
units angstrom
no_reorient  #important for SAPT in psi4, default
symmetry c1  #important for SAPT in psi4, default
}

set PROPERTIES_ORIGIN ["COM"]
properties('MP2/aug-cc-pvtz', properties = ['dipole'])
--------------------------------------------------------------------------

    Molecular point group: c1
  Charge       = 0
  Multiplicity = 1
  Basis Set: AUG-CC-PVTZ
    Blend: AUG-CC-PVTZ
  Basis Set: (AUG-CC-PVTZ AUX)
    Blend: AUG-CC-PVTZ-JKFIT + DEF2-UNIVERSAL-JKFIT

    Orbital Energies [Eh]
    ---------------------

    Doubly Occupied:

       1A    -11.290240     2A    -11.253958     3A    -11.249179
       4A    -11.248857     5A    -11.233086     6A    -11.232898
       7A    -11.231197     8A    -11.228250     9A    -11.222186
      10A     -7.706105    11A     -5.537550    12A     -5.528271
      13A     -5.528261    14A     -2.266763    15A     -2.262349
      16A     -2.262326    17A     -2.252068    18A     -2.252068
      19A     -1.165158    20A     -1.073294    21A     -1.061743
      22A     -0.971008    23A     -0.939990    24A     -0.934245
      25A     -0.849139    26A     -0.791582    27A     -0.783504
      28A     -0.682295    29A     -0.667423    30A     -0.618160
      31A     -0.590545    32A     -0.586476    33A     -0.574437
      34A     -0.572880    35A     -0.564517    36A     -0.558353
      37A     -0.528034    38A     -0.511215    39A     -0.489688
      40A     -0.485165    41A     -0.444531    42A     -0.359363
      43A     -0.357124    44A     -0.324748    45A     -0.318882

  @DF-RHF Final Energy:  -642.00691951322426

   => Energetics <=

    Nuclear Repulsion Energy =            614.8646655061420461
    One-Electron Energy =               -2204.5649424478083347
    Two-Electron Energy =                 947.6933574284420274
    Total Energy =                       -642.0069195132242612
  Basis Set: (AUG-CC-PVTZ AUX)
    Blend: AUG-CC-PVTZ-RI + DEF2-QZVPP-RI
    Molecular point group: c1

    Geometry (in Angstrom), charge = 0, multiplicity = 1:

       Center              X                  Y                   Z               Mass
    ------------   -----------------  -----------------  -----------------  -----------------
         I            2.048951806711    -0.000015452728    -0.222820638872   126.904471900000
         C           -0.850029193289    -0.000020452728     0.766571361128    12.000000000000
         C           -2.799415193289    -1.225321452728    -0.035411638872    12.000000000000
         C           -2.799408193289     1.225293547272    -0.035405638872    12.000000000000
         C           -1.505314193289     1.209734547272     0.498353361128    12.000000000000
         C           -1.505318193289    -1.209769452728     0.498348361128    12.000000000000
         C           -3.430435193289    -0.000013452728    -0.294929638872    12.000000000000
         C            0.525968806711    -0.000023452728     1.338806361128    12.000000000000
         C           -3.513070193289    -2.529183452728    -0.291948638872    12.000000000000
         C           -3.513070193289     2.529151547272    -0.291946638872    12.000000000000
         H           -0.990365193289     2.150820547272     0.690950361128     1.007825032230
         H           -0.990373193289    -2.150859452728     0.690940361128     1.007825032230
         H           -4.435698193289    -0.000009452728    -0.716604638872     1.007825032230
         H            0.731696806711    -0.892610452728     1.928873361128     1.007825032230
         H            0.731696806711     0.892558547272     1.928881361128     1.007825032230
         H           -4.201845193289    -2.442444452728    -1.135980638872     1.007825032230
         H           -4.097003193289    -2.833396452728     0.582898361128     1.007825032230
         H           -2.804258193289    -3.330834452728    -0.513409638872     1.007825032230
         H           -4.097340193289     2.833150547272     0.582749361128     1.007825032230
         H           -2.804241193289     3.330897547272    -0.513002638872     1.007825032230
         H           -4.170039493289     2.446484047272    -1.097611638872     1.007825032230

  Basis Set: AUG-CC-PVTZ
    Blend: AUG-CC-PVTZ
  Basis Set: (AUG-CC-PVTZ AUX)
    Blend: AUG-CC-PVTZ-JKFIT + DEF2-UNIVERSAL-JKFIT
	 Reference Energy          =    -642.0069195132242612 [Eh]
	 Singles Energy            =      -0.0000000000000000 [Eh]
	 Same-Spin Energy          =      -0.4675599588001859 [Eh]
	 Opposite-Spin Energy      =      -1.4522678924357328 [Eh]
	 Correlation Energy        =      -1.9198278512359188 [Eh]
	 Total Energy              =    -643.9267473644601978 [Eh]

	 ================> DF-SCS-MP2 Energies <==================
	-----------------------------------------------------------
	 SCS Same-Spin Scale       =       0.3333333333333333 [-]
	 SCS Opposite-Spin Scale   =       1.2000000000000000 [-]
	 SCS Same-Spin Energy      =      -0.1558533196000620 [Eh]
	 SCS Opposite-Spin Energy  =      -1.7427214709228793 [Eh]
	 SCS Correlation Energy    =      -1.8985747905229413 [Eh]
	 SCS Total Energy          =    -643.9054943037472185 [Eh]
	-----------------------------------------------------------

  Dipole Moment: [D]
     X:    -2.1199      Y:     0.0106      Z:     0.8699     Total:     2.2915

*** Psi4 exiting successfully. Buy a developer a beer!
