                               Psi4 1.4a3.dev225

  ==> Input File <==

--------------------------------------------------------------------------
#psi4
#
memory 32 gb

molecule  {
0 1
  I        2.3447600     0.0000010    -0.2524410
  C       -0.5542210    -0.0000040     0.7369510
  C       -2.5036070    -1.2253050    -0.0650320
  C       -2.5036000     1.2253100    -0.0650260
  C       -1.2095060     1.2097510     0.4687330
  C       -1.2095100    -1.2097530     0.4687280
  C       -3.1346270     0.0000030    -0.3245500
  C        0.8217770    -0.0000070     1.3091860
  C       -3.2172620    -2.5291670    -0.3215690
  C       -3.2172620     2.5291680    -0.3215670
  H       -0.6945570     2.1508370     0.6613300
  H       -0.6945650    -2.1508430     0.6613200
  H       -4.1398900     0.0000070    -0.7462250
  H        1.0275050    -0.8925940     1.8992530
  H        1.0275050     0.8925750     1.8992610
  H       -3.9060370    -2.4424280    -1.1656010
  H       -3.8011950    -2.8333800     0.5532780
  H       -2.4954770    -3.3454902    -0.5470833
  H       -3.8015320     2.8331670     0.5531290
  H       -2.5084330     3.3309140    -0.5426230
  H       -3.9057300     2.4425370    -1.1658600
units angstrom
no_reorient  #important for SAPT in psi4, default
symmetry c1  #important for SAPT in psi4, default
}

set PROPERTIES_ORIGIN ["COM"]
properties('MP2/aug-cc-pvtz', properties = ['dipole'])
--------------------------------------------------------------------------

    Molecular point group: c1
  Charge       = 0
  Multiplicity = 1
  Basis Set: AUG-CC-PVTZ
    Blend: AUG-CC-PVTZ
  Basis Set: (AUG-CC-PVTZ AUX)
    Blend: AUG-CC-PVTZ-JKFIT + DEF2-UNIVERSAL-JKFIT

    Orbital Energies [Eh]
    ---------------------

    Doubly Occupied:

       1A    -11.290375     2A    -11.254165     3A    -11.249422
       4A    -11.249325     5A    -11.233315     6A    -11.233263
       7A    -11.231412     8A    -11.230705     9A    -11.228359
      10A     -7.706206    11A     -5.537652    12A     -5.528372
      13A     -5.528361    14A     -2.266866    15A     -2.262451
      16A     -2.262428    17A     -2.252168    18A     -2.252167
      19A     -1.165297    20A     -1.073129    21A     -1.060943
      22A     -0.969760    23A     -0.938089    24A     -0.932517
      25A     -0.849168    26A     -0.790576    27A     -0.783128
      28A     -0.682334    29A     -0.666858    30A     -0.617729
      31A     -0.588692    32A     -0.585651    33A     -0.573546
      34A     -0.572584    35A     -0.563988    36A     -0.554514
      37A     -0.524979    38A     -0.511290    39A     -0.489336
      40A     -0.485391    41A     -0.444601    42A     -0.359463
      43A     -0.357223    44A     -0.324932    45A     -0.319010

  @DF-RHF Final Energy:  -642.00740767939067

   => Energetics <=

    Nuclear Repulsion Energy =            614.5524583091100794
    One-Electron Energy =               -2203.9562513013620446
    Two-Electron Energy =                 947.3963853128612982
    Total Energy =                       -642.0074076793906670
  Basis Set: (AUG-CC-PVTZ AUX)
    Blend: AUG-CC-PVTZ-RI + DEF2-QZVPP-RI
    Molecular point group: c1

    Geometry (in Angstrom), charge = 0, multiplicity = 1:

       Center              X                  Y                   Z               Mass
    ------------   -----------------  -----------------  -----------------  -----------------
         I            2.049027706637     0.000060897868    -0.222645773281   126.904471900000
         C           -0.849953293363     0.000055897868     0.766746226719    12.000000000000
         C           -2.799339293363    -1.225245102132    -0.035236773281    12.000000000000
         C           -2.799332293363     1.225369897868    -0.035230773281    12.000000000000
         C           -1.505238293363     1.209810897868     0.498528226719    12.000000000000
         C           -1.505242293363    -1.209693102132     0.498523226719    12.000000000000
         C           -3.430359293363     0.000062897868    -0.294754773281    12.000000000000
         C            0.526044706637     0.000052897868     1.338981226719    12.000000000000
         C           -3.512994293363    -2.529107102132    -0.291773773281    12.000000000000
         C           -3.512994293363     2.529227897868    -0.291771773281    12.000000000000
         H           -0.990289293363     2.150896897868     0.691125226719     1.007825032230
         H           -0.990297293363    -2.150783102132     0.691115226719     1.007825032230
         H           -4.435622293363     0.000066897868    -0.716429773281     1.007825032230
         H            0.731772706637    -0.892534102132     1.929048226719     1.007825032230
         H            0.731772706637     0.892634897868     1.929056226719     1.007825032230
         H           -4.201769293363    -2.442368102132    -1.135805773281     1.007825032230
         H           -4.096927293363    -2.833320102132     0.583073226719     1.007825032230
         H           -2.791209293363    -3.345430302132    -0.517288073281     1.007825032230
         H           -4.097264293363     2.833226897868     0.582924226719     1.007825032230
         H           -2.804165293363     3.330973897868    -0.512827773281     1.007825032230
         H           -4.201462293363     2.442596897868    -1.136064773281     1.007825032230

  Basis Set: AUG-CC-PVTZ
    Blend: AUG-CC-PVTZ
  Basis Set: (AUG-CC-PVTZ AUX)
    Blend: AUG-CC-PVTZ-JKFIT + DEF2-UNIVERSAL-JKFIT
	 Reference Energy          =    -642.0074076793906670 [Eh]
	 Singles Energy            =      -0.0000000000000000 [Eh]
	 Same-Spin Energy          =      -0.4675701647984579 [Eh]
	 Opposite-Spin Energy      =      -1.4527005723237052 [Eh]
	 Correlation Energy        =      -1.9202707371221632 [Eh]
	 Total Energy              =    -643.9276784165127765 [Eh]

	 ================> DF-SCS-MP2 Energies <==================
	-----------------------------------------------------------
	 SCS Same-Spin Scale       =       0.3333333333333333 [-]
	 SCS Opposite-Spin Scale   =       1.2000000000000000 [-]
	 SCS Same-Spin Energy      =      -0.1558567215994860 [Eh]
	 SCS Opposite-Spin Energy  =      -1.7432406867884462 [Eh]
	 SCS Correlation Energy    =      -1.8990974083879322 [Eh]
	 SCS Total Energy          =    -643.9065050877785552 [Eh]
	-----------------------------------------------------------

  Dipole Moment: [D]
     X:    -2.1015      Y:     0.0112      Z:     0.8878     Total:     2.2814

*** Psi4 exiting successfully. Buy a developer a beer!
