                               Psi4 1.4a3.dev225

  ==> Input File <==

--------------------------------------------------------------------------
#psi4
#
memory 32 gb

molecule  {
0 1
  I        2.3447600     0.0000010    -0.2524410
  C       -0.5542210    -0.0000040     0.7369510
  C       -2.5036070    -1.2253050    -0.0650320
  C       -2.5036000     1.2253100    -0.0650260
  C       -1.2095060     1.2097510     0.4687330
  C       -1.2095100    -1.2097530     0.4687280
  C       -3.1346270     0.0000030    -0.3245500
  C        0.8217770    -0.0000070     1.3091860
  C       -3.2172620    -2.5291670    -0.3215690
  C       -3.2172620     2.5291680    -0.3215670
  H       -0.7181804     2.1076644     0.6524946
  H       -0.6945650    -2.1508430     0.6613200
  H       -4.1398900     0.0000070    -0.7462250
  H        1.0275050    -0.8925940     1.8992530
  H        1.0275050     0.8925750     1.8992610
  H       -3.9060370    -2.4424280    -1.1656010
  H       -3.8011950    -2.8333800     0.5532780
  H       -2.5084500    -3.3308180    -0.5430300
  H       -3.8015320     2.8331670     0.5531290
  H       -2.5084330     3.3309140    -0.5426230
  H       -3.9057300     2.4425370    -1.1658600
units angstrom
no_reorient  #important for SAPT in psi4, default
symmetry c1  #important for SAPT in psi4, default
}

set PROPERTIES_ORIGIN ["COM"]
properties('MP2/aug-cc-pvtz', properties = ['dipole'])
--------------------------------------------------------------------------

    Molecular point group: c1
  Charge       = 0
  Multiplicity = 1
  Basis Set: AUG-CC-PVTZ
    Blend: AUG-CC-PVTZ
  Basis Set: (AUG-CC-PVTZ AUX)
    Blend: AUG-CC-PVTZ-JKFIT + DEF2-UNIVERSAL-JKFIT

    Orbital Energies [Eh]
    ---------------------

    Doubly Occupied:

       1A    -11.290390     2A    -11.253634     3A    -11.249051
       4A    -11.248751     5A    -11.232859     6A    -11.230870
       7A    -11.228322     8A    -11.228151     9A    -11.227253
      10A     -7.706235    11A     -5.537679    12A     -5.528402
      13A     -5.528390    14A     -2.266892    15A     -2.262480
      16A     -2.262455    17A     -2.252198    18A     -2.252198
      19A     -1.165312    20A     -1.073084    21A     -1.061620
      22A     -0.970097    23A     -0.939028    24A     -0.934524
      25A     -0.849327    26A     -0.792579    27A     -0.783277
      28A     -0.687632    29A     -0.666892    30A     -0.618168
      31A     -0.588976    32A     -0.585863    33A     -0.574379
      34A     -0.573272    35A     -0.567064    36A     -0.556092
      37A     -0.525899    38A     -0.511289    39A     -0.489325
      40A     -0.486154    41A     -0.444477    42A     -0.359463
      43A     -0.357261    44A     -0.324658    45A     -0.318682

  @DF-RHF Final Energy:  -642.00722308456079

   => Energetics <=

    Nuclear Repulsion Energy =            614.9048325210063695
    One-Electron Energy =               -2204.6429091550426165
    Two-Electron Energy =                 947.7308535494753414
    Total Energy =                       -642.0072230845607919
  Basis Set: (AUG-CC-PVTZ AUX)
    Blend: AUG-CC-PVTZ-RI + DEF2-QZVPP-RI
    Molecular point group: c1

    Geometry (in Angstrom), charge = 0, multiplicity = 1:

       Center              X                  Y                   Z               Mass
    ------------   -----------------  -----------------  -----------------  -----------------
         I            2.049177642349     0.000177664211    -0.222626180983   126.904471900000
         C           -0.849803357651     0.000172664211     0.766765819017    12.000000000000
         C           -2.799189357651    -1.225128335789    -0.035217180983    12.000000000000
         C           -2.799182357651     1.225486664211    -0.035211180983    12.000000000000
         C           -1.505088357651     1.209927664211     0.498547819017    12.000000000000
         C           -1.505092357651    -1.209576335789     0.498542819017    12.000000000000
         C           -3.430209357651     0.000179664211    -0.294735180983    12.000000000000
         C            0.526194642349     0.000169664211     1.339000819017    12.000000000000
         C           -3.512844357651    -2.528990335789    -0.291754180983    12.000000000000
         C           -3.512844357651     2.529344664211    -0.291752180983    12.000000000000
         H           -1.013762757651     2.107841064211     0.682309419017     1.007825032230
         H           -0.990147357651    -2.150666335789     0.691134819017     1.007825032230
         H           -4.435472357651     0.000183664211    -0.716410180983     1.007825032230
         H            0.731922642349    -0.892417335789     1.929067819017     1.007825032230
         H            0.731922642349     0.892751664211     1.929075819017     1.007825032230
         H           -4.201619357651    -2.442251335789    -1.135786180983     1.007825032230
         H           -4.096777357651    -2.833203335789     0.583092819017     1.007825032230
         H           -2.804032357651    -3.330641335789    -0.513215180983     1.007825032230
         H           -4.097114357651     2.833343664211     0.582943819017     1.007825032230
         H           -2.804015357651     3.331090664211    -0.512808180983     1.007825032230
         H           -4.201312357651     2.442713664211    -1.136045180983     1.007825032230

  Basis Set: AUG-CC-PVTZ
    Blend: AUG-CC-PVTZ
  Basis Set: (AUG-CC-PVTZ AUX)
    Blend: AUG-CC-PVTZ-JKFIT + DEF2-UNIVERSAL-JKFIT
	 Reference Energy          =    -642.0072230845607919 [Eh]
	 Singles Energy            =      -0.0000000000000000 [Eh]
	 Same-Spin Energy          =      -0.4674358352777610 [Eh]
	 Opposite-Spin Energy      =      -1.4522051579518738 [Eh]
	 Correlation Energy        =      -1.9196409932296348 [Eh]
	 Total Energy              =    -643.9268640777904693 [Eh]

	 ================> DF-SCS-MP2 Energies <==================
	-----------------------------------------------------------
	 SCS Same-Spin Scale       =       0.3333333333333333 [-]
	 SCS Opposite-Spin Scale   =       1.2000000000000000 [-]
	 SCS Same-Spin Energy      =      -0.1558119450925870 [Eh]
	 SCS Opposite-Spin Energy  =      -1.7426461895422485 [Eh]
	 SCS Correlation Energy    =      -1.8984581346348355 [Eh]
	 SCS Total Energy          =    -643.9056812191955714 [Eh]
	-----------------------------------------------------------

  Dipole Moment: [D]
     X:    -2.0908      Y:     0.0143      Z:     0.8902     Total:     2.2725

*** Psi4 exiting successfully. Buy a developer a beer!
