                               Psi4 1.4a3.dev225

  ==> Input File <==

--------------------------------------------------------------------------
#psi4
#
memory 32 gb

molecule  {
0 1
  I        2.3447600     0.0000010    -0.2524410
  C       -0.5542210    -0.0000040     0.7369510
  C       -2.5036070    -1.2253050    -0.0650320
  C       -2.4939296     1.3715215    -0.0640956
  C       -1.2095060     1.2097510     0.4687330
  C       -1.2095100    -1.2097530     0.4687280
  C       -3.1346270     0.0000030    -0.3245500
  C        0.8217770    -0.0000070     1.3091860
  C       -3.2172620    -2.5291670    -0.3215690
  C       -3.2172620     2.5291680    -0.3215670
  H       -0.6945570     2.1508370     0.6613300
  H       -0.6945650    -2.1508430     0.6613200
  H       -4.1398900     0.0000070    -0.7462250
  H        1.0275050    -0.8925940     1.8992530
  H        1.0275050     0.8925750     1.8992610
  H       -3.9060370    -2.4424280    -1.1656010
  H       -3.8011950    -2.8333800     0.5532780
  H       -2.5084500    -3.3308180    -0.5430300
  H       -3.8015320     2.8331670     0.5531290
  H       -2.5084330     3.3309140    -0.5426230
  H       -3.9057300     2.4425370    -1.1658600
units angstrom
no_reorient  #important for SAPT in psi4, default
symmetry c1  #important for SAPT in psi4, default
}

set PROPERTIES_ORIGIN ["COM"]
properties('MP2/aug-cc-pvtz', properties = ['dipole'])
--------------------------------------------------------------------------

    Molecular point group: c1
  Charge       = 0
  Multiplicity = 1
  Basis Set: AUG-CC-PVTZ
    Blend: AUG-CC-PVTZ
  Basis Set: (AUG-CC-PVTZ AUX)
    Blend: AUG-CC-PVTZ-JKFIT + DEF2-UNIVERSAL-JKFIT

    Orbital Energies [Eh]
    ---------------------

    Doubly Occupied:

       1A    -11.290502     2A    -11.258482     3A    -11.254583
       4A    -11.247712     5A    -11.241637     6A    -11.234837
       7A    -11.234454     8A    -11.227636     9A    -11.226500
      10A     -7.705300    11A     -5.536730    12A     -5.527477
      13A     -5.527464    14A     -2.265943    15A     -2.261537
      16A     -2.261515    17A     -2.251284    18A     -2.251284
      19A     -1.159125    20A     -1.080759    21A     -1.067271
      22A     -0.974365    23A     -0.939300    24A     -0.927821
      25A     -0.848367    26A     -0.788685    27A     -0.779746
      28A     -0.676353    29A     -0.664694    30A     -0.632290
      31A     -0.595530    32A     -0.592785    33A     -0.578504
      34A     -0.574862    35A     -0.562842    36A     -0.558640
      37A     -0.525361    38A     -0.513313    39A     -0.498951
      40A     -0.460554    41A     -0.437873    42A     -0.358002
      43A     -0.356386    44A     -0.327339    45A     -0.306042

  @DF-RHF Final Energy:  -641.97866509800087

   => Energetics <=

    Nuclear Repulsion Energy =            613.3837001926270887
    One-Electron Energy =               -2201.5434543092237618
    Two-Electron Energy =                 946.1810890185956850
    Total Energy =                       -641.9786650980008744
  Basis Set: (AUG-CC-PVTZ AUX)
    Blend: AUG-CC-PVTZ-RI + DEF2-QZVPP-RI
    Molecular point group: c1

    Geometry (in Angstrom), charge = 0, multiplicity = 1:

       Center              X                  Y                   Z               Mass
    ------------   -----------------  -----------------  -----------------  -----------------
         I            2.048609112154    -0.007131756606    -0.222707766790   126.904471900000
         C           -0.850371887846    -0.007136756606     0.766684233210    12.000000000000
         C           -2.799757887846    -1.232437756606    -0.035298766790    12.000000000000
         C           -2.790080487846     1.364388743394    -0.034362366790    12.000000000000
         C           -1.505656887846     1.202618243394     0.498466233210    12.000000000000
         C           -1.505660887846    -1.216885756606     0.498461233210    12.000000000000
         C           -3.430777887846    -0.007129756606    -0.294816766790    12.000000000000
         C            0.525626112154    -0.007139756606     1.338919233210    12.000000000000
         C           -3.513412887846    -2.536299756606    -0.291835766790    12.000000000000
         C           -3.513412887846     2.522035243394    -0.291833766790    12.000000000000
         H           -0.990707887846     2.143704243394     0.691063233210     1.007825032230
         H           -0.990715887846    -2.157975756606     0.691053233210     1.007825032230
         H           -4.436040887846    -0.007125756606    -0.716491766790     1.007825032230
         H            0.731354112154    -0.899726756606     1.928986233210     1.007825032230
         H            0.731354112154     0.885442243394     1.928994233210     1.007825032230
         H           -4.202187887846    -2.449560756606    -1.135867766790     1.007825032230
         H           -4.097345887846    -2.840512756606     0.583011233210     1.007825032230
         H           -2.804600887846    -3.337950756606    -0.513296766790     1.007825032230
         H           -4.097682887846     2.826034243394     0.582862233210     1.007825032230
         H           -2.804583887846     3.323781243394    -0.512889766790     1.007825032230
         H           -4.201880887846     2.435404243394    -1.136126766790     1.007825032230

  Basis Set: AUG-CC-PVTZ
    Blend: AUG-CC-PVTZ
  Basis Set: (AUG-CC-PVTZ AUX)
    Blend: AUG-CC-PVTZ-JKFIT + DEF2-UNIVERSAL-JKFIT
	 Reference Energy          =    -641.9786650980008744 [Eh]
	 Singles Energy            =      -0.0000000000000000 [Eh]
	 Same-Spin Energy          =      -0.4693923437866570 [Eh]
	 Opposite-Spin Energy      =      -1.4561583760844405 [Eh]
	 Correlation Energy        =      -1.9255507198710975 [Eh]
	 Total Energy              =    -643.9042158178720001 [Eh]

	 ================> DF-SCS-MP2 Energies <==================
	-----------------------------------------------------------
	 SCS Same-Spin Scale       =       0.3333333333333333 [-]
	 SCS Opposite-Spin Scale   =       1.2000000000000000 [-]
	 SCS Same-Spin Energy      =      -0.1564641145955523 [Eh]
	 SCS Opposite-Spin Energy  =      -1.7473900513013285 [Eh]
	 SCS Correlation Energy    =      -1.9038541658968808 [Eh]
	 SCS Total Energy          =    -643.8825192638977342 [Eh]
	-----------------------------------------------------------

  Dipole Moment: [D]
     X:    -2.2540      Y:     0.1747      Z:     0.8567     Total:     2.4176

*** Psi4 exiting successfully. Buy a developer a beer!
