                               Psi4 1.4a3.dev225

  ==> Input File <==

--------------------------------------------------------------------------
#psi4
#
memory 32 gb

molecule  {
0 1
  I        2.3447600     0.0000010    -0.2524410
  C       -0.5542210    -0.0000040     0.7369510
  C       -2.5036070    -1.2253050    -0.0650320
  C       -2.4298750     1.2986022     0.0538022
  C       -1.2095060     1.2097510     0.4687330
  C       -1.2095100    -1.2097530     0.4687280
  C       -3.1346270     0.0000030    -0.3245500
  C        0.8217770    -0.0000070     1.3091860
  C       -3.2172620    -2.5291670    -0.3215690
  C       -3.2172620     2.5291680    -0.3215670
  H       -0.6945570     2.1508370     0.6613300
  H       -0.6945650    -2.1508430     0.6613200
  H       -4.1398900     0.0000070    -0.7462250
  H        1.0275050    -0.8925940     1.8992530
  H        1.0275050     0.8925750     1.8992610
  H       -3.9060370    -2.4424280    -1.1656010
  H       -3.8011950    -2.8333800     0.5532780
  H       -2.5084500    -3.3308180    -0.5430300
  H       -3.8015320     2.8331670     0.5531290
  H       -2.5084330     3.3309140    -0.5426230
  H       -3.9057300     2.4425370    -1.1658600
units angstrom
no_reorient  #important for SAPT in psi4, default
symmetry c1  #important for SAPT in psi4, default
}

set PROPERTIES_ORIGIN ["COM"]
properties('MP2/aug-cc-pvtz', properties = ['dipole'])
--------------------------------------------------------------------------

    Molecular point group: c1
  Charge       = 0
  Multiplicity = 1
  Basis Set: AUG-CC-PVTZ
    Blend: AUG-CC-PVTZ
  Basis Set: (AUG-CC-PVTZ AUX)
    Blend: AUG-CC-PVTZ-JKFIT + DEF2-UNIVERSAL-JKFIT

    Orbital Energies [Eh]
    ---------------------

    Doubly Occupied:

       1A    -11.290842     2A    -11.255085     3A    -11.247679
       4A    -11.247118     5A    -11.240336     6A    -11.235603
       7A    -11.229281     8A    -11.227512     9A    -11.221683
      10A     -7.706125    11A     -5.537556    12A     -5.528309
      13A     -5.528277    14A     -2.266768    15A     -2.262369
      16A     -2.262332    17A     -2.252107    18A     -2.252106
      19A     -1.167278    20A     -1.070332    21A     -1.067011
      22A     -0.972163    23A     -0.941171    24A     -0.927376
      25A     -0.852239    26A     -0.794134    27A     -0.777356
      28A     -0.683073    29A     -0.664040    30A     -0.620367
      31A     -0.590497    32A     -0.586330    33A     -0.574119
      34A     -0.573490    35A     -0.560948    36A     -0.555206
      37A     -0.531363    38A     -0.513954    39A     -0.500870
      40A     -0.458689    41A     -0.443128    42A     -0.358756
      43A     -0.358092    44A     -0.341464    45A     -0.306440

  @DF-RHF Final Energy:  -641.98386146910218

   => Energetics <=

    Nuclear Repulsion Energy =            614.7365697773076363
    One-Electron Energy =               -2204.2789164523610452
    Two-Electron Energy =                 947.5584852059513423
    Total Energy =                       -641.9838614691021803
  Basis Set: (AUG-CC-PVTZ AUX)
    Blend: AUG-CC-PVTZ-RI + DEF2-QZVPP-RI
    Molecular point group: c1

    Geometry (in Angstrom), charge = 0, multiplicity = 1:

       Center              X                  Y                   Z               Mass
    ------------   -----------------  -----------------  -----------------  -----------------
         I            2.045484377450    -0.003574580895    -0.228459099985   126.904471900000
         C           -0.853496622550    -0.003579580895     0.760932900015    12.000000000000
         C           -2.802882622550    -1.228880580895    -0.041050099985    12.000000000000
         C           -2.729150622550     1.295026619105     0.077784100015    12.000000000000
         C           -1.508781622550     1.206175419105     0.492714900015    12.000000000000
         C           -1.508785622550    -1.213328580895     0.492709900015    12.000000000000
         C           -3.433902622550    -0.003572580895    -0.300568099985    12.000000000000
         C            0.522501377450    -0.003582580895     1.333167900015    12.000000000000
         C           -3.516537622550    -2.532742580895    -0.297587099985    12.000000000000
         C           -3.516537622550     2.525592419105    -0.297585099985    12.000000000000
         H           -0.993832622550     2.147261419105     0.685311900015     1.007825032230
         H           -0.993840622550    -2.154418580895     0.685301900015     1.007825032230
         H           -4.439165622550    -0.003568580895    -0.722243099985     1.007825032230
         H            0.728229377450    -0.896169580895     1.923234900015     1.007825032230
         H            0.728229377450     0.888999419105     1.923242900015     1.007825032230
         H           -4.205312622550    -2.446003580895    -1.141619099985     1.007825032230
         H           -4.100470622550    -2.836955580895     0.577259900015     1.007825032230
         H           -2.807725622550    -3.334393580895    -0.519048099985     1.007825032230
         H           -4.100807622550     2.829591419105     0.577110900015     1.007825032230
         H           -2.807708622550     3.327338419105    -0.518641099985     1.007825032230
         H           -4.205005622550     2.438961419105    -1.141878099985     1.007825032230

  Basis Set: AUG-CC-PVTZ
    Blend: AUG-CC-PVTZ
  Basis Set: (AUG-CC-PVTZ AUX)
    Blend: AUG-CC-PVTZ-JKFIT + DEF2-UNIVERSAL-JKFIT
	 Reference Energy          =    -641.9838614691021803 [Eh]
	 Singles Energy            =      -0.0000000000000000 [Eh]
	 Same-Spin Energy          =      -0.4672573593134545 [Eh]
	 Opposite-Spin Energy      =      -1.4538089655015938 [Eh]
	 Correlation Energy        =      -1.9210663248150484 [Eh]
	 Total Energy              =    -643.9049277939171816 [Eh]

	 ================> DF-SCS-MP2 Energies <==================
	-----------------------------------------------------------
	 SCS Same-Spin Scale       =       0.3333333333333333 [-]
	 SCS Opposite-Spin Scale   =       1.2000000000000000 [-]
	 SCS Same-Spin Energy      =      -0.1557524531044848 [Eh]
	 SCS Opposite-Spin Energy  =      -1.7445707586019126 [Eh]
	 SCS Correlation Energy    =      -1.9003232117063973 [Eh]
	 SCS Total Energy          =    -643.8841846808086302 [Eh]
	-----------------------------------------------------------

  Dipole Moment: [D]
     X:    -2.1473      Y:    -0.0075      Z:     0.8494     Total:     2.3092

*** Psi4 exiting successfully. Buy a developer a beer!
