                               Psi4 1.4a3.dev225

  ==> Input File <==

--------------------------------------------------------------------------
#psi4
#
memory 32 gb

molecule  {
0 1
  I        2.3447600     0.0000010    -0.2524410
  C       -0.5542210    -0.0000040     0.7369510
  C       -2.5036070    -1.2253050    -0.0650320
  C       -2.5036000     1.2253100    -0.0650260
  C       -1.2095060     1.2097510     0.4687330
  C       -1.2095100    -1.2097530     0.4687280
  C       -3.1346270     0.0000030    -0.3245500
  C        0.8217770    -0.0000070     1.3091860
  C       -3.2172620    -2.5291670    -0.3215690
  C       -3.2172620     2.5291680    -0.3215670
  H       -0.6945570     2.1508370     0.6613300
  H       -0.6945650    -2.1508430     0.6613200
  H       -4.1398900     0.0000070    -0.7462250
  H        1.0275050    -0.8925940     1.8992530
  H        1.0275050     0.8925750     1.8992610
  H       -3.9060370    -2.4424280    -1.1656010
  H       -3.8011950    -2.8333800     0.5532780
  H       -2.5084500    -3.3308180    -0.5430300
  H       -3.8015320     2.8331670     0.5531290
  H       -2.5084330     3.3309140    -0.5426230
  H       -3.8931305     2.4441224    -1.1504088
units angstrom
no_reorient  #important for SAPT in psi4, default
symmetry c1  #important for SAPT in psi4, default
}

set PROPERTIES_ORIGIN ["COM"]
properties('MP2/aug-cc-pvtz', properties = ['dipole'])
--------------------------------------------------------------------------

    Molecular point group: c1
  Charge       = 0
  Multiplicity = 1
  Basis Set: AUG-CC-PVTZ
    Blend: AUG-CC-PVTZ
  Basis Set: (AUG-CC-PVTZ AUX)
    Blend: AUG-CC-PVTZ-JKFIT + DEF2-UNIVERSAL-JKFIT

    Orbital Energies [Eh]
    ---------------------

    Doubly Occupied:

       1A    -11.290306     2A    -11.254059     3A    -11.249219
       4A    -11.249084     5A    -11.233179     6A    -11.233092
       7A    -11.231233     8A    -11.228280     9A    -11.225871
      10A     -7.706154    11A     -5.537600    12A     -5.528320
      13A     -5.528310    14A     -2.266813    15A     -2.262399
      16A     -2.262375    17A     -2.252117    18A     -2.252117
      19A     -1.165208    20A     -1.073181    21A     -1.061376
      22A     -0.970364    23A     -0.939046    24A     -0.933574
      25A     -0.849136    26A     -0.791193    27A     -0.783264
      28A     -0.682297    29A     -0.667183    30A     -0.617863
      31A     -0.589261    32A     -0.586242    33A     -0.573826
      34A     -0.573001    35A     -0.564291    36A     -0.556893
      37A     -0.526874    38A     -0.511315    39A     -0.489442
      40A     -0.485333    41A     -0.444565    42A     -0.359410
      43A     -0.357173    44A     -0.324839    45A     -0.318915

  @DF-RHF Final Energy:  -642.00794381460832

   => Energetics <=

    Nuclear Repulsion Energy =            614.7256673630738533
    One-Electron Energy =               -2204.2960347643024761
    Two-Electron Energy =                 947.5624235866202980
    Total Energy =                       -642.0079438146083248
  Basis Set: (AUG-CC-PVTZ AUX)
    Blend: AUG-CC-PVTZ-RI + DEF2-QZVPP-RI
    Molecular point group: c1

    Geometry (in Angstrom), charge = 0, multiplicity = 1:

       Center              X                  Y                   Z               Mass
    ------------   -----------------  -----------------  -----------------  -----------------
         I            2.049029236869    -0.000005709635    -0.222725683357   126.904471900000
         C           -0.849951763131    -0.000010709635     0.766666316643    12.000000000000
         C           -2.799337763131    -1.225311709635    -0.035316683357    12.000000000000
         C           -2.799330763131     1.225303290365    -0.035310683357    12.000000000000
         C           -1.505236763131     1.209744290365     0.498448316643    12.000000000000
         C           -1.505240763131    -1.209759709635     0.498443316643    12.000000000000
         C           -3.430357763131    -0.000003709635    -0.294834683357    12.000000000000
         C            0.526046236869    -0.000013709635     1.338901316643    12.000000000000
         C           -3.512992763131    -2.529173709635    -0.291853683357    12.000000000000
         C           -3.512992763131     2.529161290365    -0.291851683357    12.000000000000
         H           -0.990287763131     2.150830290365     0.691045316643     1.007825032230
         H           -0.990295763131    -2.150849709635     0.691035316643     1.007825032230
         H           -4.435620763131     0.000000290365    -0.716509683357     1.007825032230
         H            0.731774236869    -0.892600709635     1.928968316643     1.007825032230
         H            0.731774236869     0.892568290365     1.928976316643     1.007825032230
         H           -4.201767763131    -2.442434709635    -1.135885683357     1.007825032230
         H           -4.096925763131    -2.833386709635     0.582993316643     1.007825032230
         H           -2.804180763131    -3.330824709635    -0.513314683357     1.007825032230
         H           -4.097262763131     2.833160290365     0.582844316643     1.007825032230
         H           -2.804163763131     3.330907290365    -0.512907683357     1.007825032230
         H           -4.188861263131     2.444115690365    -1.120693483357     1.007825032230

  Basis Set: AUG-CC-PVTZ
    Blend: AUG-CC-PVTZ
  Basis Set: (AUG-CC-PVTZ AUX)
    Blend: AUG-CC-PVTZ-JKFIT + DEF2-UNIVERSAL-JKFIT
	 Reference Energy          =    -642.0079438146083248 [Eh]
	 Singles Energy            =      -0.0000000000000000 [Eh]
	 Same-Spin Energy          =      -0.4675621850156733 [Eh]
	 Opposite-Spin Energy      =      -1.4524370603003907 [Eh]
	 Correlation Energy        =      -1.9199992453160639 [Eh]
	 Total Energy              =    -643.9279430599243597 [Eh]

	 ================> DF-SCS-MP2 Energies <==================
	-----------------------------------------------------------
	 SCS Same-Spin Scale       =       0.3333333333333333 [-]
	 SCS Opposite-Spin Scale   =       1.2000000000000000 [-]
	 SCS Same-Spin Energy      =      -0.1558540616718911 [Eh]
	 SCS Opposite-Spin Energy  =      -1.7429244723604687 [Eh]
	 SCS Correlation Energy    =      -1.8987785340323597 [Eh]
	 SCS Total Energy          =    -643.9067223486406419 [Eh]
	-----------------------------------------------------------

  Dipole Moment: [D]
     X:    -2.1082      Y:     0.0044      Z:     0.8789     Total:     2.2841

*** Psi4 exiting successfully. Buy a developer a beer!
