                               Psi4 1.4a3.dev225

  ==> Input File <==

--------------------------------------------------------------------------
#psi4
#
memory 32 gb

molecule  {
0 1
  I        2.3447600     0.0000010    -0.2524410
  C       -0.5693378     0.0921539     0.7827553
  C       -2.5036070    -1.2253050    -0.0650320
  C       -2.5036000     1.2253100    -0.0650260
  C       -1.2095060     1.2097510     0.4687330
  C       -1.2095100    -1.2097530     0.4687280
  C       -3.1346270     0.0000030    -0.3245500
  C        0.8217770    -0.0000070     1.3091860
  C       -3.2172620    -2.5291670    -0.3215690
  C       -3.2172620     2.5291680    -0.3215670
  H       -0.6945570     2.1508370     0.6613300
  H       -0.6945650    -2.1508430     0.6613200
  H       -4.1398900     0.0000070    -0.7462250
  H        1.0275050    -0.8925940     1.8992530
  H        1.0275050     0.8925750     1.8992610
  H       -3.9060370    -2.4424280    -1.1656010
  H       -3.8011950    -2.8333800     0.5532780
  H       -2.5084500    -3.3308180    -0.5430300
  H       -3.8015320     2.8331670     0.5531290
  H       -2.5084330     3.3309140    -0.5426230
  H       -3.9057300     2.4425370    -1.1658600
units angstrom
no_reorient  #important for SAPT in psi4, default
symmetry c1  #important for SAPT in psi4, default
}

set PROPERTIES_ORIGIN ["COM"]
properties('MP2/aug-cc-pvtz', properties = ['dipole'])
--------------------------------------------------------------------------

    Molecular point group: c1
  Charge       = 0
  Multiplicity = 1
  Basis Set: AUG-CC-PVTZ
    Blend: AUG-CC-PVTZ
  Basis Set: (AUG-CC-PVTZ AUX)
    Blend: AUG-CC-PVTZ-JKFIT + DEF2-UNIVERSAL-JKFIT

    Orbital Energies [Eh]
    ---------------------

    Doubly Occupied:

       1A    -11.289824     2A    -11.252814     3A    -11.250225
       4A    -11.247777     5A    -11.238538     6A    -11.231866
       7A    -11.228905     8A    -11.227555     9A    -11.227049
      10A     -7.706979    11A     -5.538462    12A     -5.529128
      13A     -5.529101    14A     -2.267674    15A     -2.263239
      16A     -2.263205    17A     -2.252882    18A     -2.252881
      19A     -1.166054    20A     -1.075058    21A     -1.059664
      22A     -0.971996    23A     -0.940945    24A     -0.928566
      25A     -0.850179    26A     -0.796316    27A     -0.776967
      28A     -0.682481    29A     -0.665916    30A     -0.619385
      31A     -0.588960    32A     -0.585954    33A     -0.574678
      34A     -0.572071    35A     -0.560489    36A     -0.555522
      37A     -0.526679    38A     -0.512036    39A     -0.494420
      40A     -0.474030    41A     -0.445631    42A     -0.360102
      43A     -0.357178    44A     -0.333364    45A     -0.312491

  @DF-RHF Final Energy:  -641.99682228131883

   => Energetics <=

    Nuclear Repulsion Energy =            614.3754812847126914
    One-Electron Energy =               -2203.5741329510142350
    Two-Electron Energy =                 947.2018293849826023
    Total Energy =                       -641.9968222813188277
  Basis Set: (AUG-CC-PVTZ AUX)
    Blend: AUG-CC-PVTZ-RI + DEF2-QZVPP-RI
    Molecular point group: c1

    Geometry (in Angstrom), charge = 0, multiplicity = 1:

       Center              X                  Y                   Z               Mass
    ------------   -----------------  -----------------  -----------------  -----------------
         I            2.049818290325    -0.004494894307    -0.224896821638   126.904471900000
         C           -0.864279509675     0.087658005693     0.810299478362    12.000000000000
         C           -2.798548709675    -1.229800894307    -0.037487821638    12.000000000000
         C           -2.798541709675     1.220814105693    -0.037481821638    12.000000000000
         C           -1.504447709675     1.205255105693     0.496277178362    12.000000000000
         C           -1.504451709675    -1.214248894307     0.496272178362    12.000000000000
         C           -3.429568709675    -0.004492894307    -0.297005821638    12.000000000000
         C            0.526835290325    -0.004502894307     1.336730178362    12.000000000000
         C           -3.512203709675    -2.533662894307    -0.294024821638    12.000000000000
         C           -3.512203709675     2.524672105693    -0.294022821638    12.000000000000
         H           -0.989498709675     2.146341105693     0.688874178362     1.007825032230
         H           -0.989506709675    -2.155338894307     0.688864178362     1.007825032230
         H           -4.434831709675    -0.004488894307    -0.718680821638     1.007825032230
         H            0.732563290325    -0.897089894307     1.926797178362     1.007825032230
         H            0.732563290325     0.888079105693     1.926805178362     1.007825032230
         H           -4.200978709675    -2.446923894307    -1.138056821638     1.007825032230
         H           -4.096136709675    -2.837875894307     0.580822178362     1.007825032230
         H           -2.803391709675    -3.335313894307    -0.515485821638     1.007825032230
         H           -4.096473709675     2.828671105693     0.580673178362     1.007825032230
         H           -2.803374709675     3.326418105693    -0.515078821638     1.007825032230
         H           -4.200671709675     2.438041105693    -1.138315821638     1.007825032230

  Basis Set: AUG-CC-PVTZ
    Blend: AUG-CC-PVTZ
  Basis Set: (AUG-CC-PVTZ AUX)
    Blend: AUG-CC-PVTZ-JKFIT + DEF2-UNIVERSAL-JKFIT
	 Reference Energy          =    -641.9968222813188277 [Eh]
	 Singles Energy            =      -0.0000000000000000 [Eh]
	 Same-Spin Energy          =      -0.4673119982062647 [Eh]
	 Opposite-Spin Energy      =      -1.4530570338324136 [Eh]
	 Correlation Energy        =      -1.9203690320386784 [Eh]
	 Total Energy              =    -643.9171913133575345 [Eh]

	 ================> DF-SCS-MP2 Energies <==================
	-----------------------------------------------------------
	 SCS Same-Spin Scale       =       0.3333333333333333 [-]
	 SCS Opposite-Spin Scale   =       1.2000000000000000 [-]
	 SCS Same-Spin Energy      =      -0.1557706660687549 [Eh]
	 SCS Opposite-Spin Energy  =      -1.7436684405988963 [Eh]
	 SCS Correlation Energy    =      -1.8994391066676510 [Eh]
	 SCS Total Energy          =    -643.8962613879864421 [Eh]
	-----------------------------------------------------------

  Dipole Moment: [D]
     X:    -2.0800      Y:     0.0010      Z:     0.8483     Total:     2.2464

*** Psi4 exiting successfully. Buy a developer a beer!
