                               Psi4 1.4a3.dev225

  ==> Input File <==

--------------------------------------------------------------------------
#psi4
#
memory 32 gb

molecule  {
0 1
  I        2.3447600     0.0000010    -0.2524410
  C       -0.5542210    -0.0000040     0.7369510
  C       -2.5036070    -1.2253050    -0.0650320
  C       -2.5036000     1.2253100    -0.0650260
  C       -1.2095060     1.2097510     0.4687330
  C       -1.2095100    -1.2097530     0.4687280
  C       -3.1346270     0.0000030    -0.3245500
  C        0.8217770    -0.0000070     1.3091860
  C       -3.2172620    -2.5291670    -0.3215690
  C       -3.2172620     2.5291680    -0.3215670
  H       -0.6945570     2.1508370     0.6613300
  H       -0.6945650    -2.1508430     0.6613200
  H       -4.1398900     0.0000070    -0.7462250
  H        1.0275050    -0.8925940     1.8992530
  H        1.0275050     0.8925750     1.8992610
  H       -3.9060370    -2.4424280    -1.1656010
  H       -3.8011950    -2.8333800     0.5532780
  H       -2.5408825    -3.2941376    -0.5328968
  H       -3.8015320     2.8331670     0.5531290
  H       -2.5084330     3.3309140    -0.5426230
  H       -3.9057300     2.4425370    -1.1658600
units angstrom
no_reorient  #important for SAPT in psi4, default
symmetry c1  #important for SAPT in psi4, default
}

set PROPERTIES_ORIGIN ["COM"]
properties('MP2/aug-cc-pvtz', properties = ['dipole'])
--------------------------------------------------------------------------

    Molecular point group: c1
  Charge       = 0
  Multiplicity = 1
  Basis Set: AUG-CC-PVTZ
    Blend: AUG-CC-PVTZ
  Basis Set: (AUG-CC-PVTZ AUX)
    Blend: AUG-CC-PVTZ-JKFIT + DEF2-UNIVERSAL-JKFIT

    Orbital Energies [Eh]
    ---------------------

    Doubly Occupied:

       1A    -11.290311     2A    -11.254061     3A    -11.249069
       4A    -11.248853     5A    -11.233177     6A    -11.233090
       7A    -11.230923     8A    -11.228172     9A    -11.222194
      10A     -7.706156    11A     -5.537600    12A     -5.528322
      13A     -5.528312    14A     -2.266813    15A     -2.262400
      16A     -2.262376    17A     -2.252119    18A     -2.252118
      19A     -1.165169    20A     -1.073196    21A     -1.061866
      22A     -0.970842    23A     -0.940509    24A     -0.933881
      25A     -0.849077    26A     -0.792126    27A     -0.783044
      28A     -0.682297    29A     -0.667610    30A     -0.617774
      31A     -0.589483    32A     -0.587000    33A     -0.575268
      34A     -0.572927    35A     -0.564937    36A     -0.557904
      37A     -0.527866    38A     -0.511524    39A     -0.489042
      40A     -0.485540    41A     -0.444560    42A     -0.359401
      43A     -0.357180    44A     -0.324858    45A     -0.318780

  @DF-RHF Final Energy:  -642.00692020426447

   => Energetics <=

    Nuclear Repulsion Energy =            614.8533946358868434
    One-Electron Energy =               -2204.5411724840073475
    Two-Electron Energy =                 947.6808576438560294
    Total Energy =                       -642.0069202042644747
  Basis Set: (AUG-CC-PVTZ AUX)
    Blend: AUG-CC-PVTZ-RI + DEF2-QZVPP-RI
    Molecular point group: c1

    Geometry (in Angstrom), charge = 0, multiplicity = 1:

       Center              X                  Y                   Z               Mass
    ------------   -----------------  -----------------  -----------------  -----------------
         I            2.049213733295    -0.000149494101    -0.222703895473   126.904471900000
         C           -0.849767266705    -0.000154494101     0.766688104527    12.000000000000
         C           -2.799153266705    -1.225455494101    -0.035294895473    12.000000000000
         C           -2.799146266705     1.225159505899    -0.035288895473    12.000000000000
         C           -1.505052266705     1.209600505899     0.498470104527    12.000000000000
         C           -1.505056266705    -1.209903494101     0.498465104527    12.000000000000
         C           -3.430173266705    -0.000147494101    -0.294812895473    12.000000000000
         C            0.526230733295    -0.000157494101     1.338923104527    12.000000000000
         C           -3.512808266705    -2.529317494101    -0.291831895473    12.000000000000
         C           -3.512808266705     2.529017505899    -0.291829895473    12.000000000000
         H           -0.990103266705     2.150686505899     0.691067104527     1.007825032230
         H           -0.990111266705    -2.150993494101     0.691057104527     1.007825032230
         H           -4.435436266705    -0.000143494101    -0.716487895473     1.007825032230
         H            0.731958733295    -0.892744494101     1.928990104527     1.007825032230
         H            0.731958733295     0.892424505899     1.928998104527     1.007825032230
         H           -4.201583266705    -2.442578494101    -1.135863895473     1.007825032230
         H           -4.096741266705    -2.833530494101     0.583015104527     1.007825032230
         H           -2.836428766705    -3.294288094101    -0.503159695473     1.007825032230
         H           -4.097078266705     2.833016505899     0.582866104527     1.007825032230
         H           -2.803979266705     3.330763505899    -0.512885895473     1.007825032230
         H           -4.201276266705     2.442386505899    -1.136122895473     1.007825032230

  Basis Set: AUG-CC-PVTZ
    Blend: AUG-CC-PVTZ
  Basis Set: (AUG-CC-PVTZ AUX)
    Blend: AUG-CC-PVTZ-JKFIT + DEF2-UNIVERSAL-JKFIT
	 Reference Energy          =    -642.0069202042644747 [Eh]
	 Singles Energy            =      -0.0000000000000000 [Eh]
	 Same-Spin Energy          =      -0.4675591739213367 [Eh]
	 Opposite-Spin Energy      =      -1.4522664178970506 [Eh]
	 Correlation Energy        =      -1.9198255918183873 [Eh]
	 Total Energy              =    -643.9267457960828551 [Eh]

	 ================> DF-SCS-MP2 Energies <==================
	-----------------------------------------------------------
	 SCS Same-Spin Scale       =       0.3333333333333333 [-]
	 SCS Opposite-Spin Scale   =       1.2000000000000000 [-]
	 SCS Same-Spin Energy      =      -0.1558530579737789 [Eh]
	 SCS Opposite-Spin Energy  =      -1.7427197014764606 [Eh]
	 SCS Correlation Energy    =      -1.8985727594502395 [Eh]
	 SCS Total Energy          =    -643.9054929637146643 [Eh]
	-----------------------------------------------------------

  Dipole Moment: [D]
     X:    -2.0962      Y:    -0.0254      Z:     0.8805     Total:     2.2737

*** Psi4 exiting successfully. Buy a developer a beer!
