                               Psi4 1.4a3.dev225

  ==> Input File <==

--------------------------------------------------------------------------
#psi4
#
memory 32 gb

molecule  {
0 1
  I        2.3447600     0.0000010    -0.2524410
  C       -0.5542210    -0.0000040     0.7369510
  C       -2.5036070    -1.2253050    -0.0650320
  C       -2.5036000     1.2253100    -0.0650260
  C       -1.2095060     1.2097510     0.4687330
  C       -1.2095100    -1.2097530     0.4687280
  C       -3.1346270     0.0000030    -0.3245500
  C        0.8217770    -0.0000070     1.3091860
  C       -3.2172620    -2.5291670    -0.3215690
  C       -3.2172620     2.5291680    -0.3215670
  H       -0.6945570     2.1508370     0.6613300
  H       -0.6945650    -2.1508430     0.6613200
  H       -4.1398900     0.0000070    -0.7462250
  H        1.0065058    -0.9340107     1.8390228
  H        1.0275050     0.8925750     1.8992610
  H       -3.9060370    -2.4424280    -1.1656010
  H       -3.8011950    -2.8333800     0.5532780
  H       -2.5084500    -3.3308180    -0.5430300
  H       -3.8015320     2.8331670     0.5531290
  H       -2.5084330     3.3309140    -0.5426230
  H       -3.9057300     2.4425370    -1.1658600
units angstrom
no_reorient  #important for SAPT in psi4, default
symmetry c1  #important for SAPT in psi4, default
}

set PROPERTIES_ORIGIN ["COM"]
properties('MP2/aug-cc-pvtz', properties = ['dipole'])
--------------------------------------------------------------------------

    Molecular point group: c1
  Charge       = 0
  Multiplicity = 1
  Basis Set: AUG-CC-PVTZ
    Blend: AUG-CC-PVTZ
  Basis Set: (AUG-CC-PVTZ AUX)
    Blend: AUG-CC-PVTZ-JKFIT + DEF2-UNIVERSAL-JKFIT

    Orbital Energies [Eh]
    ---------------------

    Doubly Occupied:

       1A    -11.290966     2A    -11.253838     3A    -11.249469
       4A    -11.249342     5A    -11.233461     6A    -11.233099
       7A    -11.231293     8A    -11.228445     9A    -11.228343
      10A     -7.705761    11A     -5.537183    12A     -5.527948
      13A     -5.527925    14A     -2.266397    15A     -2.262006
      16A     -2.261968    17A     -2.251761    18A     -2.251760
      19A     -1.165465    20A     -1.073748    21A     -1.061289
      22A     -0.970106    23A     -0.938638    24A     -0.933223
      25A     -0.849014    26A     -0.791418    27A     -0.781794
      28A     -0.682241    29A     -0.668996    30A     -0.615773
      31A     -0.593730    32A     -0.586052    33A     -0.573592
      34A     -0.572347    35A     -0.564438    36A     -0.555802
      37A     -0.526458    38A     -0.510995    39A     -0.489134
      40A     -0.485683    41A     -0.443819    42A     -0.358880
      43A     -0.357156    44A     -0.325060    45A     -0.318709

  @DF-RHF Final Energy:  -642.00734571434657

   => Energetics <=

    Nuclear Repulsion Energy =            614.7577347640892640
    One-Electron Energy =               -2204.3611144747987964
    Two-Electron Energy =                 947.5960339963629622
    Total Energy =                       -642.0073457143465703
  Basis Set: (AUG-CC-PVTZ AUX)
    Blend: AUG-CC-PVTZ-RI + DEF2-QZVPP-RI
    Molecular point group: c1

    Geometry (in Angstrom), charge = 0, multiplicity = 1:

       Center              X                  Y                   Z               Mass
    ------------   -----------------  -----------------  -----------------  -----------------
         I            2.049166890983     0.000170470276    -0.222415616120   126.904471900000
         C           -0.849814109017     0.000165470276     0.766976383880    12.000000000000
         C           -2.799200109017    -1.225135529724    -0.035006616120    12.000000000000
         C           -2.799193109017     1.225479470276    -0.035000616120    12.000000000000
         C           -1.505099109017     1.209920470276     0.498758383880    12.000000000000
         C           -1.505103109017    -1.209583529724     0.498753383880    12.000000000000
         C           -3.430220109017     0.000172470276    -0.294524616120    12.000000000000
         C            0.526183890983     0.000162470276     1.339211383880    12.000000000000
         C           -3.512855109017    -2.528997529724    -0.291543616120    12.000000000000
         C           -3.512855109017     2.529337470276    -0.291541616120    12.000000000000
         H           -0.990150109017     2.151006470276     0.691355383880     1.007825032230
         H           -0.990158109017    -2.150673529724     0.691345383880     1.007825032230
         H           -4.435483109017     0.000176470276    -0.716199616120     1.007825032230
         H            0.710912690983    -0.933841229724     1.869048183880     1.007825032230
         H            0.731911890983     0.892744470276     1.929286383880     1.007825032230
         H           -4.201630109017    -2.442258529724    -1.135575616120     1.007825032230
         H           -4.096788109017    -2.833210529724     0.583303383880     1.007825032230
         H           -2.804043109017    -3.330648529724    -0.513004616120     1.007825032230
         H           -4.097125109017     2.833336470276     0.583154383880     1.007825032230
         H           -2.804026109017     3.331083470276    -0.512597616120     1.007825032230
         H           -4.201323109017     2.442706470276    -1.135834616120     1.007825032230

  Basis Set: AUG-CC-PVTZ
    Blend: AUG-CC-PVTZ
  Basis Set: (AUG-CC-PVTZ AUX)
    Blend: AUG-CC-PVTZ-JKFIT + DEF2-UNIVERSAL-JKFIT
	 Reference Energy          =    -642.0073457143465703 [Eh]
	 Singles Energy            =      -0.0000000000000000 [Eh]
	 Same-Spin Energy          =      -0.4676616995628579 [Eh]
	 Opposite-Spin Energy      =      -1.4526411028144761 [Eh]
	 Correlation Energy        =      -1.9203028023773339 [Eh]
	 Total Energy              =    -643.9276485167239343 [Eh]

	 ================> DF-SCS-MP2 Energies <==================
	-----------------------------------------------------------
	 SCS Same-Spin Scale       =       0.3333333333333333 [-]
	 SCS Opposite-Spin Scale   =       1.2000000000000000 [-]
	 SCS Same-Spin Energy      =      -0.1558872331876193 [Eh]
	 SCS Opposite-Spin Energy  =      -1.7431693233773713 [Eh]
	 SCS Correlation Energy    =      -1.8990565565649906 [Eh]
	 SCS Total Energy          =    -643.9064022709115989 [Eh]
	-----------------------------------------------------------

  Dipole Moment: [D]
     X:    -2.1221      Y:    -0.0083      Z:     0.8764     Total:     2.2959

*** Psi4 exiting successfully. Buy a developer a beer!
