                               Psi4 1.4a3.dev225

  ==> Input File <==

--------------------------------------------------------------------------
#psi4
#
memory 32 gb

molecule  {
0 1
  I        2.3447600     0.0000010    -0.2524410
  C       -0.5542210    -0.0000040     0.7369510
  C       -2.5036070    -1.2253050    -0.0650320
  C       -2.5036000     1.2253100    -0.0650260
  C       -1.2095060     1.2097510     0.4687330
  C       -1.1300570    -1.2561968     0.5019348
  C       -3.1346270     0.0000030    -0.3245500
  C        0.8217770    -0.0000070     1.3091860
  C       -3.2172620    -2.5291670    -0.3215690
  C       -3.2172620     2.5291680    -0.3215670
  H       -0.6945570     2.1508370     0.6613300
  H       -0.6945650    -2.1508430     0.6613200
  H       -4.1398900     0.0000070    -0.7462250
  H        1.0275050    -0.8925940     1.8992530
  H        1.0275050     0.8925750     1.8992610
  H       -3.9060370    -2.4424280    -1.1656010
  H       -3.8011950    -2.8333800     0.5532780
  H       -2.5084500    -3.3308180    -0.5430300
  H       -3.8015320     2.8331670     0.5531290
  H       -2.5084330     3.3309140    -0.5426230
  H       -3.9057300     2.4425370    -1.1658600
units angstrom
no_reorient  #important for SAPT in psi4, default
symmetry c1  #important for SAPT in psi4, default
}

set PROPERTIES_ORIGIN ["COM"]
properties('MP2/aug-cc-pvtz', properties = ['dipole'])
--------------------------------------------------------------------------

    Molecular point group: c1
  Charge       = 0
  Multiplicity = 1
  Basis Set: AUG-CC-PVTZ
    Blend: AUG-CC-PVTZ
  Basis Set: (AUG-CC-PVTZ AUX)
    Blend: AUG-CC-PVTZ-JKFIT + DEF2-UNIVERSAL-JKFIT

    Orbital Energies [Eh]
    ---------------------

    Doubly Occupied:

       1A    -11.287842     2A    -11.259400     3A    -11.255896
       4A    -11.252033     5A    -11.235013     6A    -11.232631
       7A    -11.231200     8A    -11.229343     9A    -11.228329
      10A     -7.705066    11A     -5.536472    12A     -5.527264
      13A     -5.527239    14A     -2.265680    15A     -2.261298
      16A     -2.261262    17A     -2.251078    18A     -2.251078
      19A     -1.159810    20A     -1.074548    21A     -1.056398
      22A     -0.967373    23A     -0.940175    24A     -0.934288
      25A     -0.847118    26A     -0.795573    27A     -0.776085
      28A     -0.693105    29A     -0.664430    30A     -0.618350
      31A     -0.587867    32A     -0.585309    33A     -0.581931
      34A     -0.573304    35A     -0.567133    36A     -0.556837
      37A     -0.524798    38A     -0.508815    39A     -0.494411
      40A     -0.477320    41A     -0.441026    42A     -0.358649
      43A     -0.356269    44A     -0.321848    45A     -0.317223

  @DF-RHF Final Energy:  -641.99440783611101

   => Energetics <=

    Nuclear Repulsion Energy =            613.5788592406385078
    One-Electron Energy =               -2201.9903002773039589
    Two-Electron Energy =                 946.4170332005545561
    Total Energy =                       -641.9944078361110087
  Basis Set: (AUG-CC-PVTZ AUX)
    Blend: AUG-CC-PVTZ-RI + DEF2-QZVPP-RI
    Molecular point group: c1

    Geometry (in Angstrom), charge = 0, multiplicity = 1:

       Center              X                  Y                   Z               Mass
    ------------   -----------------  -----------------  -----------------  -----------------
         I            2.045204952078     0.002266424038    -0.224282285829   126.904471900000
         C           -0.853776047922     0.002261424038     0.765109714171    12.000000000000
         C           -2.803162047922    -1.223039575962    -0.036873285829    12.000000000000
         C           -2.803155047922     1.227575424038    -0.036867285829    12.000000000000
         C           -1.509061047922     1.212016424038     0.496891714171    12.000000000000
         C           -1.429612047922    -1.253931375962     0.530093514171    12.000000000000
         C           -3.434182047922     0.002268424038    -0.296391285829    12.000000000000
         C            0.522221952078     0.002258424038     1.337344714171    12.000000000000
         C           -3.516817047922    -2.526901575962    -0.293410285829    12.000000000000
         C           -3.516817047922     2.531433424038    -0.293408285829    12.000000000000
         H           -0.994112047922     2.153102424038     0.689488714171     1.007825032230
         H           -0.994120047922    -2.148577575962     0.689478714171     1.007825032230
         H           -4.439445047922     0.002272424038    -0.718066285829     1.007825032230
         H            0.727949952078    -0.890328575962     1.927411714171     1.007825032230
         H            0.727949952078     0.894840424038     1.927419714171     1.007825032230
         H           -4.205592047922    -2.440162575962    -1.137442285829     1.007825032230
         H           -4.100750047922    -2.831114575962     0.581436714171     1.007825032230
         H           -2.808005047922    -3.328552575962    -0.514871285829     1.007825032230
         H           -4.101087047922     2.835432424038     0.581287714171     1.007825032230
         H           -2.807988047922     3.333179424038    -0.514464285829     1.007825032230
         H           -4.205285047922     2.444802424038    -1.137701285829     1.007825032230

  Basis Set: AUG-CC-PVTZ
    Blend: AUG-CC-PVTZ
  Basis Set: (AUG-CC-PVTZ AUX)
    Blend: AUG-CC-PVTZ-JKFIT + DEF2-UNIVERSAL-JKFIT
	 Reference Energy          =    -641.9944078361110087 [Eh]
	 Singles Energy            =      -0.0000000000000000 [Eh]
	 Same-Spin Energy          =      -0.4675342660092873 [Eh]
	 Opposite-Spin Energy      =      -1.4533585424966204 [Eh]
	 Correlation Energy        =      -1.9208928085059078 [Eh]
	 Total Energy              =    -643.9153006446168774 [Eh]

	 ================> DF-SCS-MP2 Energies <==================
	-----------------------------------------------------------
	 SCS Same-Spin Scale       =       0.3333333333333333 [-]
	 SCS Opposite-Spin Scale   =       1.2000000000000000 [-]
	 SCS Same-Spin Energy      =      -0.1558447553364291 [Eh]
	 SCS Opposite-Spin Energy  =      -1.7440302509959444 [Eh]
	 SCS Correlation Energy    =      -1.8998750063323735 [Eh]
	 SCS Total Energy          =    -643.8942828424434310 [Eh]
	-----------------------------------------------------------

  Dipole Moment: [D]
     X:    -2.1650      Y:    -0.0166      Z:     0.8895     Total:     2.3406

*** Psi4 exiting successfully. Buy a developer a beer!
