                               Psi4 1.4a3.dev225

  ==> Input File <==

--------------------------------------------------------------------------
#psi4
#
memory 32 gb

molecule  {
0 1
  I        2.3447600     0.0000010    -0.2524410
  C       -0.5542210    -0.0000040     0.7369510
  C       -2.5036070    -1.2253050    -0.0650320
  C       -2.5166708     1.2144640    -0.0851396
  C       -1.2095060     1.2097510     0.4687330
  C       -1.2095100    -1.2097530     0.4687280
  C       -3.1346270     0.0000030    -0.3245500
  C        0.8217770    -0.0000070     1.3091860
  C       -3.2172620    -2.5291670    -0.3215690
  C       -3.2172620     2.5291680    -0.3215670
  H       -0.6945570     2.1508370     0.6613300
  H       -0.6945650    -2.1508430     0.6613200
  H       -4.1398900     0.0000070    -0.7462250
  H        1.0275050    -0.8925940     1.8992530
  H        1.0275050     0.8925750     1.8992610
  H       -3.9060370    -2.4424280    -1.1656010
  H       -3.8011950    -2.8333800     0.5532780
  H       -2.5084500    -3.3308180    -0.5430300
  H       -3.8015320     2.8331670     0.5531290
  H       -2.5084330     3.3309140    -0.5426230
  H       -3.9057300     2.4425370    -1.1658600
units angstrom
no_reorient  #important for SAPT in psi4, default
symmetry c1  #important for SAPT in psi4, default
}

set PROPERTIES_ORIGIN ["COM"]
properties('MP2/aug-cc-pvtz', properties = ['dipole'])
--------------------------------------------------------------------------

    Molecular point group: c1
  Charge       = 0
  Multiplicity = 1
  Basis Set: AUG-CC-PVTZ
    Blend: AUG-CC-PVTZ
  Basis Set: (AUG-CC-PVTZ AUX)
    Blend: AUG-CC-PVTZ-JKFIT + DEF2-UNIVERSAL-JKFIT

    Orbital Energies [Eh]
    ---------------------

    Doubly Occupied:

       1A    -11.290254     2A    -11.253903     3A    -11.249559
       4A    -11.249254     5A    -11.235072     6A    -11.233030
       7A    -11.229508     8A    -11.228425     9A    -11.228334
      10A     -7.706168    11A     -5.537614    12A     -5.528334
      13A     -5.528321    14A     -2.266828    15A     -2.262414
      16A     -2.262388    17A     -2.252128    18A     -2.252128
      19A     -1.165164    20A     -1.074246    21A     -1.060064
      22A     -0.969691    23A     -0.940515    24A     -0.931647
      25A     -0.848637    26A     -0.792926    27A     -0.781393
      28A     -0.682260    29A     -0.667054    30A     -0.617486
      31A     -0.588606    32A     -0.586008    33A     -0.575498
      34A     -0.573394    35A     -0.562707    36A     -0.555679
      37A     -0.525526    38A     -0.510805    39A     -0.489204
      40A     -0.485445    41A     -0.444948    42A     -0.359607
      43A     -0.357117    44A     -0.323427    45A     -0.320275

  @DF-RHF Final Energy:  -642.00721628981830

   => Energetics <=

    Nuclear Repulsion Energy =            614.5993608733762130
    One-Electron Energy =               -2204.0471699911604446
    Two-Electron Energy =                 947.4405928279660429
    Total Energy =                       -642.0072162898183024
  Basis Set: (AUG-CC-PVTZ AUX)
    Blend: AUG-CC-PVTZ-RI + DEF2-QZVPP-RI
    Molecular point group: c1

    Geometry (in Angstrom), charge = 0, multiplicity = 1:

       Center              X                  Y                   Z               Mass
    ------------   -----------------  -----------------  -----------------  -----------------
         I            2.049718481612     0.000529879262    -0.221681190758   126.904471900000
         C           -0.849262518388     0.000524879262     0.767710809242    12.000000000000
         C           -2.798648518388    -1.224776120738    -0.034272190758    12.000000000000
         C           -2.811712318388     1.214992879262    -0.054379790758    12.000000000000
         C           -1.504547518388     1.210279879262     0.499492809242    12.000000000000
         C           -1.504551518388    -1.209224120738     0.499487809242    12.000000000000
         C           -3.429668518388     0.000531879262    -0.293790190758    12.000000000000
         C            0.526735481612     0.000521879262     1.339945809242    12.000000000000
         C           -3.512303518388    -2.528638120738    -0.290809190758    12.000000000000
         C           -3.512303518388     2.529696879262    -0.290807190758    12.000000000000
         H           -0.989598518388     2.151365879262     0.692089809242     1.007825032230
         H           -0.989606518388    -2.150314120738     0.692079809242     1.007825032230
         H           -4.434931518388     0.000535879262    -0.715465190758     1.007825032230
         H            0.732463481612    -0.892065120738     1.930012809242     1.007825032230
         H            0.732463481612     0.893103879262     1.930020809242     1.007825032230
         H           -4.201078518388    -2.441899120738    -1.134841190758     1.007825032230
         H           -4.096236518388    -2.832851120738     0.584037809242     1.007825032230
         H           -2.803491518388    -3.330289120738    -0.512270190758     1.007825032230
         H           -4.096573518388     2.833695879262     0.583888809242     1.007825032230
         H           -2.803474518388     3.331442879262    -0.511863190758     1.007825032230
         H           -4.200771518388     2.443065879262    -1.135100190758     1.007825032230

  Basis Set: AUG-CC-PVTZ
    Blend: AUG-CC-PVTZ
  Basis Set: (AUG-CC-PVTZ AUX)
    Blend: AUG-CC-PVTZ-JKFIT + DEF2-UNIVERSAL-JKFIT
	 Reference Energy          =    -642.0072162898183024 [Eh]
	 Singles Energy            =      -0.0000000000000000 [Eh]
	 Same-Spin Energy          =      -0.4675439943689728 [Eh]
	 Opposite-Spin Energy      =      -1.4525964938470959 [Eh]
	 Correlation Energy        =      -1.9201404882160686 [Eh]
	 Total Energy              =    -643.9273567780343228 [Eh]

	 ================> DF-SCS-MP2 Energies <==================
	-----------------------------------------------------------
	 SCS Same-Spin Scale       =       0.3333333333333333 [-]
	 SCS Opposite-Spin Scale   =       1.2000000000000000 [-]
	 SCS Same-Spin Energy      =      -0.1558479981229909 [Eh]
	 SCS Opposite-Spin Energy  =      -1.7431157926165151 [Eh]
	 SCS Correlation Energy    =      -1.8989637907395061 [Eh]
	 SCS Total Energy          =    -643.9061800805577604 [Eh]
	-----------------------------------------------------------

  Dipole Moment: [D]
     X:    -2.0909      Y:     0.0022      Z:     0.8921     Total:     2.2732

*** Psi4 exiting successfully. Buy a developer a beer!
