                               Psi4 1.4a3.dev225

  ==> Input File <==

--------------------------------------------------------------------------
#psi4
#
memory 32 gb

molecule  {
0 1
  I        2.3447600     0.0000010    -0.2524410
  C       -0.5542210    -0.0000040     0.7369510
  C       -2.5036070    -1.2253050    -0.0650320
  C       -2.5036000     1.2253100    -0.0650260
  C       -1.2095060     1.2097510     0.4687330
  C       -1.2288892    -1.1972117     0.4606243
  C       -3.1346270     0.0000030    -0.3245500
  C        0.8217770    -0.0000070     1.3091860
  C       -3.2172620    -2.5291670    -0.3215690
  C       -3.2172620     2.5291680    -0.3215670
  H       -0.6945570     2.1508370     0.6613300
  H       -0.6945650    -2.1508430     0.6613200
  H       -4.1398900     0.0000070    -0.7462250
  H        1.0275050    -0.8925940     1.8992530
  H        1.0275050     0.8925750     1.8992610
  H       -3.9060370    -2.4424280    -1.1656010
  H       -3.8011950    -2.8333800     0.5532780
  H       -2.5084500    -3.3308180    -0.5430300
  H       -3.8015320     2.8331670     0.5531290
  H       -2.5084330     3.3309140    -0.5426230
  H       -3.9057300     2.4425370    -1.1658600
units angstrom
no_reorient  #important for SAPT in psi4, default
symmetry c1  #important for SAPT in psi4, default
}

set PROPERTIES_ORIGIN ["COM"]
properties('MP2/aug-cc-pvtz', properties = ['dipole'])
--------------------------------------------------------------------------

    Molecular point group: c1
  Charge       = 0
  Multiplicity = 1
  Basis Set: AUG-CC-PVTZ
    Blend: AUG-CC-PVTZ
  Basis Set: (AUG-CC-PVTZ AUX)
    Blend: AUG-CC-PVTZ-JKFIT + DEF2-UNIVERSAL-JKFIT

    Orbital Energies [Eh]
    ---------------------

    Doubly Occupied:

       1A    -11.291004     2A    -11.253917     3A    -11.248631
       4A    -11.246581     5A    -11.233475     6A    -11.232893
       7A    -11.231352     8A    -11.228355     9A    -11.228095
      10A     -7.706456    11A     -5.537912    12A     -5.528615
      13A     -5.528607    14A     -2.267126    15A     -2.262704
      16A     -2.262683    17A     -2.252406    18A     -2.252406
      19A     -1.166988    20A     -1.073136    21A     -1.062314
      22A     -0.970723    23A     -0.938458    24A     -0.932764
      25A     -0.849761    26A     -0.790671    27A     -0.784484
      28A     -0.680131    29A     -0.667750    30A     -0.617783
      31A     -0.589031    32A     -0.586289    33A     -0.573586
      34A     -0.572439    35A     -0.562510    36A     -0.554692
      37A     -0.526292    38A     -0.512018    39A     -0.491391
      40A     -0.482454    41A     -0.445577    42A     -0.359662
      43A     -0.357439    44A     -0.326973    45A     -0.318320

  @DF-RHF Final Energy:  -642.00735302379996

   => Energetics <=

    Nuclear Repulsion Energy =            614.9240048462438608
    One-Electron Energy =               -2204.6890071954326231
    Two-Electron Energy =                 947.7576493253887975
    Total Energy =                       -642.0073530237999648
  Basis Set: (AUG-CC-PVTZ AUX)
    Blend: AUG-CC-PVTZ-RI + DEF2-QZVPP-RI
    Molecular point group: c1

    Geometry (in Angstrom), charge = 0, multiplicity = 1:

       Center              X                  Y                   Z               Mass
    ------------   -----------------  -----------------  -----------------  -----------------
         I            2.050026220266    -0.000611008480    -0.222267062051   126.904471900000
         C           -0.848954779734    -0.000616008480     0.767124937949    12.000000000000
         C           -2.798340779734    -1.225917008480    -0.034858062051    12.000000000000
         C           -2.798333779734     1.224697991520    -0.034852062051    12.000000000000
         C           -1.504239779734     1.209138991520     0.498906937949    12.000000000000
         C           -1.523622979734    -1.197823708480     0.490798237949    12.000000000000
         C           -3.429360779734    -0.000609008480    -0.294376062051    12.000000000000
         C            0.527043220266    -0.000619008480     1.339359937949    12.000000000000
         C           -3.511995779734    -2.529779008480    -0.291395062051    12.000000000000
         C           -3.511995779734     2.528555991520    -0.291393062051    12.000000000000
         H           -0.989290779734     2.150224991520     0.691503937949     1.007825032230
         H           -0.989298779734    -2.151455008480     0.691493937949     1.007825032230
         H           -4.434623779734    -0.000605008480    -0.716051062051     1.007825032230
         H            0.732771220266    -0.893206008480     1.929426937949     1.007825032230
         H            0.732771220266     0.891962991520     1.929434937949     1.007825032230
         H           -4.200770779734    -2.443040008480    -1.135427062051     1.007825032230
         H           -4.095928779734    -2.833992008480     0.583451937949     1.007825032230
         H           -2.803183779734    -3.331430008480    -0.512856062051     1.007825032230
         H           -4.096265779734     2.832554991520     0.583302937949     1.007825032230
         H           -2.803166779734     3.330301991520    -0.512449062051     1.007825032230
         H           -4.200463779734     2.441924991520    -1.135686062051     1.007825032230

  Basis Set: AUG-CC-PVTZ
    Blend: AUG-CC-PVTZ
  Basis Set: (AUG-CC-PVTZ AUX)
    Blend: AUG-CC-PVTZ-JKFIT + DEF2-UNIVERSAL-JKFIT
	 Reference Energy          =    -642.0073530237999648 [Eh]
	 Singles Energy            =      -0.0000000000000000 [Eh]
	 Same-Spin Energy          =      -0.4676166508557268 [Eh]
	 Opposite-Spin Energy      =      -1.4525825946561881 [Eh]
	 Correlation Energy        =      -1.9201992455119150 [Eh]
	 Total Energy              =    -643.9275522693118319 [Eh]

	 ================> DF-SCS-MP2 Energies <==================
	-----------------------------------------------------------
	 SCS Same-Spin Scale       =       0.3333333333333333 [-]
	 SCS Opposite-Spin Scale   =       1.2000000000000000 [-]
	 SCS Same-Spin Energy      =      -0.1558722169519089 [Eh]
	 SCS Opposite-Spin Energy  =      -1.7430991135874256 [Eh]
	 SCS Correlation Energy    =      -1.8989713305393345 [Eh]
	 SCS Total Energy          =    -643.9063243543392900 [Eh]
	-----------------------------------------------------------

  Dipole Moment: [D]
     X:    -2.0865      Y:     0.0102      Z:     0.8832     Total:     2.2658

*** Psi4 exiting successfully. Buy a developer a beer!
