                               Psi4 1.4a3.dev225

  ==> Input File <==

--------------------------------------------------------------------------
#psi4
#
memory 32 gb

molecule  {
0 1
  I        2.3447600     0.0000010    -0.2524410
  C       -0.5542210    -0.0000040     0.7369510
  C       -2.5036070    -1.2253050    -0.0650320
  C       -2.5036000     1.2253100    -0.0650260
  C       -1.2095060     1.2097510     0.4687330
  C       -1.2095100    -1.2097530     0.4687280
  C       -3.1346270     0.0000030    -0.3245500
  C        0.8217770    -0.0000070     1.3091860
  C       -3.2172620    -2.5291670    -0.3215690
  C       -3.2172620     2.5291680    -0.3215670
  H       -0.6945570     2.1508370     0.6613300
  H       -0.6945650    -2.1508430     0.6613200
  H       -4.1398900     0.0000070    -0.7462250
  H        1.0275050    -0.8925940     1.8992530
  H        1.0275050     0.8925750     1.8992610
  H       -3.9060370    -2.4424280    -1.1656010
  H       -3.6945341    -2.7778126     0.3934790
  H       -2.5084500    -3.3308180    -0.5430300
  H       -3.8015320     2.8331670     0.5531290
  H       -2.5084330     3.3309140    -0.5426230
  H       -3.9057300     2.4425370    -1.1658600
units angstrom
no_reorient  #important for SAPT in psi4, default
symmetry c1  #important for SAPT in psi4, default
}

set PROPERTIES_ORIGIN ["COM"]
properties('MP2/aug-cc-pvtz', properties = ['dipole'])
--------------------------------------------------------------------------

    Molecular point group: c1
  Charge       = 0
  Multiplicity = 1
  Basis Set: AUG-CC-PVTZ
    Blend: AUG-CC-PVTZ
  Basis Set: (AUG-CC-PVTZ AUX)
    Blend: AUG-CC-PVTZ-JKFIT + DEF2-UNIVERSAL-JKFIT

    Orbital Energies [Eh]
    ---------------------

    Doubly Occupied:

       1A    -11.290134     2A    -11.253797     3A    -11.248926
       4A    -11.248203     5A    -11.232866     6A    -11.232742
       7A    -11.230794     8A    -11.228083     9A    -11.203724
      10A     -7.705991    11A     -5.537436    12A     -5.528158
      13A     -5.528147    14A     -2.266649    15A     -2.262236
      16A     -2.262212    17A     -2.251954    18A     -2.251954
      19A     -1.165276    20A     -1.074804    21A     -1.064881
      22A     -0.976926    23A     -0.948450    24A     -0.935058
      25A     -0.849069    26A     -0.795577    27A     -0.783553
      28A     -0.683147    29A     -0.666535    30A     -0.624196
      31A     -0.610323    32A     -0.588275    33A     -0.579995
      34A     -0.572533    35A     -0.563613    36A     -0.554821
      37A     -0.525186    38A     -0.513158    39A     -0.488893
      40A     -0.485075    41A     -0.445684    42A     -0.359295
      43A     -0.357038    44A     -0.325524    45A     -0.318840

  @DF-RHF Final Energy:  -641.97405055090542

   => Energetics <=

    Nuclear Repulsion Energy =            615.6644888062445489
    One-Electron Energy =               -2206.0376124763261032
    Two-Electron Energy =                 948.3990731191760233
    Total Energy =                       -641.9740505509054174
  Basis Set: (AUG-CC-PVTZ AUX)
    Blend: AUG-CC-PVTZ-RI + DEF2-QZVPP-RI
    Molecular point group: c1

    Geometry (in Angstrom), charge = 0, multiplicity = 1:

       Center              X                  Y                   Z               Mass
    ------------   -----------------  -----------------  -----------------  -----------------
         I            2.048643866640    -0.000226874275    -0.222007682034   126.904471900000
         C           -0.850337133360    -0.000231874275     0.767384317966    12.000000000000
         C           -2.799723133360    -1.225532874275    -0.034598682034    12.000000000000
         C           -2.799716133360     1.225082125725    -0.034592682034    12.000000000000
         C           -1.505622133360     1.209523125725     0.499166317966    12.000000000000
         C           -1.505626133360    -1.209980874275     0.499161317966    12.000000000000
         C           -3.430743133360    -0.000224874275    -0.294116682034    12.000000000000
         C            0.525660866640    -0.000234874275     1.339619317966    12.000000000000
         C           -3.513378133360    -2.529394874275    -0.291135682034    12.000000000000
         C           -3.513378133360     2.528940125725    -0.291133682034    12.000000000000
         H           -0.990673133360     2.150609125725     0.691763317966     1.007825032230
         H           -0.990681133360    -2.151070874275     0.691753317966     1.007825032230
         H           -4.436006133360    -0.000220874275    -0.715791682034     1.007825032230
         H            0.731388866640    -0.892821874275     1.929686317966     1.007825032230
         H            0.731388866640     0.892347125725     1.929694317966     1.007825032230
         H           -4.202153133360    -2.442655874275    -1.135167682034     1.007825032230
         H           -3.990650233360    -2.778040474275     0.423912317966     1.007825032230
         H           -2.804566133360    -3.331045874275    -0.512596682034     1.007825032230
         H           -4.097648133360     2.832939125725     0.583562317966     1.007825032230
         H           -2.804549133360     3.330686125725    -0.512189682034     1.007825032230
         H           -4.201846133360     2.442309125725    -1.135426682034     1.007825032230

  Basis Set: AUG-CC-PVTZ
    Blend: AUG-CC-PVTZ
  Basis Set: (AUG-CC-PVTZ AUX)
    Blend: AUG-CC-PVTZ-JKFIT + DEF2-UNIVERSAL-JKFIT
	 Reference Energy          =    -641.9740505509054174 [Eh]
	 Singles Energy            =      -0.0000000000000000 [Eh]
	 Same-Spin Energy          =      -0.4676882879086230 [Eh]
	 Opposite-Spin Energy      =      -1.4519643131313664 [Eh]
	 Correlation Energy        =      -1.9196526010399895 [Eh]
	 Total Energy              =    -643.8937031519453740 [Eh]

	 ================> DF-SCS-MP2 Energies <==================
	-----------------------------------------------------------
	 SCS Same-Spin Scale       =       0.3333333333333333 [-]
	 SCS Opposite-Spin Scale   =       1.2000000000000000 [-]
	 SCS Same-Spin Energy      =      -0.1558960959695410 [Eh]
	 SCS Opposite-Spin Energy  =      -1.7423571757576397 [Eh]
	 SCS Correlation Energy    =      -1.8982532717271807 [Eh]
	 SCS Total Energy          =    -643.8723038226326025 [Eh]
	-----------------------------------------------------------

  Dipole Moment: [D]
     X:    -2.1441      Y:    -0.0453      Z:     0.9133     Total:     2.3310

*** Psi4 exiting successfully. Buy a developer a beer!
