                               Psi4 1.4a3.dev225

  ==> Input File <==

--------------------------------------------------------------------------
#psi4
#
memory 32 gb

molecule  {
0 1
  I        2.3447600     0.0000010    -0.2524410
  C       -0.5743580     0.1380925     0.8066336
  C       -2.5036070    -1.2253050    -0.0650320
  C       -2.5036000     1.2253100    -0.0650260
  C       -1.2095060     1.2097510     0.4687330
  C       -1.2095100    -1.2097530     0.4687280
  C       -3.1346270     0.0000030    -0.3245500
  C        0.8217770    -0.0000070     1.3091860
  C       -3.2172620    -2.5291670    -0.3215690
  C       -3.2172620     2.5291680    -0.3215670
  H       -0.6945570     2.1508370     0.6613300
  H       -0.6945650    -2.1508430     0.6613200
  H       -4.1398900     0.0000070    -0.7462250
  H        1.0275050    -0.8925940     1.8992530
  H        1.0275050     0.8925750     1.8992610
  H       -3.9060370    -2.4424280    -1.1656010
  H       -3.8011950    -2.8333800     0.5532780
  H       -2.5084500    -3.3308180    -0.5430300
  H       -3.8015320     2.8331670     0.5531290
  H       -2.5084330     3.3309140    -0.5426230
  H       -3.9057300     2.4425370    -1.1658600
units angstrom
no_reorient  #important for SAPT in psi4, default
symmetry c1  #important for SAPT in psi4, default
}

set PROPERTIES_ORIGIN ["COM"]
properties('MP2/aug-cc-pvtz', properties = ['dipole'])
--------------------------------------------------------------------------

    Molecular point group: c1
  Charge       = 0
  Multiplicity = 1
  Basis Set: AUG-CC-PVTZ
    Blend: AUG-CC-PVTZ
  Basis Set: (AUG-CC-PVTZ AUX)
    Blend: AUG-CC-PVTZ-JKFIT + DEF2-UNIVERSAL-JKFIT

    Orbital Energies [Eh]
    ---------------------

    Doubly Occupied:

       1A    -11.289914     2A    -11.251827     3A    -11.250534
       4A    -11.246911     5A    -11.240513     6A    -11.232347
       7A    -11.229113     8A    -11.227120     9A    -11.223840
      10A     -7.707536    11A     -5.539044    12A     -5.529677
      13A     -5.529635    14A     -2.268256    15A     -2.263811
      16A     -2.263766    17A     -2.253402    18A     -2.253401
      19A     -1.167067    20A     -1.077196    21A     -1.058262
      22A     -0.974348    23A     -0.942094    24A     -0.925090
      25A     -0.850818    26A     -0.800015    27A     -0.772785
      28A     -0.682644    29A     -0.664562    30A     -0.622361
      31A     -0.589364    32A     -0.585866    33A     -0.574927
      34A     -0.571697    35A     -0.557687    36A     -0.554897
      37A     -0.527502    38A     -0.512802    39A     -0.496481
      40A     -0.464955    41A     -0.445887    42A     -0.360930
      43A     -0.357112    44A     -0.338935    45A     -0.308641

  @DF-RHF Final Energy:  -641.98298435226445

   => Energetics <=

    Nuclear Repulsion Energy =            614.2347258866333277
    One-Electron Energy =               -2203.2642750488989805
    Two-Electron Energy =                 947.0465648100010867
    Total Energy =                       -641.9829843522644524
  Basis Set: (AUG-CC-PVTZ AUX)
    Blend: AUG-CC-PVTZ-RI + DEF2-QZVPP-RI
    Molecular point group: c1

    Geometry (in Angstrom), charge = 0, multiplicity = 1:

       Center              X                  Y                   Z               Mass
    ------------   -----------------  -----------------  -----------------  -----------------
         I            2.050063187540    -0.006735887736    -0.226061661520   126.904471900000
         C           -0.869054812460     0.131355612264     0.833012938480    12.000000000000
         C           -2.798303812460    -1.232041887736    -0.038652661520    12.000000000000
         C           -2.798296812460     1.218573112264    -0.038646661520    12.000000000000
         C           -1.504202812460     1.203014112264     0.495112338480    12.000000000000
         C           -1.504206812460    -1.216489887736     0.495107338480    12.000000000000
         C           -3.429323812460    -0.006733887736    -0.298170661520    12.000000000000
         C            0.527080187540    -0.006743887736     1.335565338480    12.000000000000
         C           -3.511958812460    -2.535903887736    -0.295189661520    12.000000000000
         C           -3.511958812460     2.522431112264    -0.295187661520    12.000000000000
         H           -0.989253812460     2.144100112264     0.687709338480     1.007825032230
         H           -0.989261812460    -2.157579887736     0.687699338480     1.007825032230
         H           -4.434586812460    -0.006729887736    -0.719845661520     1.007825032230
         H            0.732808187540    -0.899330887736     1.925632338480     1.007825032230
         H            0.732808187540     0.885838112264     1.925640338480     1.007825032230
         H           -4.200733812460    -2.449164887736    -1.139221661520     1.007825032230
         H           -4.095891812460    -2.840116887736     0.579657338480     1.007825032230
         H           -2.803146812460    -3.337554887736    -0.516650661520     1.007825032230
         H           -4.096228812460     2.826430112264     0.579508338480     1.007825032230
         H           -2.803129812460     3.324177112264    -0.516243661520     1.007825032230
         H           -4.200426812460     2.435800112264    -1.139480661520     1.007825032230

  Basis Set: AUG-CC-PVTZ
    Blend: AUG-CC-PVTZ
  Basis Set: (AUG-CC-PVTZ AUX)
    Blend: AUG-CC-PVTZ-JKFIT + DEF2-UNIVERSAL-JKFIT
	 Reference Energy          =    -641.9829843522644524 [Eh]
	 Singles Energy            =      -0.0000000000000000 [Eh]
	 Same-Spin Energy          =      -0.4671193762992384 [Eh]
	 Opposite-Spin Energy      =      -1.4537434318204832 [Eh]
	 Correlation Energy        =      -1.9208628081197214 [Eh]
	 Total Energy              =    -643.9038471603842027 [Eh]

	 ================> DF-SCS-MP2 Energies <==================
	-----------------------------------------------------------
	 SCS Same-Spin Scale       =       0.3333333333333333 [-]
	 SCS Opposite-Spin Scale   =       1.2000000000000000 [-]
	 SCS Same-Spin Energy      =      -0.1557064587664128 [Eh]
	 SCS Opposite-Spin Energy  =      -1.7444921181845798 [Eh]
	 SCS Correlation Energy    =      -1.9001985769509926 [Eh]
	 SCS Total Energy          =    -643.8831829292154225 [Eh]
	-----------------------------------------------------------

  Dipole Moment: [D]
     X:    -2.0587      Y:     0.0060      Z:     0.8293     Total:     2.2195

*** Psi4 exiting successfully. Buy a developer a beer!
