                               Psi4 1.4a3.dev225

  ==> Input File <==

--------------------------------------------------------------------------
#psi4
#
memory 32 gb

molecule  {
0 1
  I        2.1731825     0.0000018    -0.4030813
  C       -0.5542210    -0.0000040     0.7369510
  C       -2.5036070    -1.2253050    -0.0650320
  C       -2.5036000     1.2253100    -0.0650260
  C       -1.2095060     1.2097510     0.4687330
  C       -1.2095100    -1.2097530     0.4687280
  C       -3.1346270     0.0000030    -0.3245500
  C        0.8217770    -0.0000070     1.3091860
  C       -3.2172620    -2.5291670    -0.3215690
  C       -3.2172620     2.5291680    -0.3215670
  H       -0.6945570     2.1508370     0.6613300
  H       -0.6945650    -2.1508430     0.6613200
  H       -4.1398900     0.0000070    -0.7462250
  H        1.0275050    -0.8925940     1.8992530
  H        1.0275050     0.8925750     1.8992610
  H       -3.9060370    -2.4424280    -1.1656010
  H       -3.8011950    -2.8333800     0.5532780
  H       -2.5084500    -3.3308180    -0.5430300
  H       -3.8015320     2.8331670     0.5531290
  H       -2.5084330     3.3309140    -0.5426230
  H       -3.9057300     2.4425370    -1.1658600
units angstrom
no_reorient  #important for SAPT in psi4, default
symmetry c1  #important for SAPT in psi4, default
}

set PROPERTIES_ORIGIN ["COM"]
properties('MP2/aug-cc-pvtz', properties = ['dipole'])
--------------------------------------------------------------------------

    Molecular point group: c1
  Charge       = 0
  Multiplicity = 1
  Basis Set: AUG-CC-PVTZ
    Blend: AUG-CC-PVTZ
  Basis Set: (AUG-CC-PVTZ AUX)
    Blend: AUG-CC-PVTZ-JKFIT + DEF2-UNIVERSAL-JKFIT

    Orbital Energies [Eh]
    ---------------------

    Doubly Occupied:

       1A    -11.291164     2A    -11.253306     3A    -11.248212
       4A    -11.248187     5A    -11.231296     6A    -11.231255
       7A    -11.229175     8A    -11.227426     9A    -11.227425
      10A     -7.706738    11A     -5.538260    12A     -5.528894
      13A     -5.528812    14A     -2.267495    15A     -2.263066
      16A     -2.262990    17A     -2.252616    18A     -2.252612
      19A     -1.164400    20A     -1.073781    21A     -1.059973
      22A     -0.968891    23A     -0.937124    24A     -0.931973
      25A     -0.848388    26A     -0.789938    27A     -0.784055
      28A     -0.680971    29A     -0.666314    30A     -0.617804
      31A     -0.588403    32A     -0.585096    33A     -0.572584
      34A     -0.572269    35A     -0.562961    36A     -0.554674
      37A     -0.524947    38A     -0.512010    39A     -0.487756
      40A     -0.484294    41A     -0.444544    42A     -0.362111
      43A     -0.358942    44A     -0.323456    45A     -0.314098

  @DF-RHF Final Energy:  -642.00535892897005

   => Energetics <=

    Nuclear Repulsion Energy =            619.5367214684007422
    One-Electron Energy =               -2213.9627888685649850
    Two-Electron Energy =                 952.4207084711943025
    Total Energy =                       -642.0053589289700540
  Basis Set: (AUG-CC-PVTZ AUX)
    Blend: AUG-CC-PVTZ-RI + DEF2-QZVPP-RI
    Molecular point group: c1

    Geometry (in Angstrom), charge = 0, multiplicity = 1:

       Center              X                  Y                   Z               Mass
    ------------   -----------------  -----------------  -----------------  -----------------
         I            1.966018758497     0.000001173047    -0.295588605169   126.904471900000
         C           -0.761384741503    -0.000004626953     0.844443694831    12.000000000000
         C           -2.710770741503    -1.225305626953     0.042460694831    12.000000000000
         C           -2.710763741503     1.225309373047     0.042466694831    12.000000000000
         C           -1.416669741503     1.209750373047     0.576225694831    12.000000000000
         C           -1.416673741503    -1.209753626953     0.576220694831    12.000000000000
         C           -3.341790741503     0.000002373047    -0.217057305169    12.000000000000
         C            0.614613258497    -0.000007626953     1.416678694831    12.000000000000
         C           -3.424425741503    -2.529167626953    -0.214076305169    12.000000000000
         C           -3.424425741503     2.529167373047    -0.214074305169    12.000000000000
         H           -0.901720741503     2.150836373047     0.768822694831     1.007825032230
         H           -0.901728741503    -2.150843626953     0.768812694831     1.007825032230
         H           -4.347053741503     0.000006373047    -0.638732305169     1.007825032230
         H            0.820341258497    -0.892594626953     2.006745694831     1.007825032230
         H            0.820341258497     0.892574373047     2.006753694831     1.007825032230
         H           -4.113200741503    -2.442428626953    -1.058108305169     1.007825032230
         H           -4.008358741503    -2.833380626953     0.660770694831     1.007825032230
         H           -2.715613741503    -3.330818626953    -0.435537305169     1.007825032230
         H           -4.008695741503     2.833166373047     0.660621694831     1.007825032230
         H           -2.715596741503     3.330913373047    -0.435130305169     1.007825032230
         H           -4.112893741503     2.442536373047    -1.058367305169     1.007825032230

  Basis Set: AUG-CC-PVTZ
    Blend: AUG-CC-PVTZ
  Basis Set: (AUG-CC-PVTZ AUX)
    Blend: AUG-CC-PVTZ-JKFIT + DEF2-UNIVERSAL-JKFIT
	 Reference Energy          =    -642.0053589289700540 [Eh]
	 Singles Energy            =      -0.0000000000000000 [Eh]
	 Same-Spin Energy          =      -0.4681367829334577 [Eh]
	 Opposite-Spin Energy      =      -1.4534576169012698 [Eh]
	 Correlation Energy        =      -1.9215943998347276 [Eh]
	 Total Energy              =    -643.9269533288047569 [Eh]

	 ================> DF-SCS-MP2 Energies <==================
	-----------------------------------------------------------
	 SCS Same-Spin Scale       =       0.3333333333333333 [-]
	 SCS Opposite-Spin Scale   =       1.2000000000000000 [-]
	 SCS Same-Spin Energy      =      -0.1560455943111526 [Eh]
	 SCS Opposite-Spin Energy  =      -1.7441491402815237 [Eh]
	 SCS Correlation Energy    =      -1.9001947345926762 [Eh]
	 SCS Total Energy          =    -643.9055536635627277 [Eh]
	-----------------------------------------------------------

  Dipole Moment: [D]
     X:    -1.8825      Y:    -0.0000      Z:     0.9604     Total:     2.1134

*** Psi4 exiting successfully. Buy a developer a beer!
