                               Psi4 1.4a3.dev225

  ==> Input File <==

--------------------------------------------------------------------------
#psi4
#
memory 32 gb

molecule  {
0 1
  I        2.3447600     0.0000010    -0.2524410
  C       -0.5542210    -0.0000040     0.7369510
  C       -2.5036070    -1.2253050    -0.0650320
  C       -2.5036000     1.2253100    -0.0650260
  C       -1.2102936     1.1609242     0.4669824
  C       -1.2095100    -1.2097530     0.4687280
  C       -3.1346270     0.0000030    -0.3245500
  C        0.8217770    -0.0000070     1.3091860
  C       -3.2172620    -2.5291670    -0.3215690
  C       -3.2172620     2.5291680    -0.3215670
  H       -0.6945570     2.1508370     0.6613300
  H       -0.6945650    -2.1508430     0.6613200
  H       -4.1398900     0.0000070    -0.7462250
  H        1.0275050    -0.8925940     1.8992530
  H        1.0275050     0.8925750     1.8992610
  H       -3.9060370    -2.4424280    -1.1656010
  H       -3.8011950    -2.8333800     0.5532780
  H       -2.5084500    -3.3308180    -0.5430300
  H       -3.8015320     2.8331670     0.5531290
  H       -2.5084330     3.3309140    -0.5426230
  H       -3.9057300     2.4425370    -1.1658600
units angstrom
no_reorient  #important for SAPT in psi4, default
symmetry c1  #important for SAPT in psi4, default
}

set PROPERTIES_ORIGIN ["COM"]
properties('MP2/aug-cc-pvtz', properties = ['dipole'])
--------------------------------------------------------------------------

    Molecular point group: c1
  Charge       = 0
  Multiplicity = 1
  Basis Set: AUG-CC-PVTZ
    Blend: AUG-CC-PVTZ
  Basis Set: (AUG-CC-PVTZ AUX)
    Blend: AUG-CC-PVTZ-JKFIT + DEF2-UNIVERSAL-JKFIT

    Orbital Energies [Eh]
    ---------------------

    Doubly Occupied:

       1A    -11.290643     2A    -11.249211     3A    -11.249160
       4A    -11.248069     5A    -11.232911     6A    -11.232850
       7A    -11.231345     8A    -11.229883     9A    -11.227841
      10A     -7.706284    11A     -5.537733    12A     -5.528446
      13A     -5.528440    14A     -2.266946    15A     -2.262527
      16A     -2.262509    17A     -2.252241    18A     -2.252241
      19A     -1.169314    20A     -1.075365    21A     -1.060229
      22A     -0.972416    23A     -0.938660    24A     -0.932814
      25A     -0.848982    26A     -0.793217    27A     -0.783725
      28A     -0.678227    29A     -0.668280    30A     -0.617620
      31A     -0.589252    32A     -0.586582    33A     -0.574169
      34A     -0.573197    35A     -0.559085    36A     -0.553700
      37A     -0.527929    38A     -0.513489    39A     -0.492638
      40A     -0.480581    41A     -0.445174    42A     -0.359687
      43A     -0.357210    44A     -0.325438    45A     -0.320963

  @DF-RHF Final Energy:  -642.00528324108643

   => Energetics <=

    Nuclear Repulsion Energy =            615.4231046501637366
    One-Electron Energy =               -2205.6823295590629641
    Two-Electron Energy =                 948.2539416678129101
    Total Energy =                       -642.0052832410864312
  Basis Set: (AUG-CC-PVTZ AUX)
    Blend: AUG-CC-PVTZ-RI + DEF2-QZVPP-RI
    Molecular point group: c1

    Geometry (in Angstrom), charge = 0, multiplicity = 1:

       Center              X                  Y                   Z               Mass
    ------------   -----------------  -----------------  -----------------  -----------------
         I            2.049119278099     0.002382672408    -0.222576981277   126.904471900000
         C           -0.849861721901     0.002377672408     0.766815018723    12.000000000000
         C           -2.799247721901    -1.222923327592    -0.035167981277    12.000000000000
         C           -2.799240721901     1.227691672408    -0.035161981277    12.000000000000
         C           -1.505934321901     1.163305872408     0.496846418723    12.000000000000
         C           -1.505150721901    -1.207371327592     0.498592018723    12.000000000000
         C           -3.430267721901     0.002384672408    -0.294685981277    12.000000000000
         C            0.526136278099     0.002374672408     1.339050018723    12.000000000000
         C           -3.512902721901    -2.526785327592    -0.291704981277    12.000000000000
         C           -3.512902721901     2.531549672408    -0.291702981277    12.000000000000
         H           -0.990197721901     2.153218672408     0.691194018723     1.007825032230
         H           -0.990205721901    -2.148461327592     0.691184018723     1.007825032230
         H           -4.435530721901     0.002388672408    -0.716360981277     1.007825032230
         H            0.731864278099    -0.890212327592     1.929117018723     1.007825032230
         H            0.731864278099     0.894956672408     1.929125018723     1.007825032230
         H           -4.201677721901    -2.440046327592    -1.135736981277     1.007825032230
         H           -4.096835721901    -2.830998327592     0.583142018723     1.007825032230
         H           -2.804090721901    -3.328436327592    -0.513165981277     1.007825032230
         H           -4.097172721901     2.835548672408     0.582993018723     1.007825032230
         H           -2.804073721901     3.333295672408    -0.512758981277     1.007825032230
         H           -4.201370721901     2.444918672408    -1.135995981277     1.007825032230

  Basis Set: AUG-CC-PVTZ
    Blend: AUG-CC-PVTZ
  Basis Set: (AUG-CC-PVTZ AUX)
    Blend: AUG-CC-PVTZ-JKFIT + DEF2-UNIVERSAL-JKFIT
	 Reference Energy          =    -642.0052832410864312 [Eh]
	 Singles Energy            =      -0.0000000000000000 [Eh]
	 Same-Spin Energy          =      -0.4676446219006459 [Eh]
	 Opposite-Spin Energy      =      -1.4526415876069185 [Eh]
	 Correlation Energy        =      -1.9202862095075646 [Eh]
	 Total Energy              =    -643.9255694505940255 [Eh]

	 ================> DF-SCS-MP2 Energies <==================
	-----------------------------------------------------------
	 SCS Same-Spin Scale       =       0.3333333333333333 [-]
	 SCS Opposite-Spin Scale   =       1.2000000000000000 [-]
	 SCS Same-Spin Energy      =      -0.1558815406335486 [Eh]
	 SCS Opposite-Spin Energy  =      -1.7431699051283023 [Eh]
	 SCS Correlation Energy    =      -1.8990514457618508 [Eh]
	 SCS Total Energy          =    -643.9043346868483013 [Eh]
	-----------------------------------------------------------

  Dipole Moment: [D]
     X:    -2.1018      Y:     0.0099      Z:     0.8739     Total:     2.2763

*** Psi4 exiting successfully. Buy a developer a beer!
