                               Psi4 1.4a3.dev225

  ==> Input File <==

--------------------------------------------------------------------------
#psi4
#
memory 32 gb

molecule  {
0 1
  I        2.3447600     0.0000010    -0.2524410
  C       -0.5542210    -0.0000040     0.7369510
  C       -2.5036070    -1.2253050    -0.0650320
  C       -2.5036000     1.2253100    -0.0650260
  C       -1.2095060     1.2097510     0.4687330
  C       -1.2095100    -1.2097530     0.4687280
  C       -3.1346270     0.0000030    -0.3245500
  C        0.8217770    -0.0000070     1.3091860
  C       -3.2172620    -2.5291670    -0.3215690
  C       -3.2172620     2.5291680    -0.3215670
  H       -0.6945570     2.1508370     0.6613300
  H       -0.6945650    -2.1508430     0.6613200
  H       -4.1398900     0.0000070    -0.7462250
  H        1.0275050    -0.8925940     1.8992530
  H        1.0275050     0.8925750     1.8992610
  H       -3.9060370    -2.4424280    -1.1656010
  H       -3.8011950    -2.8333800     0.5532780
  H       -2.5084500    -3.3308180    -0.5430300
  H       -3.8015320     2.8331670     0.5531290
  H       -2.4759997     3.3675988    -0.5527377
  H       -3.9057300     2.4425370    -1.1658600
units angstrom
no_reorient  #important for SAPT in psi4, default
symmetry c1  #important for SAPT in psi4, default
}

set PROPERTIES_ORIGIN ["COM"]
properties('MP2/aug-cc-pvtz', properties = ['dipole'])
--------------------------------------------------------------------------

    Molecular point group: c1
  Charge       = 0
  Multiplicity = 1
  Basis Set: AUG-CC-PVTZ
    Blend: AUG-CC-PVTZ
  Basis Set: (AUG-CC-PVTZ AUX)
    Blend: AUG-CC-PVTZ-JKFIT + DEF2-UNIVERSAL-JKFIT

    Orbital Energies [Eh]
    ---------------------

    Doubly Occupied:

       1A    -11.290408     2A    -11.254222     3A    -11.249694
       4A    -11.249453     5A    -11.234260     6A    -11.233417
       7A    -11.233329     8A    -11.231650     9A    -11.228452
      10A     -7.706232    11A     -5.537679    12A     -5.528397
      13A     -5.528387    14A     -2.266893    15A     -2.262477
      16A     -2.262454    17A     -2.252193    18A     -2.252192
      19A     -1.165378    20A     -1.073151    21A     -1.060661
      22A     -0.969461    23A     -0.937568    24A     -0.931654
      25A     -0.849215    26A     -0.790028    27A     -0.783176
      28A     -0.682385    29A     -0.666613    30A     -0.617773
      31A     -0.588704    32A     -0.585305    33A     -0.573802
      34A     -0.571913    35A     -0.563790    36A     -0.552524
      37A     -0.523293    38A     -0.511059    39A     -0.489485
      40A     -0.485254    41A     -0.444616    42A     -0.359495
      43A     -0.357245    44A     -0.324978    45A     -0.319124

  @DF-RHF Final Energy:  -642.00582340079654

   => Energetics <=

    Nuclear Repulsion Energy =            614.4311286135927048
    One-Electron Energy =               -2203.7150227822107809
    Two-Electron Energy =                 947.2780707678216459
    Total Energy =                       -642.0058234007965439
  Basis Set: (AUG-CC-PVTZ AUX)
    Blend: AUG-CC-PVTZ-RI + DEF2-QZVPP-RI
    Molecular point group: c1

    Geometry (in Angstrom), charge = 0, multiplicity = 1:

       Center              X                  Y                   Z               Mass
    ------------   -----------------  -----------------  -----------------  -----------------
         I            2.048947977648    -0.000149512128    -0.222620939682   126.904471900000
         C           -0.850033022352    -0.000154512128     0.766771060318    12.000000000000
         C           -2.799419022352    -1.225455512128    -0.035211939682    12.000000000000
         C           -2.799412022352     1.225159487872    -0.035205939682    12.000000000000
         C           -1.505318022352     1.209600487872     0.498553060318    12.000000000000
         C           -1.505322022352    -1.209903512128     0.498548060318    12.000000000000
         C           -3.430439022352    -0.000147512128    -0.294729939682    12.000000000000
         C            0.525964977648    -0.000157512128     1.339006060318    12.000000000000
         C           -3.513074022352    -2.529317512128    -0.291748939682    12.000000000000
         C           -3.513074022352     2.529017487872    -0.291746939682    12.000000000000
         H           -0.990369022352     2.150686487872     0.691150060318     1.007825032230
         H           -0.990377022352    -2.150993512128     0.691140060318     1.007825032230
         H           -4.435702022352    -0.000143512128    -0.716404939682     1.007825032230
         H            0.731692977648    -0.892744512128     1.929073060318     1.007825032230
         H            0.731692977648     0.892424487872     1.929081060318     1.007825032230
         H           -4.201849022352    -2.442578512128    -1.135780939682     1.007825032230
         H           -4.097007022352    -2.833530512128     0.583098060318     1.007825032230
         H           -2.804262022352    -3.330968512128    -0.513209939682     1.007825032230
         H           -4.097344022352     2.833016487872     0.582949060318     1.007825032230
         H           -2.771811722352     3.367448287872    -0.522917639682     1.007825032230
         H           -4.201542022352     2.442386487872    -1.136039939682     1.007825032230

  Basis Set: AUG-CC-PVTZ
    Blend: AUG-CC-PVTZ
  Basis Set: (AUG-CC-PVTZ AUX)
    Blend: AUG-CC-PVTZ-JKFIT + DEF2-UNIVERSAL-JKFIT
	 Reference Energy          =    -642.0058234007965439 [Eh]
	 Singles Energy            =      -0.0000000000000000 [Eh]
	 Same-Spin Energy          =      -0.4675786968669553 [Eh]
	 Opposite-Spin Energy      =      -1.4529227834542013 [Eh]
	 Correlation Energy        =      -1.9205014803211566 [Eh]
	 Total Energy              =    -643.9263248811176936 [Eh]

	 ================> DF-SCS-MP2 Energies <==================
	-----------------------------------------------------------
	 SCS Same-Spin Scale       =       0.3333333333333333 [-]
	 SCS Opposite-Spin Scale   =       1.2000000000000000 [-]
	 SCS Same-Spin Energy      =      -0.1558595656223184 [Eh]
	 SCS Opposite-Spin Energy  =      -1.7435073401450416 [Eh]
	 SCS Correlation Energy    =      -1.8993669057673601 [Eh]
	 SCS Total Energy          =    -643.9051903065638953 [Eh]
	-----------------------------------------------------------

  Dipole Moment: [D]
     X:    -2.1043      Y:    -0.0292      Z:     0.8915     Total:     2.2855

*** Psi4 exiting successfully. Buy a developer a beer!
