                               Psi4 1.4a3.dev225

  ==> Input File <==

--------------------------------------------------------------------------
#psi4
#
memory 32 gb

molecule  {
0 1
  I        2.3717822     0.0000009    -0.2256234
  C       -0.5542210    -0.0000040     0.7369510
  C       -2.5036070    -1.2253050    -0.0650320
  C       -2.5036000     1.2253100    -0.0650260
  C       -1.2095060     1.2097510     0.4687330
  C       -1.2095100    -1.2097530     0.4687280
  C       -3.1346270     0.0000030    -0.3245500
  C        0.8217770    -0.0000070     1.3091860
  C       -3.2172620    -2.5291670    -0.3215690
  C       -3.2172620     2.5291680    -0.3215670
  H       -0.6945570     2.1508370     0.6613300
  H       -0.6945650    -2.1508430     0.6613200
  H       -4.1398900     0.0000070    -0.7462250
  H        1.0275050    -0.8925940     1.8992530
  H        1.0275050     0.8925750     1.8992610
  H       -3.9060370    -2.4424280    -1.1656010
  H       -3.8011950    -2.8333800     0.5532780
  H       -2.5084500    -3.3308180    -0.5430300
  H       -3.8015320     2.8331670     0.5531290
  H       -2.5084330     3.3309140    -0.5426230
  H       -3.9057300     2.4425370    -1.1658600
units angstrom
no_reorient  #important for SAPT in psi4, default
symmetry c1  #important for SAPT in psi4, default
}

set PROPERTIES_ORIGIN ["COM"]
properties('MP2/aug-cc-pvtz', properties = ['dipole'])
--------------------------------------------------------------------------

    Molecular point group: c1
  Charge       = 0
  Multiplicity = 1
  Basis Set: AUG-CC-PVTZ
    Blend: AUG-CC-PVTZ
  Basis Set: (AUG-CC-PVTZ AUX)
    Blend: AUG-CC-PVTZ-JKFIT + DEF2-UNIVERSAL-JKFIT

    Orbital Energies [Eh]
    ---------------------

    Doubly Occupied:

       1A    -11.290219     2A    -11.254304     3A    -11.249429
       4A    -11.249402     5A    -11.233559     6A    -11.233516
       7A    -11.231578     8A    -11.228441     9A    -11.228440
      10A     -7.706127    11A     -5.537565    12A     -5.528293
      13A     -5.528291    14A     -2.266776    15A     -2.262361
      16A     -2.262348    17A     -2.252097    18A     -2.252097
      19A     -1.165398    20A     -1.073058    21A     -1.061355
      22A     -0.970201    23A     -0.938830    24A     -0.933180
      25A     -0.849287    26A     -0.791148    27A     -0.782937
      28A     -0.682519    29A     -0.667168    30A     -0.617727
      31A     -0.588807    32A     -0.586119    33A     -0.573639
      34A     -0.573212    35A     -0.564395    36A     -0.555876
      37A     -0.526111    38A     -0.511267    39A     -0.489492
      40A     -0.485638    41A     -0.444547    42A     -0.359067
      43A     -0.356957    44A     -0.325128    45A     -0.319595

  @DF-RHF Final Energy:  -642.00801911568351

   => Energetics <=

    Nuclear Repulsion Energy =            613.8834208472426326
    One-Electron Energy =               -2202.6078799634942698
    Two-Electron Energy =                 946.7164400005681273
    Total Energy =                       -642.0080191156835099
  Basis Set: (AUG-CC-PVTZ AUX)
    Blend: AUG-CC-PVTZ-RI + DEF2-QZVPP-RI
    Molecular point group: c1

    Geometry (in Angstrom), charge = 0, multiplicity = 1:

       Center              X                  Y                   Z               Mass
    ------------   -----------------  -----------------  -----------------  -----------------
         I            2.062162529481     0.000000737349    -0.209679755876   126.904471900000
         C           -0.863840670519    -0.000004162651     0.752894644124    12.000000000000
         C           -2.813226670519    -1.225305162651    -0.049088355876    12.000000000000
         C           -2.813219670519     1.225309837349    -0.049082355876    12.000000000000
         C           -1.519125670519     1.209750837349     0.484676644124    12.000000000000
         C           -1.519129670519    -1.209753162651     0.484671644124    12.000000000000
         C           -3.444246670519     0.000002837349    -0.308606355876    12.000000000000
         C            0.512157329481    -0.000007162651     1.325129644124    12.000000000000
         C           -3.526881670519    -2.529167162651    -0.305625355876    12.000000000000
         C           -3.526881670519     2.529167837349    -0.305623355876    12.000000000000
         H           -1.004176670519     2.150836837349     0.677273644124     1.007825032230
         H           -1.004184670519    -2.150843162651     0.677263644124     1.007825032230
         H           -4.449509670519     0.000006837349    -0.730281355876     1.007825032230
         H            0.717885329481    -0.892594162651     1.915196644124     1.007825032230
         H            0.717885329481     0.892574837349     1.915204644124     1.007825032230
         H           -4.215656670519    -2.442428162651    -1.149657355876     1.007825032230
         H           -4.110814670519    -2.833380162651     0.569221644124     1.007825032230
         H           -2.818069670519    -3.330818162651    -0.527086355876     1.007825032230
         H           -4.111151670519     2.833166837349     0.569072644124     1.007825032230
         H           -2.818052670519     3.330913837349    -0.526679355876     1.007825032230
         H           -4.215349670519     2.442536837349    -1.149916355876     1.007825032230

  Basis Set: AUG-CC-PVTZ
    Blend: AUG-CC-PVTZ
  Basis Set: (AUG-CC-PVTZ AUX)
    Blend: AUG-CC-PVTZ-JKFIT + DEF2-UNIVERSAL-JKFIT
	 Reference Energy          =    -642.0080191156835099 [Eh]
	 Singles Energy            =      -0.0000000000000000 [Eh]
	 Same-Spin Energy          =      -0.4674977066812538 [Eh]
	 Opposite-Spin Energy      =      -1.4524598969965372 [Eh]
	 Correlation Energy        =      -1.9199576036777910 [Eh]
	 Total Energy              =    -643.9279767193612543 [Eh]

	 ================> DF-SCS-MP2 Energies <==================
	-----------------------------------------------------------
	 SCS Same-Spin Scale       =       0.3333333333333333 [-]
	 SCS Opposite-Spin Scale   =       1.2000000000000000 [-]
	 SCS Same-Spin Energy      =      -0.1558325688937513 [Eh]
	 SCS Opposite-Spin Energy  =      -1.7429518763958447 [Eh]
	 SCS Correlation Energy    =      -1.8987844452895959 [Eh]
	 SCS Total Energy          =    -643.9068035609731169 [Eh]
	-----------------------------------------------------------

  Dipole Moment: [D]
     X:    -2.1342      Y:    -0.0000      Z:     0.8714     Total:     2.3052

*** Psi4 exiting successfully. Buy a developer a beer!
