                               Psi4 1.4a3.dev225

  ==> Input File <==

--------------------------------------------------------------------------
#psi4
#
memory 32 gb

molecule  {
0 1
  I        2.3447600     0.0000010    -0.2524410
  C       -0.5542210    -0.0000040     0.7369510
  C       -2.5036070    -1.2253050    -0.0650320
  C       -2.5036000     1.2253100    -0.0650260
  C       -1.2095060     1.2097510     0.4687330
  C       -1.2095100    -1.2097530     0.4687280
  C       -3.1346270     0.0000030    -0.3245500
  C        0.8217770    -0.0000070     1.3091860
  C       -3.2172620    -2.5291670    -0.3215690
  C       -3.2172620     2.5291680    -0.3215670
  H       -0.6945570     2.1508370     0.6613300
  H       -0.6945650    -2.1508430     0.6613200
  H       -4.1398900     0.0000070    -0.7462250
  H        1.0275050    -0.8925940     1.8992530
  H        1.0275050     0.8925750     1.8992610
  H       -3.9060370    -2.4424280    -1.1656010
  H       -3.8011950    -2.8333800     0.5532780
  H       -2.5084500    -3.3308180    -0.5430300
  H       -3.8015320     2.8331670     0.5531290
  H       -2.4954597     3.3455879    -0.5466689
  H       -3.9057300     2.4425370    -1.1658600
units angstrom
no_reorient  #important for SAPT in psi4, default
symmetry c1  #important for SAPT in psi4, default
}

set PROPERTIES_ORIGIN ["COM"]
properties('MP2/aug-cc-pvtz', properties = ['dipole'])
--------------------------------------------------------------------------

    Molecular point group: c1
  Charge       = 0
  Multiplicity = 1
  Basis Set: AUG-CC-PVTZ
    Blend: AUG-CC-PVTZ
  Basis Set: (AUG-CC-PVTZ AUX)
    Blend: AUG-CC-PVTZ-JKFIT + DEF2-UNIVERSAL-JKFIT

    Orbital Energies [Eh]
    ---------------------

    Doubly Occupied:

       1A    -11.290375     2A    -11.254165     3A    -11.249422
       4A    -11.249325     5A    -11.233315     6A    -11.233263
       7A    -11.231412     8A    -11.230705     9A    -11.228360
      10A     -7.706206    11A     -5.537652    12A     -5.528372
      13A     -5.528361    14A     -2.266866    15A     -2.262451
      16A     -2.262428    17A     -2.252168    18A     -2.252167
      19A     -1.165297    20A     -1.073129    21A     -1.060943
      22A     -0.969760    23A     -0.938089    24A     -0.932517
      25A     -0.849168    26A     -0.790576    27A     -0.783128
      28A     -0.682334    29A     -0.666857    30A     -0.617729
      31A     -0.588692    32A     -0.585652    33A     -0.573546
      34A     -0.572584    35A     -0.563989    36A     -0.554513
      37A     -0.524979    38A     -0.511290    39A     -0.489336
      40A     -0.485391    41A     -0.444601    42A     -0.359463
      43A     -0.357223    44A     -0.324932    45A     -0.319010

  @DF-RHF Final Energy:  -642.00740769176116

   => Energetics <=

    Nuclear Repulsion Energy =            614.5524591307374749
    One-Electron Energy =               -2203.9562527496823350
    Two-Electron Energy =                 947.3963859271835872
    Total Energy =                       -642.0074076917611592
  Basis Set: (AUG-CC-PVTZ AUX)
    Blend: AUG-CC-PVTZ-RI + DEF2-QZVPP-RI
    Molecular point group: c1

    Geometry (in Angstrom), charge = 0, multiplicity = 1:

       Center              X                  Y                   Z               Mass
    ------------   -----------------  -----------------  -----------------  -----------------
         I            2.049027705408    -0.000059333313    -0.222645803599   126.904471900000
         C           -0.849953294592    -0.000064333313     0.766746196401    12.000000000000
         C           -2.799339294592    -1.225365333313    -0.035236803599    12.000000000000
         C           -2.799332294592     1.225249666687    -0.035230803599    12.000000000000
         C           -1.505238294592     1.209690666687     0.498528196401    12.000000000000
         C           -1.505242294592    -1.209813333313     0.498523196401    12.000000000000
         C           -3.430359294592    -0.000057333313    -0.294754803599    12.000000000000
         C            0.526044705408    -0.000067333313     1.338981196401    12.000000000000
         C           -3.512994294592    -2.529227333313    -0.291773803599    12.000000000000
         C           -3.512994294592     2.529107666687    -0.291771803599    12.000000000000
         H           -0.990289294592     2.150776666687     0.691125196401     1.007825032230
         H           -0.990297294592    -2.150903333313     0.691115196401     1.007825032230
         H           -4.435622294592    -0.000053333313    -0.716429803599     1.007825032230
         H            0.731772705408    -0.892654333313     1.929048196401     1.007825032230
         H            0.731772705408     0.892514666687     1.929056196401     1.007825032230
         H           -4.201769294592    -2.442488333313    -1.135805803599     1.007825032230
         H           -4.096927294592    -2.833440333313     0.583073196401     1.007825032230
         H           -2.804182294592    -3.330878333313    -0.513234803599     1.007825032230
         H           -4.097264294592     2.833106666687     0.582924196401     1.007825032230
         H           -2.791191994592     3.345527566687    -0.516873703599     1.007825032230
         H           -4.201462294592     2.442476666687    -1.136064803599     1.007825032230

  Basis Set: AUG-CC-PVTZ
    Blend: AUG-CC-PVTZ
  Basis Set: (AUG-CC-PVTZ AUX)
    Blend: AUG-CC-PVTZ-JKFIT + DEF2-UNIVERSAL-JKFIT
	 Reference Energy          =    -642.0074076917611592 [Eh]
	 Singles Energy            =      -0.0000000000000000 [Eh]
	 Same-Spin Energy          =      -0.4675701691768991 [Eh]
	 Opposite-Spin Energy      =      -1.4527005845408973 [Eh]
	 Correlation Energy        =      -1.9202707537177965 [Eh]
	 Total Energy              =    -643.9276784454789322 [Eh]

	 ================> DF-SCS-MP2 Energies <==================
	-----------------------------------------------------------
	 SCS Same-Spin Scale       =       0.3333333333333333 [-]
	 SCS Opposite-Spin Scale   =       1.2000000000000000 [-]
	 SCS Same-Spin Energy      =      -0.1558567230589664 [Eh]
	 SCS Opposite-Spin Energy  =      -1.7432407014490767 [Eh]
	 SCS Correlation Energy    =      -1.8990974245080432 [Eh]
	 SCS Total Energy          =    -643.9065051162691589 [Eh]
	-----------------------------------------------------------

  Dipole Moment: [D]
     X:    -2.1015      Y:    -0.0112      Z:     0.8878     Total:     2.2814

*** Psi4 exiting successfully. Buy a developer a beer!
