                               Psi4 1.4a3.dev225

  ==> Input File <==

--------------------------------------------------------------------------
#psi4
#
memory 32 gb

molecule  {
0 1
  I        2.3447600     0.0000010    -0.2524410
  C       -0.5542210    -0.0000040     0.7369510
  C       -2.5036070    -1.2253050    -0.0650320
  C       -2.5036000     1.2253100    -0.0650260
  C       -1.2095060     1.2097510     0.4687330
  C       -1.2095100    -1.2097530     0.4687280
  C       -3.1346270     0.0000030    -0.3245500
  C        0.8217770    -0.0000070     1.3091860
  C       -3.2172620    -2.5291670    -0.3215690
  C       -3.2172620     2.5291680    -0.3215670
  H       -0.6709336     2.1940096     0.6701654
  H       -0.6945650    -2.1508430     0.6613200
  H       -4.1398900     0.0000070    -0.7462250
  H        1.0275050    -0.8925940     1.8992530
  H        1.0275050     0.8925750     1.8992610
  H       -3.9060370    -2.4424280    -1.1656010
  H       -3.8011950    -2.8333800     0.5532780
  H       -2.5084500    -3.3308180    -0.5430300
  H       -3.8015320     2.8331670     0.5531290
  H       -2.5084330     3.3309140    -0.5426230
  H       -3.9057300     2.4425370    -1.1658600
units angstrom
no_reorient  #important for SAPT in psi4, default
symmetry c1  #important for SAPT in psi4, default
}

set PROPERTIES_ORIGIN ["COM"]
properties('MP2/aug-cc-pvtz', properties = ['dipole'])
--------------------------------------------------------------------------

    Molecular point group: c1
  Charge       = 0
  Multiplicity = 1
  Basis Set: AUG-CC-PVTZ
    Blend: AUG-CC-PVTZ
  Basis Set: (AUG-CC-PVTZ AUX)
    Blend: AUG-CC-PVTZ-JKFIT + DEF2-UNIVERSAL-JKFIT

    Orbital Energies [Eh]
    ---------------------

    Doubly Occupied:

       1A    -11.290323     2A    -11.254702     3A    -11.249820
       4A    -11.249490     5A    -11.239019     6A    -11.233655
       7A    -11.231692     8A    -11.228480     9A    -11.228290
      10A     -7.706149    11A     -5.537596    12A     -5.528313
      13A     -5.528304    14A     -2.266810    15A     -2.262394
      16A     -2.262371    17A     -2.252108    18A     -2.252108
      19A     -1.165304    20A     -1.073235    21A     -1.060851
      22A     -0.969997    23A     -0.938500    24A     -0.931590
      25A     -0.849004    26A     -0.789901    27A     -0.782826
      28A     -0.677606    29A     -0.667216    30A     -0.617345
      31A     -0.588617    32A     -0.586118    33A     -0.573532
      34A     -0.572672    35A     -0.561037    36A     -0.554513
      37A     -0.525994    38A     -0.511495    39A     -0.489348
      40A     -0.484309    41A     -0.444718    42A     -0.359429
      43A     -0.357157    44A     -0.325210    45A     -0.319233

  @DF-RHF Final Energy:  -642.00543250733460

   => Energetics <=

    Nuclear Repulsion Energy =            614.3805497462017229
    One-Electron Energy =               -2203.6152005878288946
    Two-Electron Energy =                 947.2292183342925682
    Total Energy =                       -642.0054325073346035
  Basis Set: (AUG-CC-PVTZ AUX)
    Blend: AUG-CC-PVTZ-RI + DEF2-QZVPP-RI
    Molecular point group: c1

    Geometry (in Angstrom), charge = 0, multiplicity = 1:

       Center              X                  Y                   Z               Mass
    ------------   -----------------  -----------------  -----------------  -----------------
         I            2.048984071872    -0.000176092691    -0.222698578377   126.904471900000
         C           -0.849996928128    -0.000181092691     0.766693421623    12.000000000000
         C           -2.799382928128    -1.225482092691    -0.035289578377    12.000000000000
         C           -2.799375928128     1.225132907309    -0.035283578377    12.000000000000
         C           -1.505281928128     1.209573907309     0.498475421623    12.000000000000
         C           -1.505285928128    -1.209930092691     0.498470421623    12.000000000000
         C           -3.430402928128    -0.000174092691    -0.294807578377    12.000000000000
         C            0.526001071872    -0.000184092691     1.338928421623    12.000000000000
         C           -3.513037928128    -2.529344092691    -0.291826578377    12.000000000000
         C           -3.513037928128     2.528990907309    -0.291824578377    12.000000000000
         H           -0.966709528128     2.193832507309     0.699907821623     1.007825032230
         H           -0.990340928128    -2.151020092691     0.691062421623     1.007825032230
         H           -4.435665928128    -0.000170092691    -0.716482578377     1.007825032230
         H            0.731729071872    -0.892771092691     1.928995421623     1.007825032230
         H            0.731729071872     0.892397907309     1.929003421623     1.007825032230
         H           -4.201812928128    -2.442605092691    -1.135858578377     1.007825032230
         H           -4.096970928128    -2.833557092691     0.583020421623     1.007825032230
         H           -2.804225928128    -3.330995092691    -0.513287578377     1.007825032230
         H           -4.097307928128     2.832989907309     0.582871421623     1.007825032230
         H           -2.804208928128     3.330736907309    -0.512880578377     1.007825032230
         H           -4.201505928128     2.442359907309    -1.136117578377     1.007825032230

  Basis Set: AUG-CC-PVTZ
    Blend: AUG-CC-PVTZ
  Basis Set: (AUG-CC-PVTZ AUX)
    Blend: AUG-CC-PVTZ-JKFIT + DEF2-UNIVERSAL-JKFIT
	 Reference Energy          =    -642.0054325073346035 [Eh]
	 Singles Energy            =      -0.0000000000000000 [Eh]
	 Same-Spin Energy          =      -0.4677131488308753 [Eh]
	 Opposite-Spin Energy      =      -1.4530214674108082 [Eh]
	 Correlation Energy        =      -1.9207346162416834 [Eh]
	 Total Energy              =    -643.9261671235763060 [Eh]

	 ================> DF-SCS-MP2 Energies <==================
	-----------------------------------------------------------
	 SCS Same-Spin Scale       =       0.3333333333333333 [-]
	 SCS Opposite-Spin Scale   =       1.2000000000000000 [-]
	 SCS Same-Spin Energy      =      -0.1559043829436251 [Eh]
	 SCS Opposite-Spin Energy  =      -1.7436257608929697 [Eh]
	 SCS Correlation Energy    =      -1.8995301438365948 [Eh]
	 SCS Total Energy          =    -643.9049626511712177 [Eh]
	-----------------------------------------------------------

  Dipole Moment: [D]
     X:    -2.1104      Y:    -0.0173      Z:     0.8800     Total:     2.2866

*** Psi4 exiting successfully. Buy a developer a beer!
