                               Psi4 1.4a3.dev225

  ==> Input File <==

--------------------------------------------------------------------------
#psi4
#
memory 32 gb

molecule  {
0 1
  I        2.3447600     0.0000010    -0.2524410
  C       -0.5542210    -0.0000040     0.7369510
  C       -2.5036070    -1.2253050    -0.0650320
  C       -2.5036000     1.2253100    -0.0650260
  C       -1.2095060     1.2097510     0.4687330
  C       -1.2095100    -1.2097530     0.4687280
  C       -3.1346270     0.0000030    -0.3245500
  C        0.8217770    -0.0000070     1.3091860
  C       -3.2172620    -2.5291670    -0.3215690
  C       -3.2172620     2.5291680    -0.3215670
  H       -0.6945570     2.1508370     0.6613300
  H       -0.6945650    -2.1508430     0.6613200
  H       -4.1398900     0.0000070    -0.7462250
  H        1.0275050    -0.8925940     1.8992530
  H        1.0275050     0.8925750     1.8992610
  H       -3.8430115    -2.4503649    -1.0883689
  H       -3.8011950    -2.8333800     0.5532780
  H       -2.5084500    -3.3308180    -0.5430300
  H       -3.8015320     2.8331670     0.5531290
  H       -2.5084330     3.3309140    -0.5426230
  H       -3.9057300     2.4425370    -1.1658600
units angstrom
no_reorient  #important for SAPT in psi4, default
symmetry c1  #important for SAPT in psi4, default
}

set PROPERTIES_ORIGIN ["COM"]
properties('MP2/aug-cc-pvtz', properties = ['dipole'])
--------------------------------------------------------------------------

    Molecular point group: c1
  Charge       = 0
  Multiplicity = 1
  Basis Set: AUG-CC-PVTZ
    Blend: AUG-CC-PVTZ
  Basis Set: (AUG-CC-PVTZ AUX)
    Blend: AUG-CC-PVTZ-JKFIT + DEF2-UNIVERSAL-JKFIT

    Orbital Energies [Eh]
    ---------------------

    Doubly Occupied:

       1A    -11.290143     2A    -11.253809     3A    -11.249126
       4A    -11.248517     5A    -11.232959     6A    -11.232610
       7A    -11.231159     8A    -11.228209     9A    -11.215978
      10A     -7.706034    11A     -5.537478    12A     -5.528201
      13A     -5.528190    14A     -2.266690    15A     -2.262277
      16A     -2.262254    17A     -2.251998    18A     -2.251998
      19A     -1.165115    20A     -1.073605    21A     -1.062507
      22A     -0.972448    23A     -0.942230    24A     -0.934912
      25A     -0.849163    26A     -0.792426    27A     -0.783872
      28A     -0.682350    29A     -0.667926    30A     -0.618943
      31A     -0.593889    32A     -0.586587    33A     -0.575561
      34A     -0.572701    35A     -0.565068    36A     -0.559876
      37A     -0.529492    38A     -0.511072    39A     -0.490005
      40A     -0.484922    41A     -0.444484    42A     -0.359296
      43A     -0.357053    44A     -0.324620    45A     -0.318842

  @DF-RHF Final Energy:  -642.00181384181371

   => Energetics <=

    Nuclear Repulsion Energy =            615.1084932356188801
    One-Electron Energy =               -2205.0274285945974952
    Two-Electron Energy =                 947.9171215171649010
    Total Energy =                       -642.0018138418137141
  Basis Set: (AUG-CC-PVTZ AUX)
    Blend: AUG-CC-PVTZ-RI + DEF2-QZVPP-RI
    Molecular point group: c1

    Geometry (in Angstrom), charge = 0, multiplicity = 1:

       Center              X                  Y                   Z               Mass
    ------------   -----------------  -----------------  -----------------  -----------------
         I            2.048822641186     0.000033303296    -0.222978800146   126.904471900000
         C           -0.850158358814     0.000028303296     0.766413199854    12.000000000000
         C           -2.799544358814    -1.225272696704    -0.035569800146    12.000000000000
         C           -2.799537358814     1.225342303296    -0.035563800146    12.000000000000
         C           -1.505443358814     1.209783303296     0.498195199854    12.000000000000
         C           -1.505447358814    -1.209720696704     0.498190199854    12.000000000000
         C           -3.430564358814     0.000035303296    -0.295087800146    12.000000000000
         C            0.525839641186     0.000025303296     1.338648199854    12.000000000000
         C           -3.513199358814    -2.529134696704    -0.292106800146    12.000000000000
         C           -3.513199358814     2.529200303296    -0.292104800146    12.000000000000
         H           -0.990494358814     2.150869303296     0.690792199854     1.007825032230
         H           -0.990502358814    -2.150810696704     0.690782199854     1.007825032230
         H           -4.435827358814     0.000039303296    -0.716762800146     1.007825032230
         H            0.731567641186    -0.892561696704     1.928715199854     1.007825032230
         H            0.731567641186     0.892607303296     1.928723199854     1.007825032230
         H           -4.138948858814    -2.450332596704    -1.058906700146     1.007825032230
         H           -4.097132358814    -2.833347696704     0.582740199854     1.007825032230
         H           -2.804387358814    -3.330785696704    -0.513567800146     1.007825032230
         H           -4.097469358814     2.833199303296     0.582591199854     1.007825032230
         H           -2.804370358814     3.330946303296    -0.513160800146     1.007825032230
         H           -4.201667358814     2.442569303296    -1.136397800146     1.007825032230

  Basis Set: AUG-CC-PVTZ
    Blend: AUG-CC-PVTZ
  Basis Set: (AUG-CC-PVTZ AUX)
    Blend: AUG-CC-PVTZ-JKFIT + DEF2-UNIVERSAL-JKFIT
	 Reference Energy          =    -642.0018138418137141 [Eh]
	 Singles Energy            =      -0.0000000000000000 [Eh]
	 Same-Spin Energy          =      -0.4675658827746687 [Eh]
	 Opposite-Spin Energy      =      -1.4520485832614198 [Eh]
	 Correlation Energy        =      -1.9196144660360885 [Eh]
	 Total Energy              =    -643.9214283078498511 [Eh]

	 ================> DF-SCS-MP2 Energies <==================
	-----------------------------------------------------------
	 SCS Same-Spin Scale       =       0.3333333333333333 [-]
	 SCS Opposite-Spin Scale   =       1.2000000000000000 [-]
	 SCS Same-Spin Energy      =      -0.1558552942582229 [Eh]
	 SCS Opposite-Spin Energy  =      -1.7424582999137037 [Eh]
	 SCS Correlation Energy    =      -1.8983135941719267 [Eh]
	 SCS Total Energy          =    -643.9001274359856097 [Eh]
	-----------------------------------------------------------

  Dipole Moment: [D]
     X:    -2.1370      Y:    -0.0198      Z:     0.8571     Total:     2.3026

*** Psi4 exiting successfully. Buy a developer a beer!
