                               Psi4 1.4a3.dev225

  ==> Input File <==

--------------------------------------------------------------------------
#psi4
#
memory 32 gb

molecule  {
0 1
  I        2.3447600     0.0000010    -0.2524410
  C       -0.5542210    -0.0000040     0.7369510
  C       -2.5036070    -1.2253050    -0.0650320
  C       -2.5036000     1.2253100    -0.0650260
  C       -1.2095060     1.2097510     0.4687330
  C       -1.2095100    -1.2097530     0.4687280
  C       -3.1346270     0.0000030    -0.3245500
  C        0.8217770    -0.0000070     1.3091860
  C       -3.2172620    -2.5291670    -0.3215690
  C       -3.2172620     2.5291680    -0.3215670
  H       -0.6945570     2.1508370     0.6613300
  H       -0.6945650    -2.1508430     0.6613200
  H       -4.1398900     0.0000070    -0.7462250
  H        1.0275050    -0.8925940     1.8992530
  H        1.0275050     0.8925750     1.8992610
  H       -3.9060370    -2.4424280    -1.1656010
  H       -3.8011950    -2.8333800     0.5532780
  H       -2.5084500    -3.3308180    -0.5430300
  H       -3.8015320     2.8331670     0.5531290
  H       -2.5084330     3.3309140    -0.5426230
  H       -3.9372287     2.4385735    -1.2044880
units angstrom
no_reorient  #important for SAPT in psi4, default
symmetry c1  #important for SAPT in psi4, default
}

set PROPERTIES_ORIGIN ["COM"]
properties('MP2/aug-cc-pvtz', properties = ['dipole'])
--------------------------------------------------------------------------

    Molecular point group: c1
  Charge       = 0
  Multiplicity = 1
  Basis Set: AUG-CC-PVTZ
    Blend: AUG-CC-PVTZ
  Basis Set: (AUG-CC-PVTZ AUX)
    Blend: AUG-CC-PVTZ-JKFIT + DEF2-UNIVERSAL-JKFIT

    Orbital Energies [Eh]
    ---------------------

    Doubly Occupied:

       1A    -11.290487     2A    -11.254332     3A    -11.249690
       4A    -11.249337     5A    -11.234268     6A    -11.233627
       7A    -11.233424     8A    -11.231357     9A    -11.228366
      10A     -7.706290    11A     -5.537737    12A     -5.528455
      13A     -5.528445    14A     -2.266951    15A     -2.262536
      16A     -2.262512    17A     -2.252251    18A     -2.252250
      19A     -1.165390    20A     -1.073068    21A     -1.060768
      22A     -0.969325    23A     -0.937971    24A     -0.931380
      25A     -0.849165    26A     -0.790593    27A     -0.782693
      28A     -0.682389    29A     -0.666779    30A     -0.617502
      31A     -0.588286    32A     -0.585149    33A     -0.573395
      34A     -0.572851    35A     -0.564163    36A     -0.552394
      37A     -0.523012    38A     -0.511586    39A     -0.488589
      40A     -0.485783    41A     -0.444654    42A     -0.359540
      43A     -0.357309    44A     -0.325096    45A     -0.319015

  @DF-RHF Final Energy:  -642.00582673542237

   => Energetics <=

    Nuclear Repulsion Energy =            614.4200295834211829
    One-Electron Energy =               -2203.6913894669060028
    Two-Electron Energy =                 947.2655331480624454
    Total Energy =                       -642.0058267354223744
  Basis Set: (AUG-CC-PVTZ AUX)
    Blend: AUG-CC-PVTZ-RI + DEF2-QZVPP-RI
    Molecular point group: c1

    Geometry (in Angstrom), charge = 0, multiplicity = 1:

       Center              X                  Y                   Z               Mass
    ------------   -----------------  -----------------  -----------------  -----------------
         I            2.049209907510     0.000017024248    -0.222504120488   126.904471900000
         C           -0.849771092490     0.000012024248     0.766887879512    12.000000000000
         C           -2.799157092490    -1.225288975752    -0.035095120488    12.000000000000
         C           -2.799150092490     1.225326024248    -0.035089120488    12.000000000000
         C           -1.505056092490     1.209767024248     0.498669879512    12.000000000000
         C           -1.505060092490    -1.209736975752     0.498664879512    12.000000000000
         C           -3.430177092490     0.000019024248    -0.294613120488    12.000000000000
         C            0.526226907510     0.000009024248     1.339122879512    12.000000000000
         C           -3.512812092490    -2.529150975752    -0.291632120488    12.000000000000
         C           -3.512812092490     2.529184024248    -0.291630120488    12.000000000000
         H           -0.990107092490     2.150853024248     0.691266879512     1.007825032230
         H           -0.990115092490    -2.150826975752     0.691256879512     1.007825032230
         H           -4.435440092490     0.000023024248    -0.716288120488     1.007825032230
         H            0.731954907510    -0.892577975752     1.929189879512     1.007825032230
         H            0.731954907510     0.892591024248     1.929197879512     1.007825032230
         H           -4.201587092490    -2.442411975752    -1.135664120488     1.007825032230
         H           -4.096745092490    -2.833363975752     0.583214879512     1.007825032230
         H           -2.804000092490    -3.330801975752    -0.513093120488     1.007825032230
         H           -4.097082092490     2.833183024248     0.583065879512     1.007825032230
         H           -2.803983092490     3.330930024248    -0.512686120488     1.007825032230
         H           -4.232778792490     2.438589524248    -1.174551120488     1.007825032230

  Basis Set: AUG-CC-PVTZ
    Blend: AUG-CC-PVTZ
  Basis Set: (AUG-CC-PVTZ AUX)
    Blend: AUG-CC-PVTZ-JKFIT + DEF2-UNIVERSAL-JKFIT
	 Reference Energy          =    -642.0058267354223744 [Eh]
	 Singles Energy            =      -0.0000000000000000 [Eh]
	 Same-Spin Energy          =      -0.4675777283517265 [Eh]
	 Opposite-Spin Energy      =      -1.4529207039772831 [Eh]
	 Correlation Energy        =      -1.9204984323290095 [Eh]
	 Total Energy              =    -643.9263251677514290 [Eh]

	 ================> DF-SCS-MP2 Energies <==================
	-----------------------------------------------------------
	 SCS Same-Spin Scale       =       0.3333333333333333 [-]
	 SCS Opposite-Spin Scale   =       1.2000000000000000 [-]
	 SCS Same-Spin Energy      =      -0.1558592427839088 [Eh]
	 SCS Opposite-Spin Energy  =      -1.7435048447727397 [Eh]
	 SCS Correlation Energy    =      -1.8993640875566484 [Eh]
	 SCS Total Energy          =    -643.9051908229789660 [Eh]
	-----------------------------------------------------------

  Dipole Moment: [D]
     X:    -2.0767      Y:    -0.0121      Z:     0.9038     Total:     2.2648

*** Psi4 exiting successfully. Buy a developer a beer!
