                               Psi4 1.4a3.dev225

  ==> Input File <==

--------------------------------------------------------------------------
#psi4
#
memory 32 gb

molecule  {
0 1
  I        2.3447600     0.0000010    -0.2524410
  C       -0.5542210    -0.0000040     0.7369510
  C       -2.5036070    -1.2253050    -0.0650320
  C       -2.5851441     1.1663031    -0.1866649
  C       -1.2095060     1.2097510     0.4687330
  C       -1.2095100    -1.2097530     0.4687280
  C       -3.1346270     0.0000030    -0.3245500
  C        0.8217770    -0.0000070     1.3091860
  C       -3.2172620    -2.5291670    -0.3215690
  C       -3.2172620     2.5291680    -0.3215670
  H       -0.6945570     2.1508370     0.6613300
  H       -0.6945650    -2.1508430     0.6613200
  H       -4.1398900     0.0000070    -0.7462250
  H        1.0275050    -0.8925940     1.8992530
  H        1.0275050     0.8925750     1.8992610
  H       -3.9060370    -2.4424280    -1.1656010
  H       -3.8011950    -2.8333800     0.5532780
  H       -2.5084500    -3.3308180    -0.5430300
  H       -3.8015320     2.8331670     0.5531290
  H       -2.5084330     3.3309140    -0.5426230
  H       -3.9057300     2.4425370    -1.1658600
units angstrom
no_reorient  #important for SAPT in psi4, default
symmetry c1  #important for SAPT in psi4, default
}

set PROPERTIES_ORIGIN ["COM"]
properties('MP2/aug-cc-pvtz', properties = ['dipole'])
--------------------------------------------------------------------------

    Molecular point group: c1
  Charge       = 0
  Multiplicity = 1
  Basis Set: AUG-CC-PVTZ
    Blend: AUG-CC-PVTZ
  Basis Set: (AUG-CC-PVTZ AUX)
    Blend: AUG-CC-PVTZ-JKFIT + DEF2-UNIVERSAL-JKFIT

    Orbital Energies [Eh]
    ---------------------

    Doubly Occupied:

       1A    -11.289657     2A    -11.252474     3A    -11.250812
       4A    -11.248323     5A    -11.242787     6A    -11.232900
       7A    -11.229344     8A    -11.228973     9A    -11.220735
      10A     -7.705899    11A     -5.537344    12A     -5.528079
      13A     -5.528044    14A     -2.266557    15A     -2.262155
      16A     -2.262109    17A     -2.251861    18A     -2.251861
      19A     -1.165848    20A     -1.080650    21A     -1.055984
      22A     -0.968275    23A     -0.949933    24A     -0.925069
      25A     -0.846368    26A     -0.802599    27A     -0.771987
      28A     -0.682347    29A     -0.664984    30A     -0.617219
      31A     -0.589695    32A     -0.587013    33A     -0.585886
      34A     -0.573069    35A     -0.556855    36A     -0.554873
      37A     -0.525793    38A     -0.508318    39A     -0.500235
      40A     -0.462732    41A     -0.446832    42A     -0.360976
      43A     -0.356631    44A     -0.334552    45A     -0.310460

  @DF-RHF Final Energy:  -641.98370046855996

   => Energetics <=

    Nuclear Repulsion Energy =            614.3337560634653300
    One-Electron Energy =               -2203.4847185669177634
    Two-Electron Energy =                 947.1672620348923601
    Total Energy =                       -641.9837004685599595
  Basis Set: (AUG-CC-PVTZ AUX)
    Blend: AUG-CC-PVTZ-RI + DEF2-QZVPP-RI
    Molecular point group: c1

    Geometry (in Angstrom), charge = 0, multiplicity = 1:

       Center              X                  Y                   Z               Mass
    ------------   -----------------  -----------------  -----------------  -----------------
         I            2.053058770941     0.002879281734    -0.216728546790   126.904471900000
         C           -0.845922229059     0.002874281734     0.772663453210    12.000000000000
         C           -2.795308229059    -1.222426718266    -0.029319546790    12.000000000000
         C           -2.876845329059     1.169181381734    -0.150952446790    12.000000000000
         C           -1.501207229059     1.212629281734     0.504445453210    12.000000000000
         C           -1.501211229059    -1.206874718266     0.504440453210    12.000000000000
         C           -3.426328229059     0.002881281734    -0.288837546790    12.000000000000
         C            0.530075770941     0.002871281734     1.344898453210    12.000000000000
         C           -3.508963229059    -2.526288718266    -0.285856546790    12.000000000000
         C           -3.508963229059     2.532046281734    -0.285854546790    12.000000000000
         H           -0.986258229059     2.153715281734     0.697042453210     1.007825032230
         H           -0.986266229059    -2.147964718266     0.697032453210     1.007825032230
         H           -4.431591229059     0.002885281734    -0.710512546790     1.007825032230
         H            0.735803770941    -0.889715718266     1.934965453210     1.007825032230
         H            0.735803770941     0.895453281734     1.934973453210     1.007825032230
         H           -4.197738229059    -2.439549718266    -1.129888546790     1.007825032230
         H           -4.092896229059    -2.830501718266     0.588990453210     1.007825032230
         H           -2.800151229059    -3.327939718266    -0.507317546790     1.007825032230
         H           -4.093233229059     2.836045281734     0.588841453210     1.007825032230
         H           -2.800134229059     3.333792281734    -0.506910546790     1.007825032230
         H           -4.197431229059     2.445415281734    -1.130147546790     1.007825032230

  Basis Set: AUG-CC-PVTZ
    Blend: AUG-CC-PVTZ
  Basis Set: (AUG-CC-PVTZ AUX)
    Blend: AUG-CC-PVTZ-JKFIT + DEF2-UNIVERSAL-JKFIT
	 Reference Energy          =    -641.9837004685599595 [Eh]
	 Singles Energy            =      -0.0000000000000000 [Eh]
	 Same-Spin Energy          =      -0.4671632743015049 [Eh]
	 Opposite-Spin Energy      =      -1.4537863319506821 [Eh]
	 Correlation Energy        =      -1.9209496062521869 [Eh]
	 Total Energy              =    -643.9046500748121389 [Eh]

	 ================> DF-SCS-MP2 Energies <==================
	-----------------------------------------------------------
	 SCS Same-Spin Scale       =       0.3333333333333333 [-]
	 SCS Opposite-Spin Scale   =       1.2000000000000000 [-]
	 SCS Same-Spin Energy      =      -0.1557210914338350 [Eh]
	 SCS Opposite-Spin Energy  =      -1.7445435983408184 [Eh]
	 SCS Correlation Energy    =      -1.9002646897746533 [Eh]
	 SCS Total Energy          =    -643.8839651583346040 [Eh]
	-----------------------------------------------------------

  Dipole Moment: [D]
     X:    -2.0564      Y:     0.0135      Z:     0.9208     Total:     2.2531

*** Psi4 exiting successfully. Buy a developer a beer!
