                               Psi4 1.4a3.dev225

  ==> Input File <==

--------------------------------------------------------------------------
#psi4
#
memory 32 gb

molecule  {
0 1
  I        2.3447600     0.0000010    -0.2524410
  C       -0.5542210    -0.0000040     0.7369510
  C       -2.5036070    -1.2253050    -0.0650320
  C       -2.5036000     1.2253100    -0.0650260
  C       -1.2095060     1.2097510     0.4687330
  C       -1.2095100    -1.2097530     0.4687280
  C       -3.1346270     0.0000030    -0.3245500
  C        0.8217770    -0.0000070     1.3091860
  C       -3.2172620    -2.5291670    -0.3215690
  C       -3.2172620     2.5291680    -0.3215670
  H       -0.6945570     2.1508370     0.6613300
  H       -0.6945650    -2.1508430     0.6613200
  H       -4.1398900     0.0000070    -0.7462250
  H        1.0275050    -0.8925940     1.8992530
  H        1.0275050     0.8925750     1.8992610
  H       -3.9060370    -2.4424280    -1.1656010
  H       -3.7905289    -2.8278233     0.5372981
  H       -2.5084500    -3.3308180    -0.5430300
  H       -3.8015320     2.8331670     0.5531290
  H       -2.5084330     3.3309140    -0.5426230
  H       -3.9057300     2.4425370    -1.1658600
units angstrom
no_reorient  #important for SAPT in psi4, default
symmetry c1  #important for SAPT in psi4, default
}

set PROPERTIES_ORIGIN ["COM"]
properties('MP2/aug-cc-pvtz', properties = ['dipole'])
--------------------------------------------------------------------------

    Molecular point group: c1
  Charge       = 0
  Multiplicity = 1
  Basis Set: AUG-CC-PVTZ
    Blend: AUG-CC-PVTZ
  Basis Set: (AUG-CC-PVTZ AUX)
    Blend: AUG-CC-PVTZ-JKFIT + DEF2-UNIVERSAL-JKFIT

    Orbital Energies [Eh]
    ---------------------

    Doubly Occupied:

       1A    -11.290318     2A    -11.254080     3A    -11.249200
       4A    -11.249113     5A    -11.233181     6A    -11.233136
       7A    -11.231179     8A    -11.228266     9A    -11.225882
      10A     -7.706158    11A     -5.537604    12A     -5.528324
      13A     -5.528314    14A     -2.266817    15A     -2.262403
      16A     -2.262379    17A     -2.252120    18A     -2.252120
      19A     -1.165211    20A     -1.073163    21A     -1.061400
      22A     -0.970332    23A     -0.939144    24A     -0.933503
      25A     -0.849113    26A     -0.791284    27A     -0.783144
      28A     -0.682325    29A     -0.666967    30A     -0.617782
      31A     -0.588724    32A     -0.587538    33A     -0.575464
      34A     -0.573025    35A     -0.564109    36A     -0.555579
      37A     -0.525834    38A     -0.511642    39A     -0.489184
      40A     -0.485402    41A     -0.444722    42A     -0.359417
      43A     -0.357180    44A     -0.324951    45A     -0.318916

  @DF-RHF Final Energy:  -642.00793189472120

   => Energetics <=

    Nuclear Repulsion Energy =            614.7270862472613544
    One-Electron Energy =               -2204.2987440374681682
    Two-Electron Energy =                 947.5637258954855042
    Total Energy =                       -642.0079318947211959
  Basis Set: (AUG-CC-PVTZ AUX)
    Blend: AUG-CC-PVTZ-RI + DEF2-QZVPP-RI
    Molecular point group: c1

    Geometry (in Angstrom), charge = 0, multiplicity = 1:

       Center              X                  Y                   Z               Mass
    ------------   -----------------  -----------------  -----------------  -----------------
         I            2.049037158023    -0.000021980080    -0.222596909915   126.904471900000
         C           -0.849943841977    -0.000026980080     0.766795090085    12.000000000000
         C           -2.799329841977    -1.225327980080    -0.035187909915    12.000000000000
         C           -2.799322841977     1.225287019920    -0.035181909915    12.000000000000
         C           -1.505228841977     1.209728019920     0.498577090085    12.000000000000
         C           -1.505232841977    -1.209775980080     0.498572090085    12.000000000000
         C           -3.430349841977    -0.000019980080    -0.294705909915    12.000000000000
         C            0.526054158023    -0.000029980080     1.339030090085    12.000000000000
         C           -3.512984841977    -2.529189980080    -0.291724909915    12.000000000000
         C           -3.512984841977     2.529145019920    -0.291722909915    12.000000000000
         H           -0.990279841977     2.150814019920     0.691174090085     1.007825032230
         H           -0.990287841977    -2.150865980080     0.691164090085     1.007825032230
         H           -4.435612841977    -0.000015980080    -0.716380909915     1.007825032230
         H            0.731782158023    -0.892616980080     1.929097090085     1.007825032230
         H            0.731782158023     0.892552019920     1.929105090085     1.007825032230
         H           -4.201759841977    -2.442450980080    -1.135756909915     1.007825032230
         H           -4.086251741977    -2.827846280080     0.567142190085     1.007825032230
         H           -2.804172841977    -3.330840980080    -0.513185909915     1.007825032230
         H           -4.097254841977     2.833144019920     0.582973090085     1.007825032230
         H           -2.804155841977     3.330891019920    -0.512778909915     1.007825032230
         H           -4.201452841977     2.442514019920    -1.136015909915     1.007825032230

  Basis Set: AUG-CC-PVTZ
    Blend: AUG-CC-PVTZ
  Basis Set: (AUG-CC-PVTZ AUX)
    Blend: AUG-CC-PVTZ-JKFIT + DEF2-UNIVERSAL-JKFIT
	 Reference Energy          =    -642.0079318947211959 [Eh]
	 Singles Energy            =      -0.0000000000000000 [Eh]
	 Same-Spin Energy          =      -0.4675688842775067 [Eh]
	 Opposite-Spin Energy      =      -1.4524498262275818 [Eh]
	 Correlation Energy        =      -1.9200187105050885 [Eh]
	 Total Energy              =    -643.9279506052263287 [Eh]

	 ================> DF-SCS-MP2 Energies <==================
	-----------------------------------------------------------
	 SCS Same-Spin Scale       =       0.3333333333333333 [-]
	 SCS Opposite-Spin Scale   =       1.2000000000000000 [-]
	 SCS Same-Spin Energy      =      -0.1558562947591689 [Eh]
	 SCS Opposite-Spin Energy  =      -1.7429397914730982 [Eh]
	 SCS Correlation Energy    =      -1.8987960862322670 [Eh]
	 SCS Total Energy          =    -643.9067279809535194 [Eh]
	-----------------------------------------------------------

  Dipole Moment: [D]
     X:    -2.1070      Y:    -0.0072      Z:     0.8901     Total:     2.2873

*** Psi4 exiting successfully. Buy a developer a beer!
