                               Psi4 1.4a3.dev225

  ==> Input File <==

--------------------------------------------------------------------------
#psi4
#
memory 32 gb

molecule  {
0 1
  I        2.3447600     0.0000010    -0.2524410
  C       -0.5542210    -0.0000040     0.7369510
  C       -2.5036070    -1.2253050    -0.0650320
  C       -2.5036000     1.2253100    -0.0650260
  C       -1.2095060     1.2097510     0.4687330
  C       -1.2095100    -1.2097530     0.4687280
  C       -3.0446399    -0.1747330    -0.2875412
  C        0.8217770    -0.0000070     1.3091860
  C       -3.2172620    -2.5291670    -0.3215690
  C       -3.2172620     2.5291680    -0.3215670
  H       -0.6945570     2.1508370     0.6613300
  H       -0.6945650    -2.1508430     0.6613200
  H       -4.1398900     0.0000070    -0.7462250
  H        1.0275050    -0.8925940     1.8992530
  H        1.0275050     0.8925750     1.8992610
  H       -3.9060370    -2.4424280    -1.1656010
  H       -3.8011950    -2.8333800     0.5532780
  H       -2.5084500    -3.3308180    -0.5430300
  H       -3.8015320     2.8331670     0.5531290
  H       -2.5084330     3.3309140    -0.5426230
  H       -3.9057300     2.4425370    -1.1658600
units angstrom
no_reorient  #important for SAPT in psi4, default
symmetry c1  #important for SAPT in psi4, default
}

set PROPERTIES_ORIGIN ["COM"]
properties('MP2/aug-cc-pvtz', properties = ['dipole'])
--------------------------------------------------------------------------

    Molecular point group: c1
  Charge       = 0
  Multiplicity = 1
  Basis Set: AUG-CC-PVTZ
    Blend: AUG-CC-PVTZ
  Basis Set: (AUG-CC-PVTZ AUX)
    Blend: AUG-CC-PVTZ-JKFIT + DEF2-UNIVERSAL-JKFIT

    Orbital Energies [Eh]
    ---------------------

    Doubly Occupied:

       1A    -11.290131     2A    -11.260182     3A    -11.252662
       4A    -11.235413     5A    -11.234913     6A    -11.232659
       7A    -11.227865     8A    -11.225875     9A    -11.219185
      10A     -7.705723    11A     -5.537145    12A     -5.527915
      13A     -5.527882    14A     -2.266356    15A     -2.261966
      16A     -2.261924    17A     -2.251716    18A     -2.251716
      19A     -1.180216    20A     -1.088910    21A     -1.056537
      22A     -0.970790    23A     -0.943501    24A     -0.934115
      25A     -0.848609    26A     -0.799508    27A     -0.776246
      28A     -0.675363    29A     -0.670624    30A     -0.613444
      31A     -0.590699    32A     -0.589809    33A     -0.577318
      34A     -0.575007    35A     -0.565616    36A     -0.548131
      37A     -0.529421    38A     -0.511746    39A     -0.501848
      40A     -0.455585    41A     -0.444111    42A     -0.363142
      43A     -0.356818    44A     -0.344516    45A     -0.308804

  @DF-RHF Final Energy:  -641.94706236699267

   => Energetics <=

    Nuclear Repulsion Energy =            616.8210573012935356
    One-Electron Energy =               -2208.3529145592560781
    Two-Electron Energy =                 949.5847948909699880
    Total Energy =                       -641.9470623669926681
  Basis Set: (AUG-CC-PVTZ AUX)
    Blend: AUG-CC-PVTZ-RI + DEF2-QZVPP-RI
    Molecular point group: c1

    Geometry (in Angstrom), charge = 0, multiplicity = 1:

       Center              X                  Y                   Z               Mass
    ------------   -----------------  -----------------  -----------------  -----------------
         I            2.044691073796     0.008524820620    -0.224467756370   126.904471900000
         C           -0.854289926204     0.008519820620     0.764924243630    12.000000000000
         C           -2.803675926204    -1.216781179380    -0.037058756370    12.000000000000
         C           -2.803668926204     1.233833820620    -0.037052756370    12.000000000000
         C           -1.509574926204     1.218274820620     0.496706243630    12.000000000000
         C           -1.509578926204    -1.201229179380     0.496701243630    12.000000000000
         C           -3.344708826204    -0.166209179380    -0.259567956370    12.000000000000
         C            0.521708073796     0.008516820620     1.337159243630    12.000000000000
         C           -3.517330926204    -2.520643179380    -0.293595756370    12.000000000000
         C           -3.517330926204     2.537691820620    -0.293593756370    12.000000000000
         H           -0.994625926204     2.159360820620     0.689303243630     1.007825032230
         H           -0.994633926204    -2.142319179380     0.689293243630     1.007825032230
         H           -4.439958926204     0.008530820620    -0.718251756370     1.007825032230
         H            0.727436073796    -0.884070179380     1.927226243630     1.007825032230
         H            0.727436073796     0.901098820620     1.927234243630     1.007825032230
         H           -4.206105926204    -2.433904179380    -1.137627756370     1.007825032230
         H           -4.101263926204    -2.824856179380     0.581251243630     1.007825032230
         H           -2.808518926204    -3.322294179380    -0.515056756370     1.007825032230
         H           -4.101600926204     2.841690820620     0.581102243630     1.007825032230
         H           -2.808501926204     3.339437820620    -0.514649756370     1.007825032230
         H           -4.205798926204     2.451060820620    -1.137886756370     1.007825032230

  Basis Set: AUG-CC-PVTZ
    Blend: AUG-CC-PVTZ
  Basis Set: (AUG-CC-PVTZ AUX)
    Blend: AUG-CC-PVTZ-JKFIT + DEF2-UNIVERSAL-JKFIT
	 Reference Energy          =    -641.9470623669926681 [Eh]
	 Singles Energy            =      -0.0000000000000000 [Eh]
	 Same-Spin Energy          =      -0.4671931287946868 [Eh]
	 Opposite-Spin Energy      =      -1.4541976427132366 [Eh]
	 Correlation Energy        =      -1.9213907715079235 [Eh]
	 Total Energy              =    -643.8684531385006267 [Eh]

	 ================> DF-SCS-MP2 Energies <==================
	-----------------------------------------------------------
	 SCS Same-Spin Scale       =       0.3333333333333333 [-]
	 SCS Opposite-Spin Scale   =       1.2000000000000000 [-]
	 SCS Same-Spin Energy      =      -0.1557310429315623 [Eh]
	 SCS Opposite-Spin Energy  =      -1.7450371712558839 [Eh]
	 SCS Correlation Energy    =      -1.9007682141874460 [Eh]
	 SCS Total Energy          =    -643.8478305811801192 [Eh]
	-----------------------------------------------------------

  Dipole Moment: [D]
     X:    -2.0282      Y:     0.1656      Z:     0.9183     Total:     2.2326

*** Psi4 exiting successfully. Buy a developer a beer!
