                               Psi4 1.4a3.dev225

  ==> Input File <==

--------------------------------------------------------------------------
#psi4
#
memory 32 gb

molecule  {
0 1
  I        2.3447600     0.0000010    -0.2524410
  C       -0.5542210    -0.0000040     0.7369510
  C       -2.5036070    -1.2253050    -0.0650320
  C       -2.5036000     1.2253100    -0.0650260
  C       -1.2095060     1.2097510     0.4687330
  C       -1.2095100    -1.2097530     0.4687280
  C       -3.1346270     0.0000030    -0.3245500
  C        0.8217770    -0.0000070     1.3091860
  C       -3.2172620    -2.5291670    -0.3215690
  C       -3.2172620     2.5291680    -0.3215670
  H       -0.6945570     2.1508370     0.6613300
  H       -0.6945650    -2.1508430     0.6613200
  H       -4.1398900     0.0000070    -0.7462250
  H        1.0275050    -0.8925940     1.8992530
  H        1.0275050     0.8925750     1.8992610
  H       -3.9060370    -2.4424280    -1.1656010
  H       -3.8011950    -2.8333800     0.5532780
  H       -2.5084500    -3.3308180    -0.5430300
  H       -3.8635581     2.8328158     0.5084808
  H       -2.5084330     3.3309140    -0.5426230
  H       -3.9057300     2.4425370    -1.1658600
units angstrom
no_reorient  #important for SAPT in psi4, default
symmetry c1  #important for SAPT in psi4, default
}

set PROPERTIES_ORIGIN ["COM"]
properties('MP2/aug-cc-pvtz', properties = ['dipole'])
--------------------------------------------------------------------------

    Molecular point group: c1
  Charge       = 0
  Multiplicity = 1
  Basis Set: AUG-CC-PVTZ
    Blend: AUG-CC-PVTZ
  Basis Set: (AUG-CC-PVTZ AUX)
    Blend: AUG-CC-PVTZ-JKFIT + DEF2-UNIVERSAL-JKFIT

    Orbital Energies [Eh]
    ---------------------

    Doubly Occupied:

       1A    -11.290407     2A    -11.254194     3A    -11.249592
       4A    -11.249328     5A    -11.233535     6A    -11.233488
       7A    -11.231511     8A    -11.228384     9A    -11.228122
      10A     -7.706226    11A     -5.537671    12A     -5.528392
      13A     -5.528381    14A     -2.266885    15A     -2.262471
      16A     -2.262447    17A     -2.252188    18A     -2.252188
      19A     -1.165353    20A     -1.073182    21A     -1.061054
      22A     -0.970091    23A     -0.938579    24A     -0.933295
      25A     -0.849241    26A     -0.791346    27A     -0.783474
      28A     -0.682570    29A     -0.667163    30A     -0.618392
      31A     -0.589591    32A     -0.584580    33A     -0.573187
      34A     -0.572255    35A     -0.564082    36A     -0.555275
      37A     -0.526205    38A     -0.511798    39A     -0.489015
      40A     -0.485756    41A     -0.444672    42A     -0.359494
      43A     -0.357246    44A     -0.325135    45A     -0.318956

  @DF-RHF Final Energy:  -642.00736278561715

   => Energetics <=

    Nuclear Repulsion Energy =            614.5662130959892693
    One-Electron Energy =               -2203.9743558713257698
    Two-Electron Energy =                 947.4007799897193536
    Total Energy =                       -642.0073627856171470
  Basis Set: (AUG-CC-PVTZ AUX)
    Blend: AUG-CC-PVTZ-RI + DEF2-QZVPP-RI
    Molecular point group: c1

    Geometry (in Angstrom), charge = 0, multiplicity = 1:

       Center              X                  Y                   Z               Mass
    ------------   -----------------  -----------------  -----------------  -----------------
         I            2.049334978486     0.000002224629    -0.222479455685   126.904471900000
         C           -0.849646021514    -0.000002775371     0.766912544315    12.000000000000
         C           -2.799032021514    -1.225303775371    -0.035070455685    12.000000000000
         C           -2.799025021514     1.225311224629    -0.035064455685    12.000000000000
         C           -1.504931021514     1.209752224629     0.498694544315    12.000000000000
         C           -1.504935021514    -1.209751775371     0.498689544315    12.000000000000
         C           -3.430052021514     0.000004224629    -0.294588455685    12.000000000000
         C            0.526351978486    -0.000005775371     1.339147544315    12.000000000000
         C           -3.512687021514    -2.529165775371    -0.291607455685    12.000000000000
         C           -3.512687021514     2.529169224629    -0.291605455685    12.000000000000
         H           -0.989982021514     2.150838224629     0.691291544315     1.007825032230
         H           -0.989990021514    -2.150841775371     0.691281544315     1.007825032230
         H           -4.435315021514     0.000008224629    -0.716263455685     1.007825032230
         H            0.732079978486    -0.892592775371     1.929214544315     1.007825032230
         H            0.732079978486     0.892576224629     1.929222544315     1.007825032230
         H           -4.201462021514    -2.442426775371    -1.135639455685     1.007825032230
         H           -4.096620021514    -2.833378775371     0.583239544315     1.007825032230
         H           -2.803875021514    -3.330816775371    -0.513068455685     1.007825032230
         H           -4.158983121514     2.832817024629     0.538442344315     1.007825032230
         H           -2.803858021514     3.330915224629    -0.512661455685     1.007825032230
         H           -4.201155021514     2.442538224629    -1.135898455685     1.007825032230

  Basis Set: AUG-CC-PVTZ
    Blend: AUG-CC-PVTZ
  Basis Set: (AUG-CC-PVTZ AUX)
    Blend: AUG-CC-PVTZ-JKFIT + DEF2-UNIVERSAL-JKFIT
	 Reference Energy          =    -642.0073627856171470 [Eh]
	 Singles Energy            =      -0.0000000000000000 [Eh]
	 Same-Spin Energy          =      -0.4675867032484095 [Eh]
	 Opposite-Spin Energy      =      -1.4525708428993120 [Eh]
	 Correlation Energy        =      -1.9201575461477216 [Eh]
	 Total Energy              =    -643.9275203317648675 [Eh]

	 ================> DF-SCS-MP2 Energies <==================
	-----------------------------------------------------------
	 SCS Same-Spin Scale       =       0.3333333333333333 [-]
	 SCS Opposite-Spin Scale   =       1.2000000000000000 [-]
	 SCS Same-Spin Energy      =      -0.1558622344161365 [Eh]
	 SCS Opposite-Spin Energy  =      -1.7430850114791745 [Eh]
	 SCS Correlation Energy    =      -1.8989472458953109 [Eh]
	 SCS Total Energy          =    -643.9063100315124757 [Eh]
	-----------------------------------------------------------

  Dipole Moment: [D]
     X:    -2.1164      Y:    -0.0160      Z:     0.8765     Total:     2.2908

*** Psi4 exiting successfully. Buy a developer a beer!
