                               Psi4 1.4a3.dev225

  ==> Input File <==

--------------------------------------------------------------------------
#psi4
#
memory 32 gb

molecule  {
0 1
  I        2.3447600     0.0000010    -0.2524410
  C       -0.5542210    -0.0000040     0.7369510
  C       -2.5036070    -1.2253050    -0.0650320
  C       -2.5036000     1.2253100    -0.0650260
  C       -1.2095060     1.2097510     0.4687330
  C       -1.2095100    -1.2097530     0.4687280
  C       -3.1346270     0.0000030    -0.3245500
  C        0.8078131    -0.0000071     1.3235042
  C       -3.2172620    -2.5291670    -0.3215690
  C       -3.2172620     2.5291680    -0.3215670
  H       -0.6945570     2.1508370     0.6613300
  H       -0.6945650    -2.1508430     0.6613200
  H       -4.1398900     0.0000070    -0.7462250
  H        1.0275050    -0.8925940     1.8992530
  H        1.0275050     0.8925750     1.8992610
  H       -3.9060370    -2.4424280    -1.1656010
  H       -3.8011950    -2.8333800     0.5532780
  H       -2.5084500    -3.3308180    -0.5430300
  H       -3.8015320     2.8331670     0.5531290
  H       -2.5084330     3.3309140    -0.5426230
  H       -3.9057300     2.4425370    -1.1658600
units angstrom
no_reorient  #important for SAPT in psi4, default
symmetry c1  #important for SAPT in psi4, default
}

set PROPERTIES_ORIGIN ["COM"]
properties('MP2/aug-cc-pvtz', properties = ['dipole'])
--------------------------------------------------------------------------

    Molecular point group: c1
  Charge       = 0
  Multiplicity = 1
  Basis Set: AUG-CC-PVTZ
    Blend: AUG-CC-PVTZ
  Basis Set: (AUG-CC-PVTZ AUX)
    Blend: AUG-CC-PVTZ-JKFIT + DEF2-UNIVERSAL-JKFIT

    Orbital Energies [Eh]
    ---------------------

    Doubly Occupied:

       1A    -11.291113     2A    -11.254248     3A    -11.249661
       4A    -11.249634     5A    -11.233868     6A    -11.233824
       7A    -11.231827     8A    -11.228591     9A    -11.228590
      10A     -7.704693    11A     -5.536065    12A     -5.526879
      13A     -5.526866    14A     -2.265179    15A     -2.260883
      16A     -2.260857    17A     -2.250700    18A     -2.250700
      19A     -1.166052    20A     -1.074442    21A     -1.061583
      22A     -0.969706    23A     -0.938713    24A     -0.933505
      25A     -0.848612    26A     -0.791613    27A     -0.784307
      28A     -0.682943    29A     -0.668420    30A     -0.619987
      31A     -0.591150    32A     -0.586281    33A     -0.573900
      34A     -0.573797    35A     -0.564735    36A     -0.556053
      37A     -0.526457    38A     -0.510634    39A     -0.490674
      40A     -0.485908    41A     -0.441796    42A     -0.358734
      43A     -0.356486    44A     -0.325299    45A     -0.318289

  @DF-RHF Final Energy:  -642.00790721687997

   => Energetics <=

    Nuclear Repulsion Energy =            614.4781005621795202
    One-Electron Energy =               -2203.8035016818234908
    Two-Electron Energy =                 947.3174939027641130
    Total Energy =                       -642.0079072168799712
  Basis Set: (AUG-CC-PVTZ AUX)
    Blend: AUG-CC-PVTZ-RI + DEF2-QZVPP-RI
    Molecular point group: c1

    Geometry (in Angstrom), charge = 0, multiplicity = 1:

       Center              X                  Y                   Z               Mass
    ------------   -----------------  -----------------  -----------------  -----------------
         I            2.049762049140     0.000000790638    -0.223360855300   126.904471900000
         C           -0.849218950860    -0.000004209362     0.766031144700    12.000000000000
         C           -2.798604950860    -1.225305209362    -0.035951855300    12.000000000000
         C           -2.798597950860     1.225309790638    -0.035945855300    12.000000000000
         C           -1.504503950860     1.209750790638     0.497813144700    12.000000000000
         C           -1.504507950860    -1.209753209362     0.497808144700    12.000000000000
         C           -3.429624950860     0.000002790638    -0.295469855300    12.000000000000
         C            0.512815149140    -0.000007309362     1.352584344700    12.000000000000
         C           -3.512259950860    -2.529167209362    -0.292488855300    12.000000000000
         C           -3.512259950860     2.529167790638    -0.292486855300    12.000000000000
         H           -0.989554950860     2.150836790638     0.690410144700     1.007825032230
         H           -0.989562950860    -2.150843209362     0.690400144700     1.007825032230
         H           -4.434887950860     0.000006790638    -0.717144855300     1.007825032230
         H            0.732507049140    -0.892594209362     1.928333144700     1.007825032230
         H            0.732507049140     0.892574790638     1.928341144700     1.007825032230
         H           -4.201034950860    -2.442428209362    -1.136520855300     1.007825032230
         H           -4.096192950860    -2.833380209362     0.582358144700     1.007825032230
         H           -2.803447950860    -3.330818209362    -0.513949855300     1.007825032230
         H           -4.096529950860     2.833166790638     0.582209144700     1.007825032230
         H           -2.803430950860     3.330913790638    -0.513542855300     1.007825032230
         H           -4.200727950860     2.442536790638    -1.136779855300     1.007825032230

  Basis Set: AUG-CC-PVTZ
    Blend: AUG-CC-PVTZ
  Basis Set: (AUG-CC-PVTZ AUX)
    Blend: AUG-CC-PVTZ-JKFIT + DEF2-UNIVERSAL-JKFIT
	 Reference Energy          =    -642.0079072168799712 [Eh]
	 Singles Energy            =      -0.0000000000000000 [Eh]
	 Same-Spin Energy          =      -0.4675212115736818 [Eh]
	 Opposite-Spin Energy      =      -1.4524058008781373 [Eh]
	 Correlation Energy        =      -1.9199270124518191 [Eh]
	 Total Energy              =    -643.9278342293317792 [Eh]

	 ================> DF-SCS-MP2 Energies <==================
	-----------------------------------------------------------
	 SCS Same-Spin Scale       =       0.3333333333333333 [-]
	 SCS Opposite-Spin Scale   =       1.2000000000000000 [-]
	 SCS Same-Spin Energy      =      -0.1558404038578939 [Eh]
	 SCS Opposite-Spin Energy  =      -1.7428869610537647 [Eh]
	 SCS Correlation Energy    =      -1.8987273649116587 [Eh]
	 SCS Total Energy          =    -643.9066345817916499 [Eh]
	-----------------------------------------------------------

  Dipole Moment: [D]
     X:    -2.1722      Y:    -0.0000      Z:     0.9154     Total:     2.3572

*** Psi4 exiting successfully. Buy a developer a beer!
