                               Psi4 1.4a3.dev225

  ==> Input File <==

--------------------------------------------------------------------------
#psi4
#
memory 32 gb

molecule  {
0 1
  I        2.3447600     0.0000010    -0.2524410
  C       -0.5542210    -0.0000040     0.7369510
  C       -2.5036070    -1.2253050    -0.0650320
  C       -2.5029719     1.2497338    -0.0652776
  C       -1.2095060     1.2097510     0.4687330
  C       -1.2095100    -1.2097530     0.4687280
  C       -3.1346270     0.0000030    -0.3245500
  C        0.8217770    -0.0000070     1.3091860
  C       -3.2172620    -2.5291670    -0.3215690
  C       -3.2172620     2.5291680    -0.3215670
  H       -0.6945570     2.1508370     0.6613300
  H       -0.6945650    -2.1508430     0.6613200
  H       -4.1398900     0.0000070    -0.7462250
  H        1.0275050    -0.8925940     1.8992530
  H        1.0275050     0.8925750     1.8992610
  H       -3.9060370    -2.4424280    -1.1656010
  H       -3.8011950    -2.8333800     0.5532780
  H       -2.5084500    -3.3308180    -0.5430300
  H       -3.8015320     2.8331670     0.5531290
  H       -2.5084330     3.3309140    -0.5426230
  H       -3.9057300     2.4425370    -1.1658600
units angstrom
no_reorient  #important for SAPT in psi4, default
symmetry c1  #important for SAPT in psi4, default
}

set PROPERTIES_ORIGIN ["COM"]
properties('MP2/aug-cc-pvtz', properties = ['dipole'])
--------------------------------------------------------------------------

    Molecular point group: c1
  Charge       = 0
  Multiplicity = 1
  Basis Set: AUG-CC-PVTZ
    Blend: AUG-CC-PVTZ
  Basis Set: (AUG-CC-PVTZ AUX)
    Blend: AUG-CC-PVTZ-JKFIT + DEF2-UNIVERSAL-JKFIT

    Orbital Energies [Eh]
    ---------------------

    Doubly Occupied:

       1A    -11.290393     2A    -11.254187     3A    -11.250799
       4A    -11.249008     5A    -11.233528     6A    -11.233336
       7A    -11.233270     8A    -11.228206     9A    -11.228031
      10A     -7.706050    11A     -5.537493    12A     -5.528217
      13A     -5.528207    14A     -2.266706    15A     -2.262293
      16A     -2.262270    17A     -2.252015    18A     -2.252015
      19A     -1.163893    20A     -1.072666    21A     -1.063096
      22A     -0.970652    23A     -0.937298    24A     -0.933740
      25A     -0.848981    26A     -0.789669    27A     -0.783614
      28A     -0.681224    29A     -0.666521    30A     -0.619387
      31A     -0.589315    32A     -0.586838    33A     -0.574634
      34A     -0.572566    35A     -0.564704    36A     -0.556217
      37A     -0.525660    38A     -0.511074    39A     -0.491460
      40A     -0.483717    41A     -0.443388    42A     -0.359161
      43A     -0.357085    44A     -0.325015    45A     -0.317011

  @DF-RHF Final Energy:  -642.00654868040692

   => Energetics <=

    Nuclear Repulsion Energy =            614.4003753007222031
    One-Electron Energy =               -2203.6446284575486061
    Two-Electron Energy =                 947.2377044764193670
    Total Energy =                       -642.0065486804069224
  Basis Set: (AUG-CC-PVTZ AUX)
    Blend: AUG-CC-PVTZ-RI + DEF2-QZVPP-RI
    Molecular point group: c1

    Geometry (in Angstrom), charge = 0, multiplicity = 1:

       Center              X                  Y                   Z               Mass
    ------------   -----------------  -----------------  -----------------  -----------------
         I            2.049050216909    -0.001190664901    -0.222650106038   126.904471900000
         C           -0.849930783091    -0.001195664901     0.766741893962    12.000000000000
         C           -2.799316783091    -1.226496664901    -0.035241106038    12.000000000000
         C           -2.798681683091     1.248542135099    -0.035486706038    12.000000000000
         C           -1.505215783091     1.208559335099     0.498523893962    12.000000000000
         C           -1.505219783091    -1.210944664901     0.498518893962    12.000000000000
         C           -3.430336783091    -0.001188664901    -0.294759106038    12.000000000000
         C            0.526067216909    -0.001198664901     1.338976893962    12.000000000000
         C           -3.512971783091    -2.530358664901    -0.291778106038    12.000000000000
         C           -3.512971783091     2.527976335099    -0.291776106038    12.000000000000
         H           -0.990266783091     2.149645335099     0.691120893962     1.007825032230
         H           -0.990274783091    -2.152034664901     0.691110893962     1.007825032230
         H           -4.435599783091    -0.001184664901    -0.716434106038     1.007825032230
         H            0.731795216909    -0.893785664901     1.929043893962     1.007825032230
         H            0.731795216909     0.891383335099     1.929051893962     1.007825032230
         H           -4.201746783091    -2.443619664901    -1.135810106038     1.007825032230
         H           -4.096904783091    -2.834571664901     0.583068893962     1.007825032230
         H           -2.804159783091    -3.332009664901    -0.513239106038     1.007825032230
         H           -4.097241783091     2.831975335099     0.582919893962     1.007825032230
         H           -2.804142783091     3.329722335099    -0.512832106038     1.007825032230
         H           -4.201439783091     2.441345335099    -1.136069106038     1.007825032230

  Basis Set: AUG-CC-PVTZ
    Blend: AUG-CC-PVTZ
  Basis Set: (AUG-CC-PVTZ AUX)
    Blend: AUG-CC-PVTZ-JKFIT + DEF2-UNIVERSAL-JKFIT
	 Reference Energy          =    -642.0065486804069224 [Eh]
	 Singles Energy            =      -0.0000000000000000 [Eh]
	 Same-Spin Energy          =      -0.4677886594555145 [Eh]
	 Opposite-Spin Energy      =      -1.4529397306785814 [Eh]
	 Correlation Energy        =      -1.9207283901340959 [Eh]
	 Total Energy              =    -643.9272770705409812 [Eh]

	 ================> DF-SCS-MP2 Energies <==================
	-----------------------------------------------------------
	 SCS Same-Spin Scale       =       0.3333333333333333 [-]
	 SCS Opposite-Spin Scale   =       1.2000000000000000 [-]
	 SCS Same-Spin Energy      =      -0.1559295531518382 [Eh]
	 SCS Opposite-Spin Energy  =      -1.7435276768142975 [Eh]
	 SCS Correlation Energy    =      -1.8994572299661356 [Eh]
	 SCS Total Energy          =    -643.9060059103730964 [Eh]
	-----------------------------------------------------------

  Dipole Moment: [D]
     X:    -2.1249      Y:     0.0276      Z:     0.8807     Total:     2.3004

*** Psi4 exiting successfully. Buy a developer a beer!
