                               Psi4 1.4a3.dev225

  ==> Input File <==

--------------------------------------------------------------------------
#psi4
#
memory 32 gb

molecule  {
0 1
  I        2.3447600     0.0000010    -0.2524410
  C       -0.5542210    -0.0000040     0.7369510
  C       -2.5036070    -1.2253050    -0.0650320
  C       -2.5036000     1.2253100    -0.0650260
  C       -1.1910181     1.2095287     0.4763585
  C       -1.2095100    -1.2097530     0.4687280
  C       -3.1346270     0.0000030    -0.3245500
  C        0.8217770    -0.0000070     1.3091860
  C       -3.2172620    -2.5291670    -0.3215690
  C       -3.2172620     2.5291680    -0.3215670
  H       -0.6945570     2.1508370     0.6613300
  H       -0.6945650    -2.1508430     0.6613200
  H       -4.1398900     0.0000070    -0.7462250
  H        1.0275050    -0.8925940     1.8992530
  H        1.0275050     0.8925750     1.8992610
  H       -3.9060370    -2.4424280    -1.1656010
  H       -3.8011950    -2.8333800     0.5532780
  H       -2.5084500    -3.3308180    -0.5430300
  H       -3.8015320     2.8331670     0.5531290
  H       -2.5084330     3.3309140    -0.5426230
  H       -3.9057300     2.4425370    -1.1658600
units angstrom
no_reorient  #important for SAPT in psi4, default
symmetry c1  #important for SAPT in psi4, default
}

set PROPERTIES_ORIGIN ["COM"]
properties('MP2/aug-cc-pvtz', properties = ['dipole'])
--------------------------------------------------------------------------

    Molecular point group: c1
  Charge       = 0
  Multiplicity = 1
  Basis Set: AUG-CC-PVTZ
    Blend: AUG-CC-PVTZ
  Basis Set: (AUG-CC-PVTZ AUX)
    Blend: AUG-CC-PVTZ-JKFIT + DEF2-UNIVERSAL-JKFIT

    Orbital Energies [Eh]
    ---------------------

    Doubly Occupied:

       1A    -11.289801     2A    -11.253187     3A    -11.251654
       4A    -11.249558     5A    -11.233465     6A    -11.232929
       7A    -11.231200     8A    -11.228650     9A    -11.228392
      10A     -7.705945    11A     -5.537382    12A     -5.528118
      13A     -5.528105    14A     -2.266594    15A     -2.262186
      16A     -2.262161    17A     -2.251918    18A     -2.251918
      19A     -1.164646    20A     -1.073813    21A     -1.059785
      22A     -0.969873    23A     -0.938762    24A     -0.933258
      25A     -0.848518    26A     -0.791628    27A     -0.782113
      28A     -0.683409    29A     -0.666713    30A     -0.617604
      31A     -0.588546    32A     -0.585852    33A     -0.574340
      34A     -0.573416    35A     -0.564283    36A     -0.556176
      37A     -0.526072    38A     -0.511241    39A     -0.487662
      40A     -0.487279    41A     -0.443824    42A     -0.359295
      43A     -0.356985    44A     -0.323047    45A     -0.320115

  @DF-RHF Final Energy:  -642.00735046499551

   => Energetics <=

    Nuclear Repulsion Energy =            614.5588560192260275
    One-Electron Energy =               -2203.9695785409980999
    Two-Electron Energy =                 947.4033720567766750
    Total Energy =                       -642.0073504649955112
  Basis Set: (AUG-CC-PVTZ AUX)
    Blend: AUG-CC-PVTZ-RI + DEF2-QZVPP-RI
    Molecular point group: c1

    Geometry (in Angstrom), charge = 0, multiplicity = 1:

       Center              X                  Y                   Z               Mass
    ------------   -----------------  -----------------  -----------------  -----------------
         I            2.048178973675     0.000011630079    -0.223034369584   126.904471900000
         C           -0.850802026325     0.000006630079     0.766357630416    12.000000000000
         C           -2.800188026325    -1.225294369921    -0.035625369584    12.000000000000
         C           -2.800181026325     1.225320630079    -0.035619369584    12.000000000000
         C           -1.487599126325     1.209539330079     0.505765130416    12.000000000000
         C           -1.506091026325    -1.209742369921     0.498134630416    12.000000000000
         C           -3.431208026325     0.000013630079    -0.295143369584    12.000000000000
         C            0.525195973675     0.000003630079     1.338592630416    12.000000000000
         C           -3.513843026325    -2.529156369921    -0.292162369584    12.000000000000
         C           -3.513843026325     2.529178630079    -0.292160369584    12.000000000000
         H           -0.991138026325     2.150847630079     0.690736630416     1.007825032230
         H           -0.991146026325    -2.150832369921     0.690726630416     1.007825032230
         H           -4.436471026325     0.000017630079    -0.716818369584     1.007825032230
         H            0.730923973675    -0.892583369921     1.928659630416     1.007825032230
         H            0.730923973675     0.892585630079     1.928667630416     1.007825032230
         H           -4.202618026325    -2.442417369921    -1.136194369584     1.007825032230
         H           -4.097776026325    -2.833369369921     0.582684630416     1.007825032230
         H           -2.805031026325    -3.330807369921    -0.513623369584     1.007825032230
         H           -4.098113026325     2.833177630079     0.582535630416     1.007825032230
         H           -2.805014026325     3.330924630079    -0.513216369584     1.007825032230
         H           -4.202311026325     2.442547630079    -1.136453369584     1.007825032230

  Basis Set: AUG-CC-PVTZ
    Blend: AUG-CC-PVTZ
  Basis Set: (AUG-CC-PVTZ AUX)
    Blend: AUG-CC-PVTZ-JKFIT + DEF2-UNIVERSAL-JKFIT
	 Reference Energy          =    -642.0073504649955112 [Eh]
	 Singles Energy            =      -0.0000000000000000 [Eh]
	 Same-Spin Energy          =      -0.4675297819962746 [Eh]
	 Opposite-Spin Energy      =      -1.4525826370151584 [Eh]
	 Correlation Energy        =      -1.9201124190114331 [Eh]
	 Total Energy              =    -643.9274628840068999 [Eh]

	 ================> DF-SCS-MP2 Energies <==================
	-----------------------------------------------------------
	 SCS Same-Spin Scale       =       0.3333333333333333 [-]
	 SCS Opposite-Spin Scale   =       1.2000000000000000 [-]
	 SCS Same-Spin Energy      =      -0.1558432606654249 [Eh]
	 SCS Opposite-Spin Energy  =      -1.7430991644181901 [Eh]
	 SCS Correlation Energy    =      -1.8989424250836149 [Eh]
	 SCS Total Energy          =    -643.9062928900791576 [Eh]
	-----------------------------------------------------------

  Dipole Moment: [D]
     X:    -2.1132      Y:     0.0117      Z:     0.8849     Total:     2.2910

*** Psi4 exiting successfully. Buy a developer a beer!
