                               Psi4 1.4a3.dev225

  ==> Input File <==

--------------------------------------------------------------------------
#psi4
#
memory 32 gb

molecule  {
0 1
  I        2.3447600     0.0000010    -0.2524410
  C       -0.5542210    -0.0000040     0.7369510
  C       -2.5036070    -1.2253050    -0.0650320
  C       -2.5036000     1.2253100    -0.0650260
  C       -1.2095060     1.2097510     0.4687330
  C       -1.2095100    -1.2097530     0.4687280
  C       -3.1346270     0.0000030    -0.3245500
  C        0.8217770    -0.0000070     1.3091860
  C       -3.2409185    -2.5723880    -0.3300728
  C       -3.2172620     2.5291680    -0.3215670
  H       -0.6945570     2.1508370     0.6613300
  H       -0.6945650    -2.1508430     0.6613200
  H       -4.1398900     0.0000070    -0.7462250
  H        1.0275050    -0.8925940     1.8992530
  H        1.0275050     0.8925750     1.8992610
  H       -3.9060370    -2.4424280    -1.1656010
  H       -3.8011950    -2.8333800     0.5532780
  H       -2.5084500    -3.3308180    -0.5430300
  H       -3.8015320     2.8331670     0.5531290
  H       -2.5084330     3.3309140    -0.5426230
  H       -3.9057300     2.4425370    -1.1658600
units angstrom
no_reorient  #important for SAPT in psi4, default
symmetry c1  #important for SAPT in psi4, default
}

set PROPERTIES_ORIGIN ["COM"]
properties('MP2/aug-cc-pvtz', properties = ['dipole'])
--------------------------------------------------------------------------

    Molecular point group: c1
  Charge       = 0
  Multiplicity = 1
  Basis Set: AUG-CC-PVTZ
    Blend: AUG-CC-PVTZ
  Basis Set: (AUG-CC-PVTZ AUX)
    Blend: AUG-CC-PVTZ-JKFIT + DEF2-UNIVERSAL-JKFIT

    Orbital Energies [Eh]
    ---------------------

    Doubly Occupied:

       1A    -11.290258     2A    -11.253982     3A    -11.251188
       4A    -11.249100     5A    -11.233192     6A    -11.233076
       7A    -11.231220     8A    -11.228194     9A    -11.227156
      10A     -7.706097    11A     -5.537541    12A     -5.528264
      13A     -5.528254    14A     -2.266754    15A     -2.262341
      16A     -2.262317    17A     -2.252062    18A     -2.252061
      19A     -1.164026    20A     -1.072045    21A     -1.057125
      22A     -0.969603    23A     -0.939185    24A     -0.933578
      25A     -0.848946    26A     -0.790941    27A     -0.782656
      28A     -0.682036    29A     -0.666149    30A     -0.614582
      31A     -0.588906    32A     -0.588592    33A     -0.576198
      34A     -0.571317    35A     -0.560935    36A     -0.559199
      37A     -0.529867    38A     -0.512027    39A     -0.489486
      40A     -0.479009    41A     -0.445258    42A     -0.359384
      43A     -0.357144    44A     -0.325460    45A     -0.318915

  @DF-RHF Final Energy:  -642.00624400732625

   => Energetics <=

    Nuclear Repulsion Energy =            613.7361898726546769
    One-Electron Energy =               -2202.3336197730623098
    Two-Electron Energy =                 946.5911858930813878
    Total Energy =                       -642.0062440073262451
  Basis Set: (AUG-CC-PVTZ AUX)
    Blend: AUG-CC-PVTZ-RI + DEF2-QZVPP-RI
    Molecular point group: c1

    Geometry (in Angstrom), charge = 0, multiplicity = 1:

       Center              X                  Y                   Z               Mass
    ------------   -----------------  -----------------  -----------------  -----------------
         I            2.050234877065     0.002109208241    -0.222247544228   126.904471900000
         C           -0.848746122935     0.002104208241     0.767144455772    12.000000000000
         C           -2.798132122935    -1.223196791759    -0.034838544228    12.000000000000
         C           -2.798125122935     1.227418208241    -0.034832544228    12.000000000000
         C           -1.504031122935     1.211859208241     0.498926455772    12.000000000000
         C           -1.504035122935    -1.207644791759     0.498921455772    12.000000000000
         C           -3.429152122935     0.002111208241    -0.294356544228    12.000000000000
         C            0.527251877065     0.002101208241     1.339379455772    12.000000000000
         C           -3.535443622935    -2.570279791759    -0.299879344228    12.000000000000
         C           -3.511787122935     2.531276208241    -0.291373544228    12.000000000000
         H           -0.989082122935     2.152945208241     0.691523455772     1.007825032230
         H           -0.989090122935    -2.148734791759     0.691513455772     1.007825032230
         H           -4.434415122935     0.002115208241    -0.716031544228     1.007825032230
         H            0.732979877065    -0.890485791759     1.929446455772     1.007825032230
         H            0.732979877065     0.894683208241     1.929454455772     1.007825032230
         H           -4.200562122935    -2.440319791759    -1.135407544228     1.007825032230
         H           -4.095720122935    -2.831271791759     0.583471455772     1.007825032230
         H           -2.802975122935    -3.328709791759    -0.512836544228     1.007825032230
         H           -4.096057122935     2.835275208241     0.583322455772     1.007825032230
         H           -2.802958122935     3.333022208241    -0.512429544228     1.007825032230
         H           -4.200255122935     2.444645208241    -1.135666544228     1.007825032230

  Basis Set: AUG-CC-PVTZ
    Blend: AUG-CC-PVTZ
  Basis Set: (AUG-CC-PVTZ AUX)
    Blend: AUG-CC-PVTZ-JKFIT + DEF2-UNIVERSAL-JKFIT
	 Reference Energy          =    -642.0062440073262451 [Eh]
	 Singles Energy            =      -0.0000000000000000 [Eh]
	 Same-Spin Energy          =      -0.4672523470487383 [Eh]
	 Opposite-Spin Energy      =      -1.4523717016929838 [Eh]
	 Correlation Energy        =      -1.9196240487417220 [Eh]
	 Total Energy              =    -643.9258680560679977 [Eh]

	 ================> DF-SCS-MP2 Energies <==================
	-----------------------------------------------------------
	 SCS Same-Spin Scale       =       0.3333333333333333 [-]
	 SCS Opposite-Spin Scale   =       1.2000000000000000 [-]
	 SCS Same-Spin Energy      =      -0.1557507823495794 [Eh]
	 SCS Opposite-Spin Energy  =      -1.7428460420315806 [Eh]
	 SCS Correlation Energy    =      -1.8985968243811600 [Eh]
	 SCS Total Energy          =    -643.9048408317073608 [Eh]
	-----------------------------------------------------------

  Dipole Moment: [D]
     X:    -2.0974      Y:     0.0060      Z:     0.8856     Total:     2.2767

*** Psi4 exiting successfully. Buy a developer a beer!
