                               Psi4 1.4a3.dev225

  ==> Input File <==

--------------------------------------------------------------------------
#psi4
#
memory 32 gb

molecule  {
0 1
  I        2.3447600     0.0000010    -0.2524410
  C       -0.5542210    -0.0000040     0.7369510
  C       -2.5036070    -1.2253050    -0.0650320
  C       -2.4990920     1.0789280    -0.0601085
  C       -1.2095060     1.2097510     0.4687330
  C       -1.2095100    -1.2097530     0.4687280
  C       -3.1346270     0.0000030    -0.3245500
  C        0.8217770    -0.0000070     1.3091860
  C       -3.2172620    -2.5291670    -0.3215690
  C       -3.2172620     2.5291680    -0.3215670
  H       -0.6945570     2.1508370     0.6613300
  H       -0.6945650    -2.1508430     0.6613200
  H       -4.1398900     0.0000070    -0.7462250
  H        1.0275050    -0.8925940     1.8992530
  H        1.0275050     0.8925750     1.8992610
  H       -3.9060370    -2.4424280    -1.1656010
  H       -3.8011950    -2.8333800     0.5532780
  H       -2.5084500    -3.3308180    -0.5430300
  H       -3.8015320     2.8331670     0.5531290
  H       -2.5084330     3.3309140    -0.5426230
  H       -3.9057300     2.4425370    -1.1658600
units angstrom
no_reorient  #important for SAPT in psi4, default
symmetry c1  #important for SAPT in psi4, default
}

set PROPERTIES_ORIGIN ["COM"]
properties('MP2/aug-cc-pvtz', properties = ['dipole'])
--------------------------------------------------------------------------

    Molecular point group: c1
  Charge       = 0
  Multiplicity = 1
  Basis Set: AUG-CC-PVTZ
    Blend: AUG-CC-PVTZ
  Basis Set: (AUG-CC-PVTZ AUX)
    Blend: AUG-CC-PVTZ-JKFIT + DEF2-UNIVERSAL-JKFIT

    Orbital Energies [Eh]
    ---------------------

    Doubly Occupied:

       1A    -11.290100     2A    -11.254171     3A    -11.250949
       4A    -11.240429     5A    -11.233762     6A    -11.231549
       7A    -11.228951     8A    -11.228534     9A    -11.218005
      10A     -7.707047    11A     -5.538510    12A     -5.529205
      13A     -5.529188    14A     -2.267723    15A     -2.263302
      16A     -2.263273    17A     -2.252984    18A     -2.252984
      19A     -1.176736    20A     -1.079365    21A     -1.052953
      22A     -0.968919    23A     -0.946493    24A     -0.925252
      25A     -0.850402    26A     -0.798336    27A     -0.778696
      28A     -0.689696    29A     -0.671170    30A     -0.612251
      31A     -0.587224    32A     -0.585359    33A     -0.583757
      34A     -0.565080    35A     -0.556913    36A     -0.552842
      37A     -0.527980    38A     -0.515791    39A     -0.499475
      40A     -0.456850    41A     -0.447503    42A     -0.361861
      43A     -0.357920    44A     -0.334471    45A     -0.320429

  @DF-RHF Final Energy:  -641.98418815658749

   => Energetics <=

    Nuclear Repulsion Energy =            616.2815974137196235
    One-Electron Energy =               -2207.3627891072733291
    Two-Electron Energy =                 949.0970035369660991
    Total Energy =                       -641.9841881565874928
  Basis Set: (AUG-CC-PVTZ AUX)
    Blend: AUG-CC-PVTZ-RI + DEF2-QZVPP-RI
    Molecular point group: c1

    Geometry (in Angstrom), charge = 0, multiplicity = 1:

       Center              X                  Y                   Z               Mass
    ------------   -----------------  -----------------  -----------------  -----------------
         I            2.048860946221     0.007141645519    -0.222902266947   126.904471900000
         C           -0.850120053779     0.007136645519     0.766489733053    12.000000000000
         C           -2.799506053779    -1.218164354481    -0.035493266947    12.000000000000
         C           -2.794991053779     1.086068645519    -0.030569766947    12.000000000000
         C           -1.505405053779     1.216891645519     0.498271733053    12.000000000000
         C           -1.505409053779    -1.202612354481     0.498266733053    12.000000000000
         C           -3.430526053779     0.007143645519    -0.295011266947    12.000000000000
         C            0.525877946221     0.007133645519     1.338724733053    12.000000000000
         C           -3.513161053779    -2.522026354481    -0.292030266947    12.000000000000
         C           -3.513161053779     2.536308645519    -0.292028266947    12.000000000000
         H           -0.990456053779     2.157977645519     0.690868733053     1.007825032230
         H           -0.990464053779    -2.143702354481     0.690858733053     1.007825032230
         H           -4.435789053779     0.007147645519    -0.716686266947     1.007825032230
         H            0.731605946221    -0.885453354481     1.928791733053     1.007825032230
         H            0.731605946221     0.899715645519     1.928799733053     1.007825032230
         H           -4.201936053779    -2.435287354481    -1.136062266947     1.007825032230
         H           -4.097094053779    -2.826239354481     0.582816733053     1.007825032230
         H           -2.804349053779    -3.323677354481    -0.513491266947     1.007825032230
         H           -4.097431053779     2.840307645519     0.582667733053     1.007825032230
         H           -2.804332053779     3.338054645519    -0.513084266947     1.007825032230
         H           -4.201629053779     2.449677645519    -1.136321266947     1.007825032230

  Basis Set: AUG-CC-PVTZ
    Blend: AUG-CC-PVTZ
  Basis Set: (AUG-CC-PVTZ AUX)
    Blend: AUG-CC-PVTZ-JKFIT + DEF2-UNIVERSAL-JKFIT
	 Reference Energy          =    -641.9841881565874928 [Eh]
	 Singles Energy            =      -0.0000000000000000 [Eh]
	 Same-Spin Energy          =      -0.4669703326239363 [Eh]
	 Opposite-Spin Energy      =      -1.4522525836360090 [Eh]
	 Correlation Energy        =      -1.9192229162599452 [Eh]
	 Total Energy              =    -643.9034110728474616 [Eh]

	 ================> DF-SCS-MP2 Energies <==================
	-----------------------------------------------------------
	 SCS Same-Spin Scale       =       0.3333333333333333 [-]
	 SCS Opposite-Spin Scale   =       1.2000000000000000 [-]
	 SCS Same-Spin Energy      =      -0.1556567775413121 [Eh]
	 SCS Opposite-Spin Energy  =      -1.7427031003632107 [Eh]
	 SCS Correlation Energy    =      -1.8983598779045228 [Eh]
	 SCS Total Energy          =    -643.8825480344920607 [Eh]
	-----------------------------------------------------------

  Dipole Moment: [D]
     X:    -1.9460      Y:    -0.1781      Z:     0.9167     Total:     2.1585

*** Psi4 exiting successfully. Buy a developer a beer!
