                               Psi4 1.4a3.dev225

  ==> Input File <==

--------------------------------------------------------------------------
#psi4
#
memory 32 gb

molecule  {
0 1
  I        2.3447600     0.0000010    -0.2524410
  C       -0.5542210    -0.0000040     0.7369510
  C       -2.5036070    -1.2253050    -0.0650320
  C       -2.5036000     1.2253100    -0.0650260
  C       -1.2095060     1.2097510     0.4687330
  C       -1.2095100    -1.2097530     0.4687280
  C       -3.1571238     0.0436870    -0.3338022
  C        0.8217770    -0.0000070     1.3091860
  C       -3.2172620    -2.5291670    -0.3215690
  C       -3.2172620     2.5291680    -0.3215670
  H       -0.6945570     2.1508370     0.6613300
  H       -0.6945650    -2.1508430     0.6613200
  H       -4.1398900     0.0000070    -0.7462250
  H        1.0275050    -0.8925940     1.8992530
  H        1.0275050     0.8925750     1.8992610
  H       -3.9060370    -2.4424280    -1.1656010
  H       -3.8011950    -2.8333800     0.5532780
  H       -2.5084500    -3.3308180    -0.5430300
  H       -3.8015320     2.8331670     0.5531290
  H       -2.5084330     3.3309140    -0.5426230
  H       -3.9057300     2.4425370    -1.1658600
units angstrom
no_reorient  #important for SAPT in psi4, default
symmetry c1  #important for SAPT in psi4, default
}

set PROPERTIES_ORIGIN ["COM"]
properties('MP2/aug-cc-pvtz', properties = ['dipole'])
--------------------------------------------------------------------------

    Molecular point group: c1
  Charge       = 0
  Multiplicity = 1
  Basis Set: AUG-CC-PVTZ
    Blend: AUG-CC-PVTZ
  Basis Set: (AUG-CC-PVTZ AUX)
    Blend: AUG-CC-PVTZ-JKFIT + DEF2-UNIVERSAL-JKFIT

    Orbital Energies [Eh]
    ---------------------

    Doubly Occupied:

       1A    -11.290507     2A    -11.254806     3A    -11.254712
       4A    -11.246262     5A    -11.233401     6A    -11.232835
       7A    -11.231349     8A    -11.229025     9A    -11.226515
      10A     -7.706423    11A     -5.537879    12A     -5.528583
      13A     -5.528571    14A     -2.267092    15A     -2.262672
      16A     -2.262649    17A     -2.252372    18A     -2.252372
      19A     -1.163615    20A     -1.073708    21A     -1.059527
      22A     -0.970118    23A     -0.937863    24A     -0.932821
      25A     -0.849879    26A     -0.788193    27A     -0.784016
      28A     -0.684835    29A     -0.666154    30A     -0.619223
      31A     -0.588705    32A     -0.585338    33A     -0.573447
      34A     -0.572891    35A     -0.563869    36A     -0.557842
      37A     -0.525362    38A     -0.512624    39A     -0.492993
      40A     -0.478898    41A     -0.443689    42A     -0.359560
      43A     -0.357380    44A     -0.326930    45A     -0.315973

  @DF-RHF Final Energy:  -642.00473618725164

   => Energetics <=

    Nuclear Repulsion Energy =            614.2023410838472728
    One-Electron Energy =               -2203.2471995632959079
    Two-Electron Energy =                 947.0401222921968838
    Total Energy =                       -642.0047361872516376
  Basis Set: (AUG-CC-PVTZ AUX)
    Blend: AUG-CC-PVTZ-RI + DEF2-QZVPP-RI
    Molecular point group: c1

    Geometry (in Angstrom), charge = 0, multiplicity = 1:

       Center              X                  Y                   Z               Mass
    ------------   -----------------  -----------------  -----------------  -----------------
         I            2.050178304159    -0.002130222955    -0.222211035508   126.904471900000
         C           -0.848802695841    -0.002135222955     0.767180964492    12.000000000000
         C           -2.798188695841    -1.227436222955    -0.034802035508    12.000000000000
         C           -2.798181695841     1.223178777045    -0.034796035508    12.000000000000
         C           -1.504087695841     1.207619777045     0.498962964492    12.000000000000
         C           -1.504091695841    -1.211884222955     0.498957964492    12.000000000000
         C           -3.451705495841     0.041555777045    -0.303572235508    12.000000000000
         C            0.527195304159    -0.002138222955     1.339415964492    12.000000000000
         C           -3.511843695841    -2.531298222955    -0.291339035508    12.000000000000
         C           -3.511843695841     2.527036777045    -0.291337035508    12.000000000000
         H           -0.989138695841     2.148705777045     0.691559964492     1.007825032230
         H           -0.989146695841    -2.152974222955     0.691549964492     1.007825032230
         H           -4.434471695841    -0.002124222955    -0.715995035508     1.007825032230
         H            0.732923304159    -0.894725222955     1.929482964492     1.007825032230
         H            0.732923304159     0.890443777045     1.929490964492     1.007825032230
         H           -4.200618695841    -2.444559222955    -1.135371035508     1.007825032230
         H           -4.095776695841    -2.835511222955     0.583507964492     1.007825032230
         H           -2.803031695841    -3.332949222955    -0.512800035508     1.007825032230
         H           -4.096113695841     2.831035777045     0.583358964492     1.007825032230
         H           -2.803014695841     3.328782777045    -0.512393035508     1.007825032230
         H           -4.200311695841     2.440405777045    -1.135630035508     1.007825032230

  Basis Set: AUG-CC-PVTZ
    Blend: AUG-CC-PVTZ
  Basis Set: (AUG-CC-PVTZ AUX)
    Blend: AUG-CC-PVTZ-JKFIT + DEF2-UNIVERSAL-JKFIT
	 Reference Energy          =    -642.0047361872516376 [Eh]
	 Singles Energy            =      -0.0000000000000000 [Eh]
	 Same-Spin Energy          =      -0.4674744679763415 [Eh]
	 Opposite-Spin Energy      =      -1.4527193828153091 [Eh]
	 Correlation Energy        =      -1.9201938507916507 [Eh]
	 Total Energy              =    -643.9249300380432715 [Eh]

	 ================> DF-SCS-MP2 Energies <==================
	-----------------------------------------------------------
	 SCS Same-Spin Scale       =       0.3333333333333333 [-]
	 SCS Opposite-Spin Scale   =       1.2000000000000000 [-]
	 SCS Same-Spin Energy      =      -0.1558248226587805 [Eh]
	 SCS Opposite-Spin Energy  =      -1.7432632593783708 [Eh]
	 SCS Correlation Energy    =      -1.8990880820371512 [Eh]
	 SCS Total Energy          =    -643.9038242692887479 [Eh]
	-----------------------------------------------------------

  Dipole Moment: [D]
     X:    -2.0983      Y:    -0.0413      Z:     0.8831     Total:     2.2770

*** Psi4 exiting successfully. Buy a developer a beer!
