                               Psi4 1.4a3.dev225

  ==> Input File <==

--------------------------------------------------------------------------
#psi4
#
memory 32 gb

molecule  {
0 1
  I        2.3447600     0.0000010    -0.2524410
  C       -0.5542210    -0.0000040     0.7369510
  C       -2.5036070    -1.2253050    -0.0650320
  C       -2.5036000     1.2253100    -0.0650260
  C       -1.2095060     1.2097510     0.4687330
  C       -1.2095100    -1.2097530     0.4687280
  C       -3.1346270     0.0000030    -0.3245500
  C        0.8217770    -0.0000070     1.3091860
  C       -3.2172620    -2.5291670    -0.3215690
  C       -3.2172620     2.5291680    -0.3215670
  H       -0.6945570     2.1508370     0.6613300
  H       -0.6945650    -2.1508430     0.6613200
  H       -4.1398900     0.0000070    -0.7462250
  H        1.0275050    -0.8925940     1.8992530
  H        1.0275050     0.8925750     1.8992610
  H       -3.9060370    -2.4424280    -1.1656010
  H       -3.8278602    -2.8472718     0.5932278
  H       -2.5084500    -3.3308180    -0.5430300
  H       -3.8015320     2.8331670     0.5531290
  H       -2.5084330     3.3309140    -0.5426230
  H       -3.9057300     2.4425370    -1.1658600
units angstrom
no_reorient  #important for SAPT in psi4, default
symmetry c1  #important for SAPT in psi4, default
}

set PROPERTIES_ORIGIN ["COM"]
properties('MP2/aug-cc-pvtz', properties = ['dipole'])
--------------------------------------------------------------------------

    Molecular point group: c1
  Charge       = 0
  Multiplicity = 1
  Basis Set: AUG-CC-PVTZ
    Blend: AUG-CC-PVTZ
  Basis Set: (AUG-CC-PVTZ AUX)
    Blend: AUG-CC-PVTZ-JKFIT + DEF2-UNIVERSAL-JKFIT

    Orbital Energies [Eh]
    ---------------------

    Doubly Occupied:

       1A    -11.290460     2A    -11.254283     3A    -11.249612
       4A    -11.249394     5A    -11.234230     6A    -11.233504
       7A    -11.233450     8A    -11.231510     9A    -11.228408
      10A     -7.706284    11A     -5.537730    12A     -5.528450
      13A     -5.528439    14A     -2.266943    15A     -2.262529
      16A     -2.262505    17A     -2.252245    18A     -2.252245
      19A     -1.165388    20A     -1.073115    21A     -1.060714
      22A     -0.969399    23A     -0.937793    24A     -0.931504
      25A     -0.849223    26A     -0.790368    27A     -0.783005
      28A     -0.682336    29A     -0.667272    30A     -0.617694
      31A     -0.588919    32A     -0.583915    33A     -0.573388
      34A     -0.566658    35A     -0.564452    36A     -0.556086
      37A     -0.526273    38A     -0.510618    39A     -0.489422
      40A     -0.485576    41A     -0.444220    42A     -0.359526
      43A     -0.357295    44A     -0.324812    45A     -0.319013

  @DF-RHF Final Energy:  -642.00589241061311

   => Energetics <=

    Nuclear Repulsion Energy =            614.4165178171847401
    One-Electron Energy =               -2203.6844083269361363
    Two-Electron Energy =                 947.2619980991382818
    Total Energy =                       -642.0058924106131144
  Basis Set: (AUG-CC-PVTZ AUX)
    Blend: AUG-CC-PVTZ-RI + DEF2-QZVPP-RI
    Molecular point group: c1

    Geometry (in Angstrom), charge = 0, multiplicity = 1:

       Center              X                  Y                   Z               Mass
    ------------   -----------------  -----------------  -----------------  -----------------
         I            2.049190104626     0.000057700564    -0.222826054297   126.904471900000
         C           -0.849790895374     0.000052700564     0.766565945703    12.000000000000
         C           -2.799176895374    -1.225248299436    -0.035417054297    12.000000000000
         C           -2.799169895374     1.225366700564    -0.035411054297    12.000000000000
         C           -1.505075895374     1.209807700564     0.498347945703    12.000000000000
         C           -1.505079895374    -1.209696299436     0.498342945703    12.000000000000
         C           -3.430196895374     0.000059700564    -0.294935054297    12.000000000000
         C            0.526207104626     0.000049700564     1.338800945703    12.000000000000
         C           -3.512831895374    -2.529110299436    -0.291954054297    12.000000000000
         C           -3.512831895374     2.529224700564    -0.291952054297    12.000000000000
         H           -0.990126895374     2.150893700564     0.690944945703     1.007825032230
         H           -0.990134895374    -2.150786299436     0.690934945703     1.007825032230
         H           -4.435459895374     0.000063700564    -0.716610054297     1.007825032230
         H            0.731935104626    -0.892537299436     1.928867945703     1.007825032230
         H            0.731935104626     0.892631700564     1.928875945703     1.007825032230
         H           -4.201606895374    -2.442371299436    -1.135986054297     1.007825032230
         H           -4.123430095374    -2.847215099436     0.622842745703     1.007825032230
         H           -2.804019895374    -3.330761299436    -0.513415054297     1.007825032230
         H           -4.097101895374     2.833223700564     0.582743945703     1.007825032230
         H           -2.804002895374     3.330970700564    -0.513008054297     1.007825032230
         H           -4.201299895374     2.442593700564    -1.136245054297     1.007825032230

  Basis Set: AUG-CC-PVTZ
    Blend: AUG-CC-PVTZ
  Basis Set: (AUG-CC-PVTZ AUX)
    Blend: AUG-CC-PVTZ-JKFIT + DEF2-UNIVERSAL-JKFIT
	 Reference Energy          =    -642.0058924106131144 [Eh]
	 Singles Energy            =      -0.0000000000000000 [Eh]
	 Same-Spin Energy          =      -0.4675604685051492 [Eh]
	 Opposite-Spin Energy      =      -1.4528843004752197 [Eh]
	 Correlation Energy        =      -1.9204447689803688 [Eh]
	 Total Energy              =    -643.9263371795934745 [Eh]

	 ================> DF-SCS-MP2 Energies <==================
	-----------------------------------------------------------
	 SCS Same-Spin Scale       =       0.3333333333333333 [-]
	 SCS Opposite-Spin Scale   =       1.2000000000000000 [-]
	 SCS Same-Spin Energy      =      -0.1558534895017164 [Eh]
	 SCS Opposite-Spin Energy  =      -1.7434611605702635 [Eh]
	 SCS Correlation Energy    =      -1.8993146500719797 [Eh]
	 SCS Total Energy          =    -643.9052070606851430 [Eh]
	-----------------------------------------------------------

  Dipole Moment: [D]
     X:    -2.0792      Y:     0.0206      Z:     0.8723     Total:     2.2549

*** Psi4 exiting successfully. Buy a developer a beer!
