                               Psi4 1.4a3.dev225

  ==> Input File <==

--------------------------------------------------------------------------
#psi4
#
memory 32 gb

molecule  {
0 1
  I        2.3447600     0.0000010    -0.2524410
  C       -0.5542210    -0.0000040     0.7369510
  C       -2.5036070    -1.2253050    -0.0650320
  C       -2.5036000     1.2253100    -0.0650260
  C       -1.2095060     1.2097510     0.4687330
  C       -1.2095100    -1.2097530     0.4687280
  C       -3.1346270     0.0000030    -0.3245500
  C        0.8217770    -0.0000070     1.3091860
  C       -3.2172620    -2.5291670    -0.3215690
  C       -3.2172620     2.5291680    -0.3215670
  H       -0.6945570     2.1508370     0.6613300
  H       -0.6945650    -2.1508430     0.6613200
  H       -4.2321057     0.0000074    -0.7849065
  H        1.0275050    -0.8925940     1.8992530
  H        1.0275050     0.8925750     1.8992610
  H       -3.9060370    -2.4424280    -1.1656010
  H       -3.8011950    -2.8333800     0.5532780
  H       -2.5084500    -3.3308180    -0.5430300
  H       -3.8015320     2.8331670     0.5531290
  H       -2.5084330     3.3309140    -0.5426230
  H       -3.9057300     2.4425370    -1.1658600
units angstrom
no_reorient  #important for SAPT in psi4, default
symmetry c1  #important for SAPT in psi4, default
}

set PROPERTIES_ORIGIN ["COM"]
properties('MP2/aug-cc-pvtz', properties = ['dipole'])
--------------------------------------------------------------------------

    Molecular point group: c1
  Charge       = 0
  Multiplicity = 1
  Basis Set: AUG-CC-PVTZ
    Blend: AUG-CC-PVTZ
  Basis Set: (AUG-CC-PVTZ AUX)
    Blend: AUG-CC-PVTZ-JKFIT + DEF2-UNIVERSAL-JKFIT

    Orbital Energies [Eh]
    ---------------------

    Doubly Occupied:

       1A    -11.290715     2A    -11.254684     3A    -11.250533
       4A    -11.250456     5A    -11.242670     6A    -11.234179
       7A    -11.234134     8A    -11.228271     9A    -11.228270
      10A     -7.706491    11A     -5.537941    12A     -5.528655
      13A     -5.528644    14A     -2.267155    15A     -2.262738
      16A     -2.262714    17A     -2.252448    18A     -2.252448
      19A     -1.165584    20A     -1.072464    21A     -1.061719
      22A     -0.970007    23A     -0.935863    24A     -0.933374
      25A     -0.848094    26A     -0.791786    27A     -0.780851
      28A     -0.674186    29A     -0.667606    30A     -0.615398
      31A     -0.589051    32A     -0.586084    33A     -0.573483
      34A     -0.571575    35A     -0.564762    36A     -0.548970
      37A     -0.526142    38A     -0.509888    39A     -0.486315
      40A     -0.485974    41A     -0.445079    42A     -0.359768
      43A     -0.357514    44A     -0.325656    45A     -0.319565

  @DF-RHF Final Energy:  -642.00057447024665

   => Energetics <=

    Nuclear Repulsion Energy =            614.1234310645281766
    One-Electron Energy =               -2203.0882061599950248
    Two-Electron Energy =                 946.9642006252202009
    Total Energy =                       -642.0005744702466473
  Basis Set: (AUG-CC-PVTZ AUX)
    Blend: AUG-CC-PVTZ-RI + DEF2-QZVPP-RI
    Molecular point group: c1

    Geometry (in Angstrom), charge = 0, multiplicity = 1:

       Center              X                  Y                   Z               Mass
    ------------   -----------------  -----------------  -----------------  -----------------
         I            2.049458665493     0.000000784121    -0.222503901298   126.904471900000
         C           -0.849522334507    -0.000004215879     0.766888098702    12.000000000000
         C           -2.798908334507    -1.225305215879    -0.035094901298    12.000000000000
         C           -2.798901334507     1.225309784121    -0.035088901298    12.000000000000
         C           -1.504807334507     1.209750784121     0.498670098702    12.000000000000
         C           -1.504811334507    -1.209753215879     0.498665098702    12.000000000000
         C           -3.429928334507     0.000002784121    -0.294612901298    12.000000000000
         C            0.526475665493    -0.000007215879     1.339123098702    12.000000000000
         C           -3.512563334507    -2.529167215879    -0.291631901298    12.000000000000
         C           -3.512563334507     2.529167784121    -0.291629901298    12.000000000000
         H           -0.989858334507     2.150836784121     0.691267098702     1.007825032230
         H           -0.989866334507    -2.150843215879     0.691257098702     1.007825032230
         H           -4.527407034507     0.000007184121    -0.754969401298     1.007825032230
         H            0.732203665493    -0.892594215879     1.929190098702     1.007825032230
         H            0.732203665493     0.892574784121     1.929198098702     1.007825032230
         H           -4.201338334507    -2.442428215879    -1.135663901298     1.007825032230
         H           -4.096496334507    -2.833380215879     0.583215098702     1.007825032230
         H           -2.803751334507    -3.330818215879    -0.513092901298     1.007825032230
         H           -4.096833334507     2.833166784121     0.583066098702     1.007825032230
         H           -2.803734334507     3.330913784121    -0.512685901298     1.007825032230
         H           -4.201031334507     2.442536784121    -1.135922901298     1.007825032230

  Basis Set: AUG-CC-PVTZ
    Blend: AUG-CC-PVTZ
  Basis Set: (AUG-CC-PVTZ AUX)
    Blend: AUG-CC-PVTZ-JKFIT + DEF2-UNIVERSAL-JKFIT
	 Reference Energy          =    -642.0005744702466473 [Eh]
	 Singles Energy            =      -0.0000000000000000 [Eh]
	 Same-Spin Energy          =      -0.4678533259342483 [Eh]
	 Opposite-Spin Energy      =      -1.4535475387582943 [Eh]
	 Correlation Energy        =      -1.9214008646925427 [Eh]
	 Total Energy              =    -643.9219753349391340 [Eh]

	 ================> DF-SCS-MP2 Energies <==================
	-----------------------------------------------------------
	 SCS Same-Spin Scale       =       0.3333333333333333 [-]
	 SCS Opposite-Spin Scale   =       1.2000000000000000 [-]
	 SCS Same-Spin Energy      =      -0.1559511086447494 [Eh]
	 SCS Opposite-Spin Energy  =      -1.7442570465099532 [Eh]
	 SCS Correlation Energy    =      -1.9002081551547025 [Eh]
	 SCS Total Energy          =    -643.9007826254013480 [Eh]
	-----------------------------------------------------------

  Dipole Moment: [D]
     X:    -2.0463      Y:    -0.0000      Z:     0.9050     Total:     2.2375

*** Psi4 exiting successfully. Buy a developer a beer!
