                               Psi4 1.4a3.dev225

  ==> Input File <==

--------------------------------------------------------------------------
#psi4
#
memory 32 gb

molecule  {
0 1
  I        2.3447600     0.0000010    -0.2524410
  C       -0.5542210    -0.0000040     0.7369510
  C       -2.5036070    -1.2253050    -0.0650320
  C       -2.5036000     1.2253100    -0.0650260
  C       -1.2095060     1.2097510     0.4687330
  C       -1.2095100    -1.2097530     0.4687280
  C       -3.1346270     0.0000030    -0.3245500
  C        0.8217770    -0.0000070     1.3091860
  C       -3.2172620    -2.5291670    -0.3215690
  C       -3.2172620     2.5291680    -0.3215670
  H       -0.6945570     2.1508370     0.6613300
  H       -0.6945650    -2.1508430     0.6613200
  H       -4.0937821     0.0000068    -0.7268843
  H        1.0275050    -0.8925940     1.8992530
  H        1.0275050     0.8925750     1.8992610
  H       -3.9060370    -2.4424280    -1.1656010
  H       -3.8011950    -2.8333800     0.5532780
  H       -2.5084500    -3.3308180    -0.5430300
  H       -3.8015320     2.8331670     0.5531290
  H       -2.5084330     3.3309140    -0.5426230
  H       -3.9057300     2.4425370    -1.1658600
units angstrom
no_reorient  #important for SAPT in psi4, default
symmetry c1  #important for SAPT in psi4, default
}

set PROPERTIES_ORIGIN ["COM"]
properties('MP2/aug-cc-pvtz', properties = ['dipole'])
--------------------------------------------------------------------------

    Molecular point group: c1
  Charge       = 0
  Multiplicity = 1
  Basis Set: AUG-CC-PVTZ
    Blend: AUG-CC-PVTZ
  Basis Set: (AUG-CC-PVTZ AUX)
    Blend: AUG-CC-PVTZ-JKFIT + DEF2-UNIVERSAL-JKFIT

    Orbital Energies [Eh]
    ---------------------

    Doubly Occupied:

       1A    -11.290211     2A    -11.253923     3A    -11.248748
       4A    -11.248730     5A    -11.232859     6A    -11.232815
       7A    -11.228330     8A    -11.228330     9A    -11.225234
      10A     -7.706075    11A     -5.537519    12A     -5.528242
      13A     -5.528231    14A     -2.266732    15A     -2.262319
      16A     -2.262296    17A     -2.252039    18A     -2.252038
      19A     -1.165236    20A     -1.073703    21A     -1.060940
      22A     -0.970105    23A     -0.940531    24A     -0.932864
      25A     -0.849906    26A     -0.790637    27A     -0.784658
      28A     -0.687333    29A     -0.666824    30A     -0.619021
      31A     -0.588621    32A     -0.585958    33A     -0.574181
      34A     -0.573513    35A     -0.563961    36A     -0.558475
      37A     -0.525877    38A     -0.512002    39A     -0.490248
      40A     -0.485087    41A     -0.444389    42A     -0.359320
      43A     -0.357090    44A     -0.324582    45A     -0.318716

  @DF-RHF Final Energy:  -642.00721522632932

   => Energetics <=

    Nuclear Repulsion Energy =            614.9129135752849606
    One-Electron Energy =               -2204.6633546079224288
    Two-Electron Energy =                 947.7432258063080326
    Total Energy =                       -642.0072152263293219
  Basis Set: (AUG-CC-PVTZ AUX)
    Blend: AUG-CC-PVTZ-RI + DEF2-QZVPP-RI
    Molecular point group: c1

    Geometry (in Angstrom), charge = 0, multiplicity = 1:

       Center              X                  Y                   Z               Mass
    ------------   -----------------  -----------------  -----------------  -----------------
         I            2.048891952714     0.000000786579    -0.222741618666   126.904471900000
         C           -0.850089047286    -0.000004213421     0.766650381334    12.000000000000
         C           -2.799475047286    -1.225305213421    -0.035332618666    12.000000000000
         C           -2.799468047286     1.225309786579    -0.035326618666    12.000000000000
         C           -1.505374047286     1.209750786579     0.498432381334    12.000000000000
         C           -1.505378047286    -1.209753213421     0.498427381334    12.000000000000
         C           -3.430495047286     0.000002786579    -0.294850618666    12.000000000000
         C            0.525908952714    -0.000007213421     1.338885381334    12.000000000000
         C           -3.513130047286    -2.529167213421    -0.291869618666    12.000000000000
         C           -3.513130047286     2.529167786579    -0.291867618666    12.000000000000
         H           -0.990425047286     2.150836786579     0.691029381334     1.007825032230
         H           -0.990433047286    -2.150843213421     0.691019381334     1.007825032230
         H           -4.389650147286     0.000006586579    -0.697184918666     1.007825032230
         H            0.731636952714    -0.892594213421     1.928952381334     1.007825032230
         H            0.731636952714     0.892574786579     1.928960381334     1.007825032230
         H           -4.201905047286    -2.442428213421    -1.135901618666     1.007825032230
         H           -4.097063047286    -2.833380213421     0.582977381334     1.007825032230
         H           -2.804318047286    -3.330818213421    -0.513330618666     1.007825032230
         H           -4.097400047286     2.833166786579     0.582828381334     1.007825032230
         H           -2.804301047286     3.330913786579    -0.512923618666     1.007825032230
         H           -4.201598047286     2.442536786579    -1.136160618666     1.007825032230

  Basis Set: AUG-CC-PVTZ
    Blend: AUG-CC-PVTZ
  Basis Set: (AUG-CC-PVTZ AUX)
    Blend: AUG-CC-PVTZ-JKFIT + DEF2-UNIVERSAL-JKFIT
	 Reference Energy          =    -642.0072152263293219 [Eh]
	 Singles Energy            =      -0.0000000000000000 [Eh]
	 Same-Spin Energy          =      -0.4674459083907642 [Eh]
	 Opposite-Spin Energy      =      -1.4522130591736704 [Eh]
	 Correlation Energy        =      -1.9196589675644344 [Eh]
	 Total Energy              =    -643.9268741938938092 [Eh]

	 ================> DF-SCS-MP2 Energies <==================
	-----------------------------------------------------------
	 SCS Same-Spin Scale       =       0.3333333333333333 [-]
	 SCS Opposite-Spin Scale   =       1.2000000000000000 [-]
	 SCS Same-Spin Energy      =      -0.1558153027969214 [Eh]
	 SCS Opposite-Spin Energy  =      -1.7426556710084045 [Eh]
	 SCS Correlation Energy    =      -1.8984709738053258 [Eh]
	 SCS Total Energy          =    -643.9056862001345962 [Eh]
	-----------------------------------------------------------

  Dipole Moment: [D]
     X:    -2.1207      Y:    -0.0000      Z:     0.8779     Total:     2.2952

*** Psi4 exiting successfully. Buy a developer a beer!
