                               Psi4 1.4a3.dev225

  ==> Input File <==

--------------------------------------------------------------------------
#psi4
#
memory 32 gb

molecule  {
0 1
  I        2.3447600     0.0000010    -0.2524410
  C       -0.5542210    -0.0000040     0.7369510
  C       -2.5036070    -1.2253050    -0.0650320
  C       -2.5036000     1.2253100    -0.0650260
  C       -1.2095060     1.2097510     0.4687330
  C       -1.2095100    -1.2097530     0.4687280
  C       -3.1346270     0.0000030    -0.3245500
  C        0.8217770    -0.0000070     1.3091860
  C       -3.2172620    -2.5291670    -0.3215690
  C       -3.2172620     2.5291680    -0.3215670
  H       -0.6945570     2.1508370     0.6613300
  H       -0.6945650    -2.1508430     0.6613200
  H       -4.1398900     0.0000070    -0.7462250
  H        1.0275050    -0.8925940     1.8992530
  H        1.0275050     0.8925750     1.8992610
  H       -3.9060370    -2.4424280    -1.1656010
  H       -3.8011950    -2.8333800     0.5532780
  H       -2.5214230    -3.3161458    -0.5389767
  H       -3.8015320     2.8331670     0.5531290
  H       -2.5084330     3.3309140    -0.5426230
  H       -3.9057300     2.4425370    -1.1658600
units angstrom
no_reorient  #important for SAPT in psi4, default
symmetry c1  #important for SAPT in psi4, default
}

set PROPERTIES_ORIGIN ["COM"]
properties('MP2/aug-cc-pvtz', properties = ['dipole'])
--------------------------------------------------------------------------

    Molecular point group: c1
  Charge       = 0
  Multiplicity = 1
  Basis Set: AUG-CC-PVTZ
    Blend: AUG-CC-PVTZ
  Basis Set: (AUG-CC-PVTZ AUX)
    Blend: AUG-CC-PVTZ-JKFIT + DEF2-UNIVERSAL-JKFIT

    Orbital Energies [Eh]
    ---------------------

    Doubly Occupied:

       1A    -11.290336     2A    -11.254101     3A    -11.249175
       4A    -11.249082     5A    -11.233220     6A    -11.233167
       7A    -11.231121     8A    -11.228248     9A    -11.225875
      10A     -7.706176    11A     -5.537621    12A     -5.528342
      13A     -5.528331    14A     -2.266834    15A     -2.262420
      16A     -2.262396    17A     -2.252138    18A     -2.252138
      19A     -1.165212    20A     -1.073144    21A     -1.061423
      22A     -0.970302    23A     -0.939254    24A     -0.933424
      25A     -0.849113    26A     -0.791415    27A     -0.783076
      28A     -0.682298    29A     -0.667255    30A     -0.617726
      31A     -0.588885    32A     -0.586379    33A     -0.574032
      34A     -0.573118    35A     -0.564469    36A     -0.556741
      37A     -0.526798    38A     -0.511456    39A     -0.489159
      40A     -0.485498    41A     -0.444577    42A     -0.359426
      43A     -0.357197    44A     -0.324884    45A     -0.318873

  @DF-RHF Final Energy:  -642.00794443769200

   => Energetics <=

    Nuclear Repulsion Energy =            614.7211796894763438
    One-Electron Energy =               -2204.2865436484939892
    Two-Electron Energy =                 947.5574195213257553
    Total Energy =                       -642.0079444376920037
  Basis Set: (AUG-CC-PVTZ AUX)
    Blend: AUG-CC-PVTZ-RI + DEF2-QZVPP-RI
    Molecular point group: c1

    Geometry (in Angstrom), charge = 0, multiplicity = 1:

       Center              X                  Y                   Z               Mass
    ------------   -----------------  -----------------  -----------------  -----------------
         I            2.049134007584    -0.000059326348    -0.222678986079   126.904471900000
         C           -0.849846992416    -0.000064326348     0.766713013921    12.000000000000
         C           -2.799232992416    -1.225365326348    -0.035269986079    12.000000000000
         C           -2.799225992416     1.225249673652    -0.035263986079    12.000000000000
         C           -1.505131992416     1.209690673652     0.498495013921    12.000000000000
         C           -1.505135992416    -1.209813326348     0.498490013921    12.000000000000
         C           -3.430252992416    -0.000057326348    -0.294787986079    12.000000000000
         C            0.526151007584    -0.000067326348     1.338948013921    12.000000000000
         C           -3.512887992416    -2.529227326348    -0.291806986079    12.000000000000
         C           -3.512887992416     2.529107673652    -0.291804986079    12.000000000000
         H           -0.990182992416     2.150776673652     0.691092013921     1.007825032230
         H           -0.990190992416    -2.150903326348     0.691082013921     1.007825032230
         H           -4.435515992416    -0.000053326348    -0.716462986079     1.007825032230
         H            0.731879007584    -0.892654326348     1.929015013921     1.007825032230
         H            0.731879007584     0.892514673652     1.929023013921     1.007825032230
         H           -4.201662992416    -2.442488326348    -1.135838986079     1.007825032230
         H           -4.096820992416    -2.833440326348     0.583040013921     1.007825032230
         H           -2.817048992416    -3.316206126348    -0.509214686079     1.007825032230
         H           -4.097157992416     2.833106673652     0.582891013921     1.007825032230
         H           -2.804058992416     3.330853673652    -0.512860986079     1.007825032230
         H           -4.201355992416     2.442476673652    -1.136097986079     1.007825032230

  Basis Set: AUG-CC-PVTZ
    Blend: AUG-CC-PVTZ
  Basis Set: (AUG-CC-PVTZ AUX)
    Blend: AUG-CC-PVTZ-JKFIT + DEF2-UNIVERSAL-JKFIT
	 Reference Energy          =    -642.0079444376920037 [Eh]
	 Singles Energy            =      -0.0000000000000000 [Eh]
	 Same-Spin Energy          =      -0.4675618500207279 [Eh]
	 Opposite-Spin Energy      =      -1.4524363988421114 [Eh]
	 Correlation Energy        =      -1.9199982488628393 [Eh]
	 Total Energy              =    -643.9279426865548430 [Eh]

	 ================> DF-SCS-MP2 Energies <==================
	-----------------------------------------------------------
	 SCS Same-Spin Scale       =       0.3333333333333333 [-]
	 SCS Opposite-Spin Scale   =       1.2000000000000000 [-]
	 SCS Same-Spin Energy      =      -0.1558539500069093 [Eh]
	 SCS Opposite-Spin Energy  =      -1.7429236786105335 [Eh]
	 SCS Correlation Energy    =      -1.8987776286174429 [Eh]
	 SCS Total Energy          =    -643.9067220663094986 [Eh]
	-----------------------------------------------------------

  Dipole Moment: [D]
     X:    -2.0983      Y:    -0.0106      Z:     0.8834     Total:     2.2767

*** Psi4 exiting successfully. Buy a developer a beer!
