                               Psi4 1.4a3.dev225

  ==> Input File <==

--------------------------------------------------------------------------
#psi4
#
memory 32 gb

molecule  {
0 1
  I        2.3447600     0.0000010    -0.2524410
  C       -0.5542210    -0.0000040     0.7369510
  C       -2.5036070    -1.2253050    -0.0650320
  C       -2.5036000     1.2253100    -0.0650260
  C       -1.2095060     1.2097510     0.4687330
  C       -1.3225869    -1.1291151     0.4214168
  C       -3.1346270     0.0000030    -0.3245500
  C        0.8217770    -0.0000070     1.3091860
  C       -3.2172620    -2.5291670    -0.3215690
  C       -3.2172620     2.5291680    -0.3215670
  H       -0.6945570     2.1508370     0.6613300
  H       -0.6945650    -2.1508430     0.6613200
  H       -4.1398900     0.0000070    -0.7462250
  H        1.0275050    -0.8925940     1.8992530
  H        1.0275050     0.8925750     1.8992610
  H       -3.9060370    -2.4424280    -1.1656010
  H       -3.8011950    -2.8333800     0.5532780
  H       -2.5084500    -3.3308180    -0.5430300
  H       -3.8015320     2.8331670     0.5531290
  H       -2.5084330     3.3309140    -0.5426230
  H       -3.9057300     2.4425370    -1.1658600
units angstrom
no_reorient  #important for SAPT in psi4, default
symmetry c1  #important for SAPT in psi4, default
}

set PROPERTIES_ORIGIN ["COM"]
properties('MP2/aug-cc-pvtz', properties = ['dipole'])
--------------------------------------------------------------------------

    Molecular point group: c1
  Charge       = 0
  Multiplicity = 1
  Basis Set: AUG-CC-PVTZ
    Blend: AUG-CC-PVTZ
  Basis Set: (AUG-CC-PVTZ AUX)
    Blend: AUG-CC-PVTZ-JKFIT + DEF2-UNIVERSAL-JKFIT

    Orbital Energies [Eh]
    ---------------------

    Doubly Occupied:

       1A    -11.294263     2A    -11.254243     3A    -11.246160
       4A    -11.235221     5A    -11.234113     6A    -11.232518
       7A    -11.231365     8A    -11.229137     9A    -11.227472
      10A     -7.707649    11A     -5.539152    12A     -5.529784
      13A     -5.529764    14A     -2.268372    15A     -2.263918
      16A     -2.263900    17A     -2.253539    18A     -2.253539
      19A     -1.178390    20A     -1.077650    21A     -1.065369
      22A     -0.974535    23A     -0.939719    24A     -0.931675
      25A     -0.853153    26A     -0.799585    27A     -0.782649
      28A     -0.672572    29A     -0.671247    30A     -0.618804
      31A     -0.590482    32A     -0.588995    33A     -0.577022
      34A     -0.572937    35A     -0.559495    36A     -0.543422
      37A     -0.527309    38A     -0.515013    39A     -0.500191
      40A     -0.458952    41A     -0.450710    42A     -0.360891
      43A     -0.358519    44A     -0.337992    45A     -0.315909

  @DF-RHF Final Energy:  -641.98058113709840

   => Energetics <=

    Nuclear Repulsion Energy =            616.4959092396514961
    One-Electron Energy =               -2207.7183879756257738
    Two-Electron Energy =                 949.2418975988757666
    Total Energy =                       -641.9805811370983974
  Basis Set: (AUG-CC-PVTZ AUX)
    Blend: AUG-CC-PVTZ-RI + DEF2-QZVPP-RI
    Molecular point group: c1

    Geometry (in Angstrom), charge = 0, multiplicity = 1:

       Center              X                  Y                   Z               Mass
    ------------   -----------------  -----------------  -----------------  -----------------
         I            2.054597015415    -0.003932921493    -0.220354427581   126.904471900000
         C           -0.844383984585    -0.003937921493     0.769037572419    12.000000000000
         C           -2.793769984585    -1.229238921493    -0.032945427581    12.000000000000
         C           -2.793762984585     1.221376078507    -0.032939427581    12.000000000000
         C           -1.499668984585     1.205817078507     0.500819572419    12.000000000000
         C           -1.612749884585    -1.133049021493     0.453503372419    12.000000000000
         C           -3.424789984585    -0.003930921493    -0.292463427581    12.000000000000
         C            0.531614015415    -0.003940921493     1.341272572419    12.000000000000
         C           -3.507424984585    -2.533100921493    -0.289482427581    12.000000000000
         C           -3.507424984585     2.525234078507    -0.289480427581    12.000000000000
         H           -0.984719984585     2.146903078507     0.693416572419     1.007825032230
         H           -0.984727984585    -2.154776921493     0.693406572419     1.007825032230
         H           -4.430052984585    -0.003926921493    -0.714138427581     1.007825032230
         H            0.737342015415    -0.896527921493     1.931339572419     1.007825032230
         H            0.737342015415     0.888641078507     1.931347572419     1.007825032230
         H           -4.196199984585    -2.446361921493    -1.133514427581     1.007825032230
         H           -4.091357984585    -2.837313921493     0.585364572419     1.007825032230
         H           -2.798612984585    -3.334751921493    -0.510943427581     1.007825032230
         H           -4.091694984585     2.829233078507     0.585215572419     1.007825032230
         H           -2.798595984585     3.326980078507    -0.510536427581     1.007825032230
         H           -4.195892984585     2.438603078507    -1.133773427581     1.007825032230

  Basis Set: AUG-CC-PVTZ
    Blend: AUG-CC-PVTZ
  Basis Set: (AUG-CC-PVTZ AUX)
    Blend: AUG-CC-PVTZ-JKFIT + DEF2-UNIVERSAL-JKFIT
	 Reference Energy          =    -641.9805811370983974 [Eh]
	 Singles Energy            =      -0.0000000000000000 [Eh]
	 Same-Spin Energy          =      -0.4681338545253939 [Eh]
	 Opposite-Spin Energy      =      -1.4538207346630510 [Eh]
	 Correlation Energy        =      -1.9219545891884449 [Eh]
	 Total Energy              =    -643.9025357262868283 [Eh]

	 ================> DF-SCS-MP2 Energies <==================
	-----------------------------------------------------------
	 SCS Same-Spin Scale       =       0.3333333333333333 [-]
	 SCS Opposite-Spin Scale   =       1.2000000000000000 [-]
	 SCS Same-Spin Energy      =      -0.1560446181751313 [Eh]
	 SCS Opposite-Spin Energy  =      -1.7445848815956611 [Eh]
	 SCS Correlation Energy    =      -1.9006294997707924 [Eh]
	 SCS Total Energy          =    -643.8812106368692412 [Eh]
	-----------------------------------------------------------

  Dipole Moment: [D]
     X:    -2.0489      Y:     0.1074      Z:     0.8593     Total:     2.2244

*** Psi4 exiting successfully. Buy a developer a beer!
