                               Psi4 1.4a3.dev225

  ==> Input File <==

--------------------------------------------------------------------------
#psi4
#
memory 32 gb

molecule  {
0 1
  I        2.3447600     0.0000010    -0.2524410
  C       -0.5542210    -0.0000040     0.7369510
  C       -2.5036070    -1.2253050    -0.0650320
  C       -2.5036000     1.2253100    -0.0650260
  C       -1.2095060     1.2097510     0.4687330
  C       -1.2095100    -1.2097530     0.4687280
  C       -3.1346270     0.0000030    -0.3245500
  C        0.8217770    -0.0000070     1.3091860
  C       -3.2172620    -2.5291670    -0.3215690
  C       -3.1226349     2.3562847    -0.2875513
  H       -0.6945570     2.1508370     0.6613300
  H       -0.6945650    -2.1508430     0.6613200
  H       -4.1398900     0.0000070    -0.7462250
  H        1.0275050    -0.8925940     1.8992530
  H        1.0275050     0.8925750     1.8992610
  H       -3.9060370    -2.4424280    -1.1656010
  H       -3.8011950    -2.8333800     0.5532780
  H       -2.5084500    -3.3308180    -0.5430300
  H       -3.8015320     2.8331670     0.5531290
  H       -2.5084330     3.3309140    -0.5426230
  H       -3.9057300     2.4425370    -1.1658600
units angstrom
no_reorient  #important for SAPT in psi4, default
symmetry c1  #important for SAPT in psi4, default
}

set PROPERTIES_ORIGIN ["COM"]
properties('MP2/aug-cc-pvtz', properties = ['dipole'])
--------------------------------------------------------------------------

    Molecular point group: c1
  Charge       = 0
  Multiplicity = 1
  Basis Set: AUG-CC-PVTZ
    Blend: AUG-CC-PVTZ
  Basis Set: (AUG-CC-PVTZ AUX)
    Blend: AUG-CC-PVTZ-JKFIT + DEF2-UNIVERSAL-JKFIT

    Orbital Energies [Eh]
    ---------------------

    Doubly Occupied:

       1A    -11.290874     2A    -11.254900     3A    -11.249993
       4A    -11.239302     5A    -11.236993     6A    -11.234277
       7A    -11.234077     8A    -11.232075     9A    -11.228875
      10A     -7.706667    11A     -5.538122    12A     -5.528826
      13A     -5.528817    14A     -2.267336    15A     -2.262916
      16A     -2.262893    17A     -2.252616    18A     -2.252616
      19A     -1.175200    20A     -1.093611    21A     -1.069950
      22A     -0.972679    23A     -0.939551    24A     -0.930449
      25A     -0.850199    26A     -0.790149    27A     -0.783266
      28A     -0.683993    29A     -0.672662    30A     -0.644540
      31A     -0.595546    32A     -0.585754    33A     -0.582289
      34A     -0.569146    35A     -0.561430    36A     -0.549668
      37A     -0.511607    38A     -0.504301    39A     -0.496203
      40A     -0.470855    41A     -0.438810    42A     -0.359694
      43A     -0.357474    44A     -0.322530    45A     -0.315853

  @DF-RHF Final Energy:  -641.95609580246924

   => Energetics <=

    Nuclear Repulsion Energy =            618.5965909392995172
    One-Electron Energy =               -2211.8461981443306286
    Two-Electron Energy =                 951.2935114025619896
    Total Energy =                       -641.9560958024692354
  Basis Set: (AUG-CC-PVTZ AUX)
    Blend: AUG-CC-PVTZ-RI + DEF2-QZVPP-RI
    Molecular point group: c1

    Geometry (in Angstrom), charge = 0, multiplicity = 1:

       Center              X                  Y                   Z               Mass
    ------------   -----------------  -----------------  -----------------  -----------------
         I            2.044464723635     0.008434441537    -0.224321745882   126.904471900000
         C           -0.854516276365     0.008429441537     0.765070254118    12.000000000000
         C           -2.803902276365    -1.216871558463    -0.036912745882    12.000000000000
         C           -2.803895276365     1.233743441537    -0.036906745882    12.000000000000
         C           -1.509801276365     1.218184441537     0.496852254118    12.000000000000
         C           -1.509805276365    -1.201319558463     0.496847254118    12.000000000000
         C           -3.434922276365     0.008436441537    -0.296430745882    12.000000000000
         C            0.521481723635     0.008426441537     1.337305254118    12.000000000000
         C           -3.517557276365    -2.520733558463    -0.293449745882    12.000000000000
         C           -3.422930176365     2.364718141537    -0.259432045882    12.000000000000
         H           -0.994852276365     2.159270441537     0.689449254118     1.007825032230
         H           -0.994860276365    -2.142409558463     0.689439254118     1.007825032230
         H           -4.440185276365     0.008440441537    -0.718105745882     1.007825032230
         H            0.727209723635    -0.884160558463     1.927372254118     1.007825032230
         H            0.727209723635     0.901008441537     1.927380254118     1.007825032230
         H           -4.206332276365    -2.433994558463    -1.137481745882     1.007825032230
         H           -4.101490276365    -2.824946558463     0.581397254118     1.007825032230
         H           -2.808745276365    -3.322384558463    -0.514910745882     1.007825032230
         H           -4.101827276365     2.841600441537     0.581248254118     1.007825032230
         H           -2.808728276365     3.339347441537    -0.514503745882     1.007825032230
         H           -4.206025276365     2.450970441537    -1.137740745882     1.007825032230

  Basis Set: AUG-CC-PVTZ
    Blend: AUG-CC-PVTZ
  Basis Set: (AUG-CC-PVTZ AUX)
    Blend: AUG-CC-PVTZ-JKFIT + DEF2-UNIVERSAL-JKFIT
	 Reference Energy          =    -641.9560958024692354 [Eh]
	 Singles Energy            =      -0.0000000000000000 [Eh]
	 Same-Spin Energy          =      -0.4711106065574479 [Eh]
	 Opposite-Spin Energy      =      -1.4572261290689938 [Eh]
	 Correlation Energy        =      -1.9283367356264418 [Eh]
	 Total Energy              =    -643.8844325380956661 [Eh]

	 ================> DF-SCS-MP2 Energies <==================
	-----------------------------------------------------------
	 SCS Same-Spin Scale       =       0.3333333333333333 [-]
	 SCS Opposite-Spin Scale   =       1.2000000000000000 [-]
	 SCS Same-Spin Energy      =      -0.1570368688524826 [Eh]
	 SCS Opposite-Spin Energy  =      -1.7486713548827926 [Eh]
	 SCS Correlation Energy    =      -1.9057082237352752 [Eh]
	 SCS Total Energy          =    -643.8618040262044815 [Eh]
	-----------------------------------------------------------

  Dipole Moment: [D]
     X:    -2.0716      Y:    -0.0344      Z:     0.8978     Total:     2.2581

*** Psi4 exiting successfully. Buy a developer a beer!
