                               Psi4 1.4a3.dev225

  ==> Input File <==

--------------------------------------------------------------------------
#psi4
#
memory 32 gb

molecule  {
0 1
  I        2.3447600     0.0000010    -0.2524410
  C       -0.5542210    -0.0000040     0.7369510
  C       -2.5036070    -1.2253050    -0.0650320
  C       -2.5036000     1.2253100    -0.0650260
  C       -1.2095060     1.2097510     0.4687330
  C       -1.2095100    -1.2097530     0.4687280
  C       -3.0896334    -0.0873650    -0.3060456
  C        0.8217770    -0.0000070     1.3091860
  C       -3.2172620    -2.5291670    -0.3215690
  C       -3.2172620     2.5291680    -0.3215670
  H       -0.6945570     2.1508370     0.6613300
  H       -0.6945650    -2.1508430     0.6613200
  H       -4.1398900     0.0000070    -0.7462250
  H        1.0275050    -0.8925940     1.8992530
  H        1.0275050     0.8925750     1.8992610
  H       -3.9060370    -2.4424280    -1.1656010
  H       -3.8011950    -2.8333800     0.5532780
  H       -2.5084500    -3.3308180    -0.5430300
  H       -3.8015320     2.8331670     0.5531290
  H       -2.5084330     3.3309140    -0.5426230
  H       -3.9057300     2.4425370    -1.1658600
units angstrom
no_reorient  #important for SAPT in psi4, default
symmetry c1  #important for SAPT in psi4, default
}

set PROPERTIES_ORIGIN ["COM"]
properties('MP2/aug-cc-pvtz', properties = ['dipole'])
--------------------------------------------------------------------------

    Molecular point group: c1
  Charge       = 0
  Multiplicity = 1
  Basis Set: AUG-CC-PVTZ
    Blend: AUG-CC-PVTZ
  Basis Set: (AUG-CC-PVTZ AUX)
    Blend: AUG-CC-PVTZ-JKFIT + DEF2-UNIVERSAL-JKFIT

    Orbital Energies [Eh]
    ---------------------

    Doubly Occupied:

       1A    -11.290150     2A    -11.255072     3A    -11.253119
       4A    -11.236084     5A    -11.233999     6A    -11.232923
       7A    -11.231803     8A    -11.230024     9A    -11.226841
      10A     -7.705850    11A     -5.537280    12A     -5.528030
      13A     -5.528010    14A     -2.266492    15A     -2.262091
      16A     -2.262060    17A     -2.251832    18A     -2.251831
      19A     -1.170645    20A     -1.078589    21A     -1.060074
      22A     -0.970164    23A     -0.940629    24A     -0.933423
      25A     -0.848243    26A     -0.796528    27A     -0.780285
      28A     -0.677925    29A     -0.669386    30A     -0.615315
      31A     -0.589146    32A     -0.587727    33A     -0.574764
      34A     -0.573644    35A     -0.564842    36A     -0.551596
      37A     -0.527532    38A     -0.510600    39A     -0.496498
      40A     -0.472155    41A     -0.447175    42A     -0.360048
      43A     -0.356939    44A     -0.333441    45A     -0.314494

  @DF-RHF Final Energy:  -641.99476399215519

   => Energetics <=

    Nuclear Repulsion Energy =            615.6253538221995996
    One-Electron Energy =               -2206.0696417744552491
    Two-Electron Energy =                 948.4495239601005778
    Total Energy =                       -641.9947639921551854
  Basis Set: (AUG-CC-PVTZ AUX)
    Blend: AUG-CC-PVTZ-RI + DEF2-QZVPP-RI
    Molecular point group: c1

    Geometry (in Angstrom), charge = 0, multiplicity = 1:

       Center              X                  Y                   Z               Mass
    ------------   -----------------  -----------------  -----------------  -----------------
         I            2.046885963014     0.004262803190    -0.223565068025   126.904471900000
         C           -0.852095036986     0.004257803190     0.765826931975    12.000000000000
         C           -2.801481036986    -1.221043196810    -0.036156068025    12.000000000000
         C           -2.801474036986     1.229571803190    -0.036150068025    12.000000000000
         C           -1.507380036986     1.214012803190     0.497608931975    12.000000000000
         C           -1.507384036986    -1.205491196810     0.497603931975    12.000000000000
         C           -3.387507436986    -0.083103196810    -0.277169668025    12.000000000000
         C            0.523902963014     0.004254803190     1.338061931975    12.000000000000
         C           -3.515136036986    -2.524905196810    -0.292693068025    12.000000000000
         C           -3.515136036986     2.533429803190    -0.292691068025    12.000000000000
         H           -0.992431036986     2.155098803190     0.690205931975     1.007825032230
         H           -0.992439036986    -2.146581196810     0.690195931975     1.007825032230
         H           -4.437764036986     0.004268803190    -0.717349068025     1.007825032230
         H            0.729630963014    -0.888332196810     1.928128931975     1.007825032230
         H            0.729630963014     0.896836803190     1.928136931975     1.007825032230
         H           -4.203911036986    -2.438166196810    -1.136725068025     1.007825032230
         H           -4.099069036986    -2.829118196810     0.582153931975     1.007825032230
         H           -2.806324036986    -3.326556196810    -0.514154068025     1.007825032230
         H           -4.099406036986     2.837428803190     0.582004931975     1.007825032230
         H           -2.806307036986     3.335175803190    -0.513747068025     1.007825032230
         H           -4.203604036986     2.446798803190    -1.136984068025     1.007825032230

  Basis Set: AUG-CC-PVTZ
    Blend: AUG-CC-PVTZ
  Basis Set: (AUG-CC-PVTZ AUX)
    Blend: AUG-CC-PVTZ-JKFIT + DEF2-UNIVERSAL-JKFIT
	 Reference Energy          =    -641.9947639921551854 [Eh]
	 Singles Energy            =      -0.0000000000000000 [Eh]
	 Same-Spin Energy          =      -0.4674956962269310 [Eh]
	 Opposite-Spin Energy      =      -1.4529632120049083 [Eh]
	 Correlation Energy        =      -1.9204589082318393 [Eh]
	 Total Energy              =    -643.9152229003869934 [Eh]

	 ================> DF-SCS-MP2 Energies <==================
	-----------------------------------------------------------
	 SCS Same-Spin Scale       =       0.3333333333333333 [-]
	 SCS Opposite-Spin Scale   =       1.2000000000000000 [-]
	 SCS Same-Spin Energy      =      -0.1558318987423103 [Eh]
	 SCS Opposite-Spin Energy  =      -1.7435558544058900 [Eh]
	 SCS Correlation Energy    =      -1.8993877531482004 [Eh]
	 SCS Total Energy          =    -643.8941517453033612 [Eh]
	-----------------------------------------------------------

  Dipole Moment: [D]
     X:    -2.0815      Y:     0.0867      Z:     0.8965     Total:     2.2680

*** Psi4 exiting successfully. Buy a developer a beer!
