                               Psi4 1.4a3.dev225

  ==> Input File <==

--------------------------------------------------------------------------
#psi4
#
memory 32 gb

molecule  {
0 1
  I        2.3447600     0.0000010    -0.2524410
  C       -0.5542210    -0.0000040     0.7369510
  C       -2.5036070    -1.2253050    -0.0650320
  C       -2.5036000     1.2253100    -0.0650260
  C       -1.2095060     1.2097510     0.4687330
  C       -1.2095100    -1.2097530     0.4687280
  C       -3.1346270     0.0000030    -0.3245500
  C        0.8217770    -0.0000070     1.3091860
  C       -3.2172620    -2.5291670    -0.3215690
  C       -3.2172620     2.5291680    -0.3215670
  H       -0.6945570     2.1508370     0.6613300
  H       -0.6945650    -2.1508430     0.6613200
  H       -4.1398900     0.0000070    -0.7462250
  H        1.0275050    -0.8925940     1.8992530
  H        1.0275050     0.8925750     1.8992610
  H       -3.9060370    -2.4424280    -1.1656010
  H       -3.8011950    -2.8333800     0.5532780
  H       -2.4760175    -3.3674984    -0.5531632
  H       -3.8015320     2.8331670     0.5531290
  H       -2.5084330     3.3309140    -0.5426230
  H       -3.9057300     2.4425370    -1.1658600
units angstrom
no_reorient  #important for SAPT in psi4, default
symmetry c1  #important for SAPT in psi4, default
}

set PROPERTIES_ORIGIN ["COM"]
properties('MP2/aug-cc-pvtz', properties = ['dipole'])
--------------------------------------------------------------------------

    Molecular point group: c1
  Charge       = 0
  Multiplicity = 1
  Basis Set: AUG-CC-PVTZ
    Blend: AUG-CC-PVTZ
  Basis Set: (AUG-CC-PVTZ AUX)
    Blend: AUG-CC-PVTZ-JKFIT + DEF2-UNIVERSAL-JKFIT

    Orbital Energies [Eh]
    ---------------------

    Doubly Occupied:

       1A    -11.290408     2A    -11.254222     3A    -11.249694
       4A    -11.249453     5A    -11.234260     6A    -11.233417
       7A    -11.233329     8A    -11.231650     9A    -11.228452
      10A     -7.706232    11A     -5.537679    12A     -5.528397
      13A     -5.528387    14A     -2.266893    15A     -2.262478
      16A     -2.262454    17A     -2.252193    18A     -2.252192
      19A     -1.165378    20A     -1.073151    21A     -1.060661
      22A     -0.969461    23A     -0.937568    24A     -0.931654
      25A     -0.849215    26A     -0.790028    27A     -0.783176
      28A     -0.682385    29A     -0.666613    30A     -0.617773
      31A     -0.588704    32A     -0.585303    33A     -0.573802
      34A     -0.571913    35A     -0.563789    36A     -0.552526
      37A     -0.523294    38A     -0.511059    39A     -0.489485
      40A     -0.485254    41A     -0.444616    42A     -0.359495
      43A     -0.357245    44A     -0.324978    45A     -0.319124

  @DF-RHF Final Energy:  -642.00582339454388

   => Energetics <=

    Nuclear Repulsion Energy =            614.4311272592865407
    One-Electron Energy =               -2203.7150205651510078
    Two-Electron Energy =                 947.2780699113205856
    Total Energy =                       -642.0058233945438815
  Basis Set: (AUG-CC-PVTZ AUX)
    Blend: AUG-CC-PVTZ-RI + DEF2-QZVPP-RI
    Molecular point group: c1

    Geometry (in Angstrom), charge = 0, multiplicity = 1:

       Center              X                  Y                   Z               Mass
    ------------   -----------------  -----------------  -----------------  -----------------
         I            2.048947980926     0.000151065621    -0.222620863887   126.904471900000
         C           -0.850033019074     0.000146065621     0.766771136113    12.000000000000
         C           -2.799419019074    -1.225154934379    -0.035211863887    12.000000000000
         C           -2.799412019074     1.225460065621    -0.035205863887    12.000000000000
         C           -1.505318019074     1.209901065621     0.498553136113    12.000000000000
         C           -1.505322019074    -1.209602934379     0.498548136113    12.000000000000
         C           -3.430439019074     0.000153065621    -0.294729863887    12.000000000000
         C            0.525964980926     0.000143065621     1.339006136113    12.000000000000
         C           -3.513074019074    -2.529016934379    -0.291748863887    12.000000000000
         C           -3.513074019074     2.529318065621    -0.291746863887    12.000000000000
         H           -0.990369019074     2.150987065621     0.691150136113     1.007825032230
         H           -0.990377019074    -2.150692934379     0.691140136113     1.007825032230
         H           -4.435702019074     0.000157065621    -0.716404863887     1.007825032230
         H            0.731692980926    -0.892443934379     1.929073136113     1.007825032230
         H            0.731692980926     0.892725065621     1.929081136113     1.007825032230
         H           -4.201849019074    -2.442277934379    -1.135780863887     1.007825032230
         H           -4.097007019074    -2.833229934379     0.583098136113     1.007825032230
         H           -2.771829519074    -3.367348334379    -0.523343063887     1.007825032230
         H           -4.097344019074     2.833317065621     0.582949136113     1.007825032230
         H           -2.804245019074     3.331064065621    -0.512802863887     1.007825032230
         H           -4.201542019074     2.442687065621    -1.136039863887     1.007825032230

  Basis Set: AUG-CC-PVTZ
    Blend: AUG-CC-PVTZ
  Basis Set: (AUG-CC-PVTZ AUX)
    Blend: AUG-CC-PVTZ-JKFIT + DEF2-UNIVERSAL-JKFIT
	 Reference Energy          =    -642.0058233945438815 [Eh]
	 Singles Energy            =      -0.0000000000000000 [Eh]
	 Same-Spin Energy          =      -0.4675786851623526 [Eh]
	 Opposite-Spin Energy      =      -1.4529227508691889 [Eh]
	 Correlation Energy        =      -1.9205014360315413 [Eh]
	 Total Energy              =    -643.9263248305753677 [Eh]

	 ================> DF-SCS-MP2 Energies <==================
	-----------------------------------------------------------
	 SCS Same-Spin Scale       =       0.3333333333333333 [-]
	 SCS Opposite-Spin Scale   =       1.2000000000000000 [-]
	 SCS Same-Spin Energy      =      -0.1558595617207842 [Eh]
	 SCS Opposite-Spin Energy  =      -1.7435073010430266 [Eh]
	 SCS Correlation Energy    =      -1.8993668627638107 [Eh]
	 SCS Total Energy          =    -643.9051902573077086 [Eh]
	-----------------------------------------------------------

  Dipole Moment: [D]
     X:    -2.1043      Y:     0.0291      Z:     0.8915     Total:     2.2856

*** Psi4 exiting successfully. Buy a developer a beer!
