                               Psi4 1.4a3.dev225

  ==> Input File <==

--------------------------------------------------------------------------
#psi4
#
memory 32 gb

molecule  {
0 1
  I        2.3447600     0.0000010    -0.2524410
  C       -0.5542210    -0.0000040     0.7369510
  C       -2.5036070    -1.2253050    -0.0650320
  C       -2.5036000     1.2253100    -0.0650260
  C       -1.2095060     1.2097510     0.4687330
  C       -1.2095100    -1.2097530     0.4687280
  C       -3.1346270     0.0000030    -0.3245500
  C        0.8217770    -0.0000070     1.3091860
  C       -3.2172620    -2.5291670    -0.3215690
  C       -3.2172620     2.5291680    -0.3215670
  H       -0.6945570     2.1508370     0.6613300
  H       -0.6945650    -2.1508430     0.6613200
  H       -4.1398900     0.0000070    -0.7462250
  H        1.0275050    -0.8925940     1.8992530
  H        1.0275050     0.8925750     1.8992610
  H       -3.7799860    -2.4583019    -1.0111368
  H       -3.8011950    -2.8333800     0.5532780
  H       -2.5084500    -3.3308180    -0.5430300
  H       -3.8015320     2.8331670     0.5531290
  H       -2.5084330     3.3309140    -0.5426230
  H       -3.9057300     2.4425370    -1.1658600
units angstrom
no_reorient  #important for SAPT in psi4, default
symmetry c1  #important for SAPT in psi4, default
}

set PROPERTIES_ORIGIN ["COM"]
properties('MP2/aug-cc-pvtz', properties = ['dipole'])
--------------------------------------------------------------------------

    Molecular point group: c1
  Charge       = 0
  Multiplicity = 1
  Basis Set: AUG-CC-PVTZ
    Blend: AUG-CC-PVTZ
  Basis Set: (AUG-CC-PVTZ AUX)
    Blend: AUG-CC-PVTZ-JKFIT + DEF2-UNIVERSAL-JKFIT

    Orbital Energies [Eh]
    ---------------------

    Doubly Occupied:

       1A    -11.290000     2A    -11.253583     3A    -11.249070
       4A    -11.247998     5A    -11.232790     6A    -11.232170
       7A    -11.231153     8A    -11.228158     9A    -11.203737
      10A     -7.705930    11A     -5.537373    12A     -5.528098
      13A     -5.528088    14A     -2.266586    15A     -2.262173
      16A     -2.262150    17A     -2.251896    18A     -2.251896
      19A     -1.165190    20A     -1.075021    21A     -1.064551
      22A     -0.977326    23A     -0.947755    24A     -0.935368
      25A     -0.849276    26A     -0.794857    27A     -0.784439
      28A     -0.682743    29A     -0.669358    30A     -0.622418
      31A     -0.602346    32A     -0.586556    33A     -0.577308
      34A     -0.572452    35A     -0.566056    36A     -0.560893
      37A     -0.531291    38A     -0.510871    39A     -0.490434
      40A     -0.484574    41A     -0.444429    42A     -0.359201
      43A     -0.356950    44A     -0.324454    45A     -0.318807

  @DF-RHF Final Energy:  -641.97365709410201

   => Energetics <=

    Nuclear Repulsion Energy =            615.6503063244218765
    One-Electron Energy =               -2206.0123779416835532
    Two-Electron Energy =                 948.3884145231597813
    Total Energy =                       -641.9736570941020091
  Basis Set: (AUG-CC-PVTZ AUX)
    Blend: AUG-CC-PVTZ-RI + DEF2-QZVPP-RI
    Molecular point group: c1

    Geometry (in Angstrom), charge = 0, multiplicity = 1:

       Center              X                  Y                   Z               Mass
    ------------   -----------------  -----------------  -----------------  -----------------
         I            2.048564425262     0.000065821242    -0.223295220613   126.904471900000
         C           -0.850416574738     0.000060821242     0.766096779387    12.000000000000
         C           -2.799802574738    -1.225240178758    -0.035886220613    12.000000000000
         C           -2.799795574738     1.225374821242    -0.035880220613    12.000000000000
         C           -1.505701574738     1.209815821242     0.497878779387    12.000000000000
         C           -1.505705574738    -1.209688178758     0.497873779387    12.000000000000
         C           -3.430822574738     0.000067821242    -0.295404220613    12.000000000000
         C            0.525581425262     0.000057821242     1.338331779387    12.000000000000
         C           -3.513457574738    -2.529102178758    -0.292423220613    12.000000000000
         C           -3.513457574738     2.529232821242    -0.292421220613    12.000000000000
         H           -0.990752574738     2.150901821242     0.690475779387     1.007825032230
         H           -0.990760574738    -2.150778178758     0.690465779387     1.007825032230
         H           -4.436085574738     0.000071821242    -0.717079220613     1.007825032230
         H            0.731309425262    -0.892529178758     1.928398779387     1.007825032230
         H            0.731309425262     0.892639821242     1.928406779387     1.007825032230
         H           -4.076181574738    -2.458237078758    -0.981991020613     1.007825032230
         H           -4.097390574738    -2.833315178758     0.582423779387     1.007825032230
         H           -2.804645574738    -3.330753178758    -0.513884220613     1.007825032230
         H           -4.097727574738     2.833231821242     0.582274779387     1.007825032230
         H           -2.804628574738     3.330978821242    -0.513477220613     1.007825032230
         H           -4.201925574738     2.442601821242    -1.136714220613     1.007825032230

  Basis Set: AUG-CC-PVTZ
    Blend: AUG-CC-PVTZ
  Basis Set: (AUG-CC-PVTZ AUX)
    Blend: AUG-CC-PVTZ-JKFIT + DEF2-UNIVERSAL-JKFIT
	 Reference Energy          =    -641.9736570941020091 [Eh]
	 Singles Energy            =      -0.0000000000000000 [Eh]
	 Same-Spin Energy          =      -0.4676288110715327 [Eh]
	 Opposite-Spin Energy      =      -1.4518898328601346 [Eh]
	 Correlation Energy        =      -1.9195186439316674 [Eh]
	 Total Energy              =    -643.8931757380337331 [Eh]

	 ================> DF-SCS-MP2 Energies <==================
	-----------------------------------------------------------
	 SCS Same-Spin Scale       =       0.3333333333333333 [-]
	 SCS Opposite-Spin Scale   =       1.2000000000000000 [-]
	 SCS Same-Spin Energy      =      -0.1558762703571775 [Eh]
	 SCS Opposite-Spin Energy  =      -1.7422677994321616 [Eh]
	 SCS Correlation Energy    =      -1.8981440697893392 [Eh]
	 SCS Total Energy          =    -643.8718011638914049 [Eh]
	-----------------------------------------------------------

  Dipole Moment: [D]
     X:    -2.1621      Y:    -0.0342      Z:     0.8397     Total:     2.3197

*** Psi4 exiting successfully. Buy a developer a beer!
