                               Psi4 1.4a3.dev225

  ==> Input File <==

--------------------------------------------------------------------------
#psi4
#
memory 32 gb

molecule  {
0 1
  I        2.3447600     0.0000010    -0.2524410
  C       -0.5542210    -0.0000040     0.7369510
  C       -2.5036070    -1.2253050    -0.0650320
  C       -2.5036000     1.2253100    -0.0650260
  C       -1.2095060     1.2097510     0.4687330
  C       -1.2279979    -1.2099752     0.4611025
  C       -3.1346270     0.0000030    -0.3245500
  C        0.8217770    -0.0000070     1.3091860
  C       -3.2172620    -2.5291670    -0.3215690
  C       -3.2172620     2.5291680    -0.3215670
  H       -0.6945570     2.1508370     0.6613300
  H       -0.6945650    -2.1508430     0.6613200
  H       -4.1398900     0.0000070    -0.7462250
  H        1.0275050    -0.8925940     1.8992530
  H        1.0275050     0.8925750     1.8992610
  H       -3.9060370    -2.4424280    -1.1656010
  H       -3.8011950    -2.8333800     0.5532780
  H       -2.5084500    -3.3308180    -0.5430300
  H       -3.8015320     2.8331670     0.5531290
  H       -2.5084330     3.3309140    -0.5426230
  H       -3.9057300     2.4425370    -1.1658600
units angstrom
no_reorient  #important for SAPT in psi4, default
symmetry c1  #important for SAPT in psi4, default
}

set PROPERTIES_ORIGIN ["COM"]
properties('MP2/aug-cc-pvtz', properties = ['dipole'])
--------------------------------------------------------------------------

    Molecular point group: c1
  Charge       = 0
  Multiplicity = 1
  Basis Set: AUG-CC-PVTZ
    Blend: AUG-CC-PVTZ
  Basis Set: (AUG-CC-PVTZ AUX)
    Blend: AUG-CC-PVTZ-JKFIT + DEF2-UNIVERSAL-JKFIT

    Orbital Energies [Eh]
    ---------------------

    Doubly Occupied:

       1A    -11.290909     2A    -11.255080     3A    -11.248956
       4A    -11.246714     5A    -11.233555     6A    -11.232974
       7A    -11.231326     8A    -11.228220     9A    -11.227953
      10A     -7.706429    11A     -5.537883    12A     -5.528589
      13A     -5.528579    14A     -2.267098    15A     -2.262677
      16A     -2.262655    17A     -2.252380    18A     -2.252379
      19A     -1.165972    20A     -1.072626    21A     -1.062500
      22A     -0.970121    23A     -0.938465    24A     -0.932810
      25A     -0.849767    26A     -0.790322    27A     -0.784078
      28A     -0.681260    29A     -0.667417    30A     -0.617841
      31A     -0.588942    32A     -0.586135    33A     -0.573528
      34A     -0.572262    35A     -0.564005    36A     -0.555106
      37A     -0.525769    38A     -0.511561    39A     -0.490961
      40A     -0.482993    41A     -0.445383    42A     -0.359609
      43A     -0.357433    44A     -0.327091    45A     -0.317574

  @DF-RHF Final Energy:  -642.00750346690563

   => Energetics <=

    Nuclear Repulsion Energy =            614.7194075310104608
    One-Electron Energy =               -2204.2820459074314385
    Two-Electron Energy =                 947.5551349095154592
    Total Energy =                       -642.0075034669056322
  Basis Set: (AUG-CC-PVTZ AUX)
    Blend: AUG-CC-PVTZ-RI + DEF2-QZVPP-RI
    Molecular point group: c1

    Geometry (in Angstrom), charge = 0, multiplicity = 1:

       Center              X                  Y                   Z               Mass
    ------------   -----------------  -----------------  -----------------  -----------------
         I            2.049982740547     0.000011625201    -0.222290389776   126.904471900000
         C           -0.848998259453     0.000006625201     0.767101610224    12.000000000000
         C           -2.798384259453    -1.225294374799    -0.034881389776    12.000000000000
         C           -2.798377259453     1.225320625201    -0.034875389776    12.000000000000
         C           -1.504283259453     1.209761625201     0.498883610224    12.000000000000
         C           -1.522775159453    -1.209964574799     0.491253110224    12.000000000000
         C           -3.429404259453     0.000013625201    -0.294399389776    12.000000000000
         C            0.526999740547     0.000003625201     1.339336610224    12.000000000000
         C           -3.512039259453    -2.529156374799    -0.291418389776    12.000000000000
         C           -3.512039259453     2.529178625201    -0.291416389776    12.000000000000
         H           -0.989334259453     2.150847625201     0.691480610224     1.007825032230
         H           -0.989342259453    -2.150832374799     0.691470610224     1.007825032230
         H           -4.434667259453     0.000017625201    -0.716074389776     1.007825032230
         H            0.732727740547    -0.892583374799     1.929403610224     1.007825032230
         H            0.732727740547     0.892585625201     1.929411610224     1.007825032230
         H           -4.200814259453    -2.442417374799    -1.135450389776     1.007825032230
         H           -4.095972259453    -2.833369374799     0.583428610224     1.007825032230
         H           -2.803227259453    -3.330807374799    -0.512879389776     1.007825032230
         H           -4.096309259453     2.833177625201     0.583279610224     1.007825032230
         H           -2.803210259453     3.330924625201    -0.512472389776     1.007825032230
         H           -4.200507259453     2.442547625201    -1.135709389776     1.007825032230

  Basis Set: AUG-CC-PVTZ
    Blend: AUG-CC-PVTZ
  Basis Set: (AUG-CC-PVTZ AUX)
    Blend: AUG-CC-PVTZ-JKFIT + DEF2-UNIVERSAL-JKFIT
	 Reference Energy          =    -642.0075034669056322 [Eh]
	 Singles Energy            =      -0.0000000000000000 [Eh]
	 Same-Spin Energy          =      -0.4675886933073768 [Eh]
	 Opposite-Spin Energy      =      -1.4525832226218374 [Eh]
	 Correlation Energy        =      -1.9201719159292141 [Eh]
	 Total Energy              =    -643.9276753828348774 [Eh]

	 ================> DF-SCS-MP2 Energies <==================
	-----------------------------------------------------------
	 SCS Same-Spin Scale       =       0.3333333333333333 [-]
	 SCS Opposite-Spin Scale   =       1.2000000000000000 [-]
	 SCS Same-Spin Energy      =      -0.1558628977691256 [Eh]
	 SCS Opposite-Spin Energy  =      -1.7430998671462048 [Eh]
	 SCS Correlation Energy    =      -1.8989627649153304 [Eh]
	 SCS Total Energy          =    -643.9064662318210139 [Eh]
	-----------------------------------------------------------

  Dipole Moment: [D]
     X:    -2.0866      Y:     0.0126      Z:     0.8861     Total:     2.2670

*** Psi4 exiting successfully. Buy a developer a beer!
