                               Psi4 1.4a3.dev225

  ==> Input File <==

--------------------------------------------------------------------------
#psi4
#
memory 32 gb

molecule  {
0 1
  I        2.3447600     0.0000010    -0.2524410
  C       -0.5542210    -0.0000040     0.7369510
  C       -2.5036070    -1.2253050    -0.0650320
  C       -2.5036000     1.2253100    -0.0650260
  C       -1.2095060     1.2097510     0.4687330
  C       -1.2095100    -1.2097530     0.4687280
  C       -3.1346270     0.0000030    -0.3245500
  C        0.8217770    -0.0000070     1.3091860
  C       -3.2172620    -2.5291670    -0.3215690
  C       -3.2172620     2.5291680    -0.3215670
  H       -0.6945570     2.1508370     0.6613300
  H       -0.6945650    -2.1508430     0.6613200
  H       -4.1398900     0.0000070    -0.7462250
  H        1.0475019    -0.8468287     1.9566085
  H        1.0275050     0.8925750     1.8992610
  H       -3.9060370    -2.4424280    -1.1656010
  H       -3.8011950    -2.8333800     0.5532780
  H       -2.5084500    -3.3308180    -0.5430300
  H       -3.8015320     2.8331670     0.5531290
  H       -2.5084330     3.3309140    -0.5426230
  H       -3.9057300     2.4425370    -1.1658600
units angstrom
no_reorient  #important for SAPT in psi4, default
symmetry c1  #important for SAPT in psi4, default
}

set PROPERTIES_ORIGIN ["COM"]
properties('MP2/aug-cc-pvtz', properties = ['dipole'])
--------------------------------------------------------------------------

    Molecular point group: c1
  Charge       = 0
  Multiplicity = 1
  Basis Set: AUG-CC-PVTZ
    Blend: AUG-CC-PVTZ
  Basis Set: (AUG-CC-PVTZ AUX)
    Blend: AUG-CC-PVTZ-JKFIT + DEF2-UNIVERSAL-JKFIT

    Orbital Energies [Eh]
    ---------------------

    Doubly Occupied:

       1A    -11.289715     2A    -11.254451     3A    -11.249159
       4A    -11.249044     5A    -11.233374     6A    -11.233045
       7A    -11.231255     8A    -11.228268     9A    -11.228172
      10A     -7.706617    11A     -5.538088    12A     -5.528766
      13A     -5.528758    14A     -2.267301    15A     -2.262864
      16A     -2.262853    17A     -2.252540    18A     -2.252539
      19A     -1.165069    20A     -1.072600    21A     -1.061062
      22A     -0.969983    23A     -0.938580    24A     -0.932827
      25A     -0.849293    26A     -0.790603    27A     -0.784483
      28A     -0.682436    29A     -0.665307    30A     -0.619890
      31A     -0.585926    32A     -0.583275    33A     -0.573629
      34A     -0.573407    35A     -0.563910    36A     -0.555632
      37A     -0.525311    38A     -0.511723    39A     -0.489365
      40A     -0.485204    41A     -0.445303    42A     -0.360060
      43A     -0.357128    44A     -0.324763    45A     -0.319179

  @DF-RHF Final Energy:  -642.00737616687729

   => Energetics <=

    Nuclear Repulsion Energy =            614.5239394509338808
    One-Electron Energy =               -2203.8971152874742074
    Two-Electron Energy =                 947.3657996696629198
    Total Energy =                       -642.0073761668772931
  Basis Set: (AUG-CC-PVTZ AUX)
    Blend: AUG-CC-PVTZ-RI + DEF2-QZVPP-RI
    Molecular point group: c1

    Geometry (in Angstrom), charge = 0, multiplicity = 1:

       Center              X                  Y                   Z               Mass
    ------------   -----------------  -----------------  -----------------  -----------------
         I            2.048998929668    -0.000186715002    -0.222897365574   126.904471900000
         C           -0.849982070332    -0.000191715002     0.766494634426    12.000000000000
         C           -2.799368070332    -1.225492715002    -0.035488365574    12.000000000000
         C           -2.799361070332     1.225122284998    -0.035482365574    12.000000000000
         C           -1.505267070332     1.209563284998     0.498276634426    12.000000000000
         C           -1.505271070332    -1.209940715002     0.498271634426    12.000000000000
         C           -3.430388070332    -0.000184715002    -0.295006365574    12.000000000000
         C            0.526015929668    -0.000194715002     1.338729634426    12.000000000000
         C           -3.513023070332    -2.529354715002    -0.292025365574    12.000000000000
         C           -3.513023070332     2.528980284998    -0.292023365574    12.000000000000
         H           -0.990318070332     2.150649284998     0.690873634426     1.007825032230
         H           -0.990326070332    -2.151030715002     0.690863634426     1.007825032230
         H           -4.435651070332    -0.000180715002    -0.716681365574     1.007825032230
         H            0.751740829668    -0.847016415002     1.986152134426     1.007825032230
         H            0.731743929668     0.892387284998     1.928804634426     1.007825032230
         H           -4.201798070332    -2.442615715002    -1.136057365574     1.007825032230
         H           -4.096956070332    -2.833567715002     0.582821634426     1.007825032230
         H           -2.804211070332    -3.331005715002    -0.513486365574     1.007825032230
         H           -4.097293070332     2.832979284998     0.582672634426     1.007825032230
         H           -2.804194070332     3.330726284998    -0.513079365574     1.007825032230
         H           -4.201491070332     2.442349284998    -1.136316365574     1.007825032230

  Basis Set: AUG-CC-PVTZ
    Blend: AUG-CC-PVTZ
  Basis Set: (AUG-CC-PVTZ AUX)
    Blend: AUG-CC-PVTZ-JKFIT + DEF2-UNIVERSAL-JKFIT
	 Reference Energy          =    -642.0073761668772931 [Eh]
	 Singles Energy            =      -0.0000000000000000 [Eh]
	 Same-Spin Energy          =      -0.4675291689625605 [Eh]
	 Opposite-Spin Energy      =      -1.4525792791694396 [Eh]
	 Correlation Energy        =      -1.9201084481320001 [Eh]
	 Total Energy              =    -643.9274846150093481 [Eh]

	 ================> DF-SCS-MP2 Energies <==================
	-----------------------------------------------------------
	 SCS Same-Spin Scale       =       0.3333333333333333 [-]
	 SCS Opposite-Spin Scale   =       1.2000000000000000 [-]
	 SCS Same-Spin Energy      =      -0.1558430563208535 [Eh]
	 SCS Opposite-Spin Energy  =      -1.7430951350033275 [Eh]
	 SCS Correlation Energy    =      -1.8989381913241810 [Eh]
	 SCS Total Energy          =    -643.9063143582014845 [Eh]
	-----------------------------------------------------------

  Dipole Moment: [D]
     X:    -2.0796      Y:     0.0121      Z:     0.8938     Total:     2.2635

*** Psi4 exiting successfully. Buy a developer a beer!
