                               Psi4 1.4a3.dev225

  ==> Input File <==

--------------------------------------------------------------------------
#psi4
#
memory 32 gb

molecule  {
0 1
  I        2.3447600     0.0000010    -0.2524410
  C       -0.5542210    -0.0000040     0.7369510
  C       -2.5036070    -1.2253050    -0.0650320
  C       -2.5036000     1.2253100    -0.0650260
  C       -1.2095060     1.2097510     0.4687330
  C       -1.2095100    -1.2097530     0.4687280
  C       -3.1346270     0.0000030    -0.3245500
  C        0.6821383    -0.0000077     1.4523678
  C       -3.2172620    -2.5291670    -0.3215690
  C       -3.2172620     2.5291680    -0.3215670
  H       -0.6945570     2.1508370     0.6613300
  H       -0.6945650    -2.1508430     0.6613200
  H       -4.1398900     0.0000070    -0.7462250
  H        1.0275050    -0.8925940     1.8992530
  H        1.0275050     0.8925750     1.8992610
  H       -3.9060370    -2.4424280    -1.1656010
  H       -3.8011950    -2.8333800     0.5532780
  H       -2.5084500    -3.3308180    -0.5430300
  H       -3.8015320     2.8331670     0.5531290
  H       -2.5084330     3.3309140    -0.5426230
  H       -3.9057300     2.4425370    -1.1658600
units angstrom
no_reorient  #important for SAPT in psi4, default
symmetry c1  #important for SAPT in psi4, default
}

set PROPERTIES_ORIGIN ["COM"]
properties('MP2/aug-cc-pvtz', properties = ['dipole'])
--------------------------------------------------------------------------

    Molecular point group: c1
  Charge       = 0
  Multiplicity = 1
  Basis Set: AUG-CC-PVTZ
    Blend: AUG-CC-PVTZ
  Basis Set: (AUG-CC-PVTZ AUX)
    Blend: AUG-CC-PVTZ-JKFIT + DEF2-UNIVERSAL-JKFIT

    Orbital Energies [Eh]
    ---------------------

    Doubly Occupied:

       1A    -11.302675     2A    -11.257322     3A    -11.254487
       4A    -11.254454     5A    -11.241421     6A    -11.241367
       7A    -11.239136     8A    -11.232112     9A    -11.232111
      10A     -7.688308    11A     -5.518937    12A     -5.510786
      13A     -5.510754    14A     -2.247412    15A     -2.244010
      16A     -2.243967    17A     -2.234981    18A     -2.234980
      19A     -1.175147    20A     -1.087473    21A     -1.066649
      22A     -0.970792    23A     -0.941723    24A     -0.939248
      25A     -0.840222    26A     -0.798714    27A     -0.794975
      28A     -0.690241    29A     -0.682052    30A     -0.640492
      31A     -0.608624    32A     -0.590042    33A     -0.581178
      34A     -0.577521    35A     -0.570554    36A     -0.560178
      37A     -0.531543    38A     -0.509211    39A     -0.503068
      40A     -0.491292    41A     -0.419967    42A     -0.348287
      43A     -0.347206    44A     -0.329457    45A     -0.309729

  @DF-RHF Final Energy:  -641.99466170034691

   => Energetics <=

    Nuclear Repulsion Energy =            613.0982181786820320
    One-Electron Energy =               -2200.9961453531095685
    Two-Electron Energy =                 945.9032654740805128
    Total Energy =                       -641.9946617003469100
  Basis Set: (AUG-CC-PVTZ AUX)
    Blend: AUG-CC-PVTZ-RI + DEF2-QZVPP-RI
    Molecular point group: c1

    Geometry (in Angstrom), charge = 0, multiplicity = 1:

       Center              X                  Y                   Z               Mass
    ------------   -----------------  -----------------  -----------------  -----------------
         I            2.055892762766     0.000000819908    -0.229647126123   126.904471900000
         C           -0.843088237234    -0.000004180092     0.759744873877    12.000000000000
         C           -2.792474237234    -1.225305180092    -0.042238126123    12.000000000000
         C           -2.792467237234     1.225309819908    -0.042232126123    12.000000000000
         C           -1.498373237234     1.209750819908     0.491526873877    12.000000000000
         C           -1.498377237234    -1.209753180092     0.491521873877    12.000000000000
         C           -3.423494237234     0.000002819908    -0.301756126123    12.000000000000
         C            0.393271062766    -0.000007880092     1.475161673877    12.000000000000
         C           -3.506129237234    -2.529167180092    -0.298775126123    12.000000000000
         C           -3.506129237234     2.529167819908    -0.298773126123    12.000000000000
         H           -0.983424237234     2.150836819908     0.684123873877     1.007825032230
         H           -0.983432237234    -2.150843180092     0.684113873877     1.007825032230
         H           -4.428757237234     0.000006819908    -0.723431126123     1.007825032230
         H            0.738637762766    -0.892594180092     1.922046873877     1.007825032230
         H            0.738637762766     0.892574819908     1.922054873877     1.007825032230
         H           -4.194904237234    -2.442428180092    -1.142807126123     1.007825032230
         H           -4.090062237234    -2.833380180092     0.576071873877     1.007825032230
         H           -2.797317237234    -3.330818180092    -0.520236126123     1.007825032230
         H           -4.090399237234     2.833166819908     0.575922873877     1.007825032230
         H           -2.797300237234     3.330913819908    -0.519829126123     1.007825032230
         H           -4.194597237234     2.442536819908    -1.143066126123     1.007825032230

  Basis Set: AUG-CC-PVTZ
    Blend: AUG-CC-PVTZ
  Basis Set: (AUG-CC-PVTZ AUX)
    Blend: AUG-CC-PVTZ-JKFIT + DEF2-UNIVERSAL-JKFIT
	 Reference Energy          =    -641.9946617003469100 [Eh]
	 Singles Energy            =      -0.0000000000000000 [Eh]
	 Same-Spin Energy          =      -0.4676948037958398 [Eh]
	 Opposite-Spin Energy      =      -1.4517662563018026 [Eh]
	 Correlation Energy        =      -1.9194610600976425 [Eh]
	 Total Energy              =    -643.9141227604445703 [Eh]

	 ================> DF-SCS-MP2 Energies <==================
	-----------------------------------------------------------
	 SCS Same-Spin Scale       =       0.3333333333333333 [-]
	 SCS Opposite-Spin Scale   =       1.2000000000000000 [-]
	 SCS Same-Spin Energy      =      -0.1558982679319466 [Eh]
	 SCS Opposite-Spin Energy  =      -1.7421195075621629 [Eh]
	 SCS Correlation Energy    =      -1.8980177754941094 [Eh]
	 SCS Total Energy          =    -643.8926794758409642 [Eh]
	-----------------------------------------------------------

  Dipole Moment: [D]
     X:    -2.9383      Y:    -0.0000      Z:     1.1649     Total:     3.1608

*** Psi4 exiting successfully. Buy a developer a beer!
