                               Psi4 1.4a3.dev225

  ==> Input File <==

--------------------------------------------------------------------------
#psi4
#
memory 32 gb

molecule  {
0 1
  I        2.3447600     0.0000010    -0.2524410
  C       -0.5542210    -0.0000040     0.7369510
  C       -2.5036070    -1.2253050    -0.0650320
  C       -2.5036000     1.2253100    -0.0650260
  C       -1.3943851     1.2119738     0.3924782
  C       -1.2095100    -1.2097530     0.4687280
  C       -3.1346270     0.0000030    -0.3245500
  C        0.8217770    -0.0000070     1.3091860
  C       -3.2172620    -2.5291670    -0.3215690
  C       -3.2172620     2.5291680    -0.3215670
  H       -0.6945570     2.1508370     0.6613300
  H       -0.6945650    -2.1508430     0.6613200
  H       -4.1398900     0.0000070    -0.7462250
  H        1.0275050    -0.8925940     1.8992530
  H        1.0275050     0.8925750     1.8992610
  H       -3.9060370    -2.4424280    -1.1656010
  H       -3.8011950    -2.8333800     0.5532780
  H       -2.5084500    -3.3308180    -0.5430300
  H       -3.8015320     2.8331670     0.5531290
  H       -2.5084330     3.3309140    -0.5426230
  H       -3.9057300     2.4425370    -1.1658600
units angstrom
no_reorient  #important for SAPT in psi4, default
symmetry c1  #important for SAPT in psi4, default
}

set PROPERTIES_ORIGIN ["COM"]
properties('MP2/aug-cc-pvtz', properties = ['dipole'])
--------------------------------------------------------------------------

    Molecular point group: c1
  Charge       = 0
  Multiplicity = 1
  Basis Set: AUG-CC-PVTZ
    Blend: AUG-CC-PVTZ
  Basis Set: (AUG-CC-PVTZ AUX)
    Blend: AUG-CC-PVTZ-JKFIT + DEF2-UNIVERSAL-JKFIT

    Orbital Energies [Eh]
    ---------------------

    Doubly Occupied:

       1A    -11.295536     2A    -11.262996     3A    -11.247313
       4A    -11.236459     5A    -11.232437     6A    -11.228779
       7A    -11.227925     8A    -11.225570     9A    -11.218457
      10A     -7.708096    11A     -5.539609    12A     -5.530232
      13A     -5.530192    14A     -2.268832    15A     -2.264383
      16A     -2.264341    17A     -2.253974    18A     -2.253973
      19A     -1.179658    20A     -1.084771    21A     -1.062862
      22A     -0.970296    23A     -0.939074    24A     -0.933608
      25A     -0.854797    26A     -0.792644    27A     -0.780704
      28A     -0.674060    29A     -0.671116    30A     -0.618489
      31A     -0.590500    32A     -0.589825    33A     -0.578772
      34A     -0.573030    35A     -0.560580    36A     -0.547520
      37A     -0.522929    38A     -0.513458    39A     -0.500000
      40A     -0.454760    41A     -0.447001    42A     -0.363016
      43A     -0.359317    44A     -0.350038    45A     -0.306473

  @DF-RHF Final Energy:  -641.94627879721224

   => Energetics <=

    Nuclear Repulsion Energy =            615.8404288031653095
    One-Electron Energy =               -2206.3566053181548341
    Two-Electron Energy =                 948.5698977177773941
    Total Energy =                       -641.9462787972122442
  Basis Set: (AUG-CC-PVTZ AUX)
    Blend: AUG-CC-PVTZ-RI + DEF2-QZVPP-RI
    Molecular point group: c1

    Geometry (in Angstrom), charge = 0, multiplicity = 1:

       Center              X                  Y                   Z               Mass
    ------------   -----------------  -----------------  -----------------  -----------------
         I            2.058099696350    -0.000107647675    -0.218942490399   126.904471900000
         C           -0.840881303650    -0.000112647675     0.770449509601    12.000000000000
         C           -2.790267303650    -1.225413647675    -0.031533490399    12.000000000000
         C           -2.790260303650     1.225201352325    -0.031527490399    12.000000000000
         C           -1.681045403650     1.211865152325     0.425976709601    12.000000000000
         C           -1.496170303650    -1.209861647675     0.502226509601    12.000000000000
         C           -3.421287303650    -0.000105647675    -0.291051490399    12.000000000000
         C            0.535116696350    -0.000115647675     1.342684509601    12.000000000000
         C           -3.503922303650    -2.529275647675    -0.288070490399    12.000000000000
         C           -3.503922303650     2.529059352325    -0.288068490399    12.000000000000
         H           -0.981217303650     2.150728352325     0.694828509601     1.007825032230
         H           -0.981225303650    -2.150951647675     0.694818509601     1.007825032230
         H           -4.426550303650    -0.000101647675    -0.712726490399     1.007825032230
         H            0.740844696350    -0.892702647675     1.932751509601     1.007825032230
         H            0.740844696350     0.892466352325     1.932759509601     1.007825032230
         H           -4.192697303650    -2.442536647675    -1.132102490399     1.007825032230
         H           -4.087855303650    -2.833488647675     0.586776509601     1.007825032230
         H           -2.795110303650    -3.330926647675    -0.509531490399     1.007825032230
         H           -4.088192303650     2.833058352325     0.586627509601     1.007825032230
         H           -2.795093303650     3.330805352325    -0.509124490399     1.007825032230
         H           -4.192390303650     2.442428352325    -1.132361490399     1.007825032230

  Basis Set: AUG-CC-PVTZ
    Blend: AUG-CC-PVTZ
  Basis Set: (AUG-CC-PVTZ AUX)
    Blend: AUG-CC-PVTZ-JKFIT + DEF2-UNIVERSAL-JKFIT
	 Reference Energy          =    -641.9462787972122442 [Eh]
	 Singles Energy            =      -0.0000000000000000 [Eh]
	 Same-Spin Energy          =      -0.4673071625799506 [Eh]
	 Opposite-Spin Energy      =      -1.4542929944494083 [Eh]
	 Correlation Energy        =      -1.9216001570293590 [Eh]
	 Total Energy              =    -643.8678789542416325 [Eh]

	 ================> DF-SCS-MP2 Energies <==================
	-----------------------------------------------------------
	 SCS Same-Spin Scale       =       0.3333333333333333 [-]
	 SCS Opposite-Spin Scale   =       1.2000000000000000 [-]
	 SCS Same-Spin Energy      =      -0.1557690541933169 [Eh]
	 SCS Opposite-Spin Energy  =      -1.7451515933392898 [Eh]
	 SCS Correlation Energy    =      -1.9009206475326066 [Eh]
	 SCS Total Energy          =    -643.8471994447448878 [Eh]
	-----------------------------------------------------------

  Dipole Moment: [D]
     X:    -1.9924      Y:    -0.1677      Z:     0.8867     Total:     2.1872

*** Psi4 exiting successfully. Buy a developer a beer!
