                               Psi4 1.4a3.dev225

  ==> Input File <==

--------------------------------------------------------------------------
#psi4
#
memory 32 gb

molecule  {
0 1
  I        2.3447600     0.0000010    -0.2524410
  C       -0.5542210    -0.0000040     0.7369510
  C       -2.5036070    -1.2253050    -0.0650320
  C       -2.5036000     1.2253100    -0.0650260
  C       -1.2095060     1.2097510     0.4687330
  C       -1.2095100    -1.2097530     0.4687280
  C       -3.1346270     0.0000030    -0.3245500
  C        0.8217770    -0.0000070     1.3091860
  C       -3.2172620    -2.5291670    -0.3215690
  C       -3.2172620     2.5291680    -0.3215670
  H       -0.6945570     2.1508370     0.6613300
  H       -0.6945650    -2.1508430     0.6613200
  H       -4.1398900     0.0000070    -0.7462250
  H        1.0171244    -0.9138590     1.8694792
  H        1.0275050     0.8925750     1.8992610
  H       -3.9060370    -2.4424280    -1.1656010
  H       -3.8011950    -2.8333800     0.5532780
  H       -2.5084500    -3.3308180    -0.5430300
  H       -3.8015320     2.8331670     0.5531290
  H       -2.5084330     3.3309140    -0.5426230
  H       -3.9057300     2.4425370    -1.1658600
units angstrom
no_reorient  #important for SAPT in psi4, default
symmetry c1  #important for SAPT in psi4, default
}

set PROPERTIES_ORIGIN ["COM"]
properties('MP2/aug-cc-pvtz', properties = ['dipole'])
--------------------------------------------------------------------------

    Molecular point group: c1
  Charge       = 0
  Multiplicity = 1
  Basis Set: AUG-CC-PVTZ
    Blend: AUG-CC-PVTZ
  Basis Set: (AUG-CC-PVTZ AUX)
    Blend: AUG-CC-PVTZ-JKFIT + DEF2-UNIVERSAL-JKFIT

    Orbital Energies [Eh]
    ---------------------

    Doubly Occupied:

       1A    -11.290664     2A    -11.253981     3A    -11.249358
       4A    -11.249292     5A    -11.233348     6A    -11.233167
       7A    -11.231275     8A    -11.228372     9A    -11.228321
      10A     -7.705976    11A     -5.537410    12A     -5.528153
      13A     -5.528136    14A     -2.266623    15A     -2.262220
      16A     -2.262190    17A     -2.251957    18A     -2.251956
      19A     -1.165353    20A     -1.073427    21A     -1.061226
      22A     -0.970049    23A     -0.938615    24A     -0.933114
      25A     -0.849073    26A     -0.791191    27A     -0.782438
      28A     -0.682268    29A     -0.667994    30A     -0.616707
      31A     -0.591315    32A     -0.586015    33A     -0.573542
      34A     -0.572731    35A     -0.564323    36A     -0.555756
      37A     -0.526217    38A     -0.511198    39A     -0.489187
      40A     -0.485570    41A     -0.444212    42A     -0.359150
      43A     -0.357204    44A     -0.324982    45A     -0.318823

  @DF-RHF Final Energy:  -642.00777522469502

   => Energetics <=

    Nuclear Repulsion Energy =            614.6955006827816987
    One-Electron Energy =               -2204.2383893025207726
    Two-Electron Energy =                 947.5351133950441636
    Total Energy =                       -642.0077752246950240
  Basis Set: (AUG-CC-PVTZ AUX)
    Blend: AUG-CC-PVTZ-RI + DEF2-QZVPP-RI
    Molecular point group: c1

    Geometry (in Angstrom), charge = 0, multiplicity = 1:

       Center              X                  Y                   Z               Mass
    ------------   -----------------  -----------------  -----------------  -----------------
         I            2.049123386503     0.000087908617    -0.222540396208   126.904471900000
         C           -0.849857613497     0.000082908617     0.766851603792    12.000000000000
         C           -2.799243613497    -1.225218091383    -0.035131396208    12.000000000000
         C           -2.799236613497     1.225396908617    -0.035125396208    12.000000000000
         C           -1.505142613497     1.209837908617     0.498633603792    12.000000000000
         C           -1.505146613497    -1.209666091383     0.498628603792    12.000000000000
         C           -3.430263613497     0.000089908617    -0.294649396208    12.000000000000
         C            0.526140386503     0.000079908617     1.339086603792    12.000000000000
         C           -3.512898613497    -2.529080091383    -0.291668396208    12.000000000000
         C           -3.512898613497     2.529254908617    -0.291666396208    12.000000000000
         H           -0.990193613497     2.150923908617     0.691230603792     1.007825032230
         H           -0.990201613497    -2.150756091383     0.691220603792     1.007825032230
         H           -4.435526613497     0.000093908617    -0.716324396208     1.007825032230
         H            0.721487786503    -0.913772091383     1.899379803792     1.007825032230
         H            0.731868386503     0.892661908617     1.929161603792     1.007825032230
         H           -4.201673613497    -2.442341091383    -1.135700396208     1.007825032230
         H           -4.096831613497    -2.833293091383     0.583178603792     1.007825032230
         H           -2.804086613497    -3.330731091383    -0.513129396208     1.007825032230
         H           -4.097168613497     2.833253908617     0.583029603792     1.007825032230
         H           -2.804069613497     3.331000908617    -0.512722396208     1.007825032230
         H           -4.201366613497     2.442623908617    -1.135959396208     1.007825032230

  Basis Set: AUG-CC-PVTZ
    Blend: AUG-CC-PVTZ
  Basis Set: (AUG-CC-PVTZ AUX)
    Blend: AUG-CC-PVTZ-JKFIT + DEF2-UNIVERSAL-JKFIT
	 Reference Energy          =    -642.0077752246950240 [Eh]
	 Singles Energy            =      -0.0000000000000000 [Eh]
	 Same-Spin Energy          =      -0.4676061337952743 [Eh]
	 Opposite-Spin Energy      =      -1.4525908750710672 [Eh]
	 Correlation Energy        =      -1.9201970088663414 [Eh]
	 Total Energy              =    -643.9279722335613769 [Eh]

	 ================> DF-SCS-MP2 Energies <==================
	-----------------------------------------------------------
	 SCS Same-Spin Scale       =       0.3333333333333333 [-]
	 SCS Opposite-Spin Scale   =       1.2000000000000000 [-]
	 SCS Same-Spin Energy      =      -0.1558687112650914 [Eh]
	 SCS Opposite-Spin Energy  =      -1.7431090500852806 [Eh]
	 SCS Correlation Energy    =      -1.8989777613503720 [Eh]
	 SCS Total Energy          =    -643.9067529860453760 [Eh]
	-----------------------------------------------------------

  Dipole Moment: [D]
     X:    -2.1107      Y:    -0.0046      Z:     0.8810     Total:     2.2872

*** Psi4 exiting successfully. Buy a developer a beer!
