                               Psi4 1.4a3.dev225

  ==> Input File <==

--------------------------------------------------------------------------
#psi4
#
memory 32 gb

molecule  {
0 1
  I        2.3447600     0.0000010    -0.2524410
  C       -0.5542210    -0.0000040     0.7369510
  C       -2.5036070    -1.2253050    -0.0650320
  C       -2.5036000     1.2253100    -0.0650260
  C       -1.2095060     1.2097510     0.4687330
  C       -1.2857705    -1.1574155     0.4368279
  C       -3.1346270     0.0000030    -0.3245500
  C        0.8217770    -0.0000070     1.3091860
  C       -3.2172620    -2.5291670    -0.3215690
  C       -3.2172620     2.5291680    -0.3215670
  H       -0.6945570     2.1508370     0.6613300
  H       -0.6945650    -2.1508430     0.6613200
  H       -4.1398900     0.0000070    -0.7462250
  H        1.0275050    -0.8925940     1.8992530
  H        1.0275050     0.8925750     1.8992610
  H       -3.9060370    -2.4424280    -1.1656010
  H       -3.8011950    -2.8333800     0.5532780
  H       -2.5084500    -3.3308180    -0.5430300
  H       -3.8015320     2.8331670     0.5531290
  H       -2.5084330     3.3309140    -0.5426230
  H       -3.9057300     2.4425370    -1.1658600
units angstrom
no_reorient  #important for SAPT in psi4, default
symmetry c1  #important for SAPT in psi4, default
}

set PROPERTIES_ORIGIN ["COM"]
properties('MP2/aug-cc-pvtz', properties = ['dipole'])
--------------------------------------------------------------------------

    Molecular point group: c1
  Charge       = 0
  Multiplicity = 1
  Basis Set: AUG-CC-PVTZ
    Blend: AUG-CC-PVTZ
  Basis Set: (AUG-CC-PVTZ AUX)
    Blend: AUG-CC-PVTZ-JKFIT + DEF2-UNIVERSAL-JKFIT

    Orbital Energies [Eh]
    ---------------------

    Doubly Occupied:

       1A    -11.292965     2A    -11.253825     3A    -11.247011
       4A    -11.238633     5A    -11.234403     6A    -11.232128
       7A    -11.231855     8A    -11.228713     9A    -11.227629
      10A     -7.707202    11A     -5.538685    12A     -5.529345
      13A     -5.529332    14A     -2.267904    15A     -2.263461
      16A     -2.263444    17A     -2.253115    18A     -2.253115
      19A     -1.173252    20A     -1.074868    21A     -1.064775
      22A     -0.972966    23A     -0.938792    24A     -0.932097
      25A     -0.851766    26A     -0.794986    27A     -0.784156
      28A     -0.674925    29A     -0.669884    30A     -0.618300
      31A     -0.589896    32A     -0.587654    33A     -0.574983
      34A     -0.572575    35A     -0.559827    36A     -0.548077
      37A     -0.527122    38A     -0.513819    39A     -0.497039
      40A     -0.469934    41A     -0.448772    42A     -0.360364
      43A     -0.358102    44A     -0.333495    45A     -0.316711

  @DF-RHF Final Energy:  -641.99606648208987

   => Energetics <=

    Nuclear Repulsion Energy =            615.8424556486983192
    One-Electron Energy =               -2206.4732348247266600
    Two-Electron Energy =                 948.6347126939383543
    Total Energy =                       -641.9960664820898728
  Basis Set: (AUG-CC-PVTZ AUX)
    Blend: AUG-CC-PVTZ-RI + DEF2-QZVPP-RI
    Molecular point group: c1

    Geometry (in Angstrom), charge = 0, multiplicity = 1:

       Center              X                  Y                   Z               Mass
    ------------   -----------------  -----------------  -----------------  -----------------
         I            2.052801024451    -0.002552361127    -0.221106217444   126.904471900000
         C           -0.846179975549    -0.002557361127     0.768285782556    12.000000000000
         C           -2.795565975549    -1.227858361127    -0.033697217444    12.000000000000
         C           -2.795558975549     1.222756638873    -0.033691217444    12.000000000000
         C           -1.501464975549     1.207197638873     0.500067782556    12.000000000000
         C           -1.577729475549    -1.159968861127     0.468162682556    12.000000000000
         C           -3.426585975549    -0.002550361127    -0.293215217444    12.000000000000
         C            0.529818024451    -0.002560361127     1.340520782556    12.000000000000
         C           -3.509220975549    -2.531720361127    -0.290234217444    12.000000000000
         C           -3.509220975549     2.526614638873    -0.290232217444    12.000000000000
         H           -0.986515975549     2.148283638873     0.692664782556     1.007825032230
         H           -0.986523975549    -2.153396361127     0.692654782556     1.007825032230
         H           -4.431848975549    -0.002546361127    -0.714890217444     1.007825032230
         H            0.735546024451    -0.895147361127     1.930587782556     1.007825032230
         H            0.735546024451     0.890021638873     1.930595782556     1.007825032230
         H           -4.197995975549    -2.444981361127    -1.134266217444     1.007825032230
         H           -4.093153975549    -2.835933361127     0.584612782556     1.007825032230
         H           -2.800408975549    -3.333371361127    -0.511695217444     1.007825032230
         H           -4.093490975549     2.830613638873     0.584463782556     1.007825032230
         H           -2.800391975549     3.328360638873    -0.511288217444     1.007825032230
         H           -4.197688975549     2.439983638873    -1.134525217444     1.007825032230

  Basis Set: AUG-CC-PVTZ
    Blend: AUG-CC-PVTZ
  Basis Set: (AUG-CC-PVTZ AUX)
    Blend: AUG-CC-PVTZ-JKFIT + DEF2-UNIVERSAL-JKFIT
	 Reference Energy          =    -641.9960664820898728 [Eh]
	 Singles Energy            =      -0.0000000000000000 [Eh]
	 Same-Spin Energy          =      -0.4678726894680862 [Eh]
	 Opposite-Spin Energy      =      -1.4531166111659546 [Eh]
	 Correlation Energy        =      -1.9209893006340408 [Eh]
	 Total Energy              =    -643.9170557827238781 [Eh]

	 ================> DF-SCS-MP2 Energies <==================
	-----------------------------------------------------------
	 SCS Same-Spin Scale       =       0.3333333333333333 [-]
	 SCS Opposite-Spin Scale   =       1.2000000000000000 [-]
	 SCS Same-Spin Energy      =      -0.1559575631560287 [Eh]
	 SCS Opposite-Spin Energy  =      -1.7437399333991455 [Eh]
	 SCS Correlation Energy    =      -1.8996974965551743 [Eh]
	 SCS Total Energy          =    -643.8957639786450500 [Eh]
	-----------------------------------------------------------

  Dipole Moment: [D]
     X:    -2.0571      Y:     0.0585      Z:     0.8717     Total:     2.2350

*** Psi4 exiting successfully. Buy a developer a beer!
