                               Psi4 1.4a3.dev225

  ==> Input File <==

--------------------------------------------------------------------------
#psi4
#
memory 32 gb

molecule  {
0 1
  I        2.3447600     0.0000010    -0.2524410
  C       -0.5542210    -0.0000040     0.7369510
  C       -2.5036070    -1.2253050    -0.0650320
  C       -2.5036000     1.2253100    -0.0650260
  C       -1.2095060     1.2097510     0.4687330
  C       -1.2095100    -1.2097530     0.4687280
  C       -3.1346270     0.0000030    -0.3245500
  C        0.8217770    -0.0000070     1.3091860
  C       -3.2172620    -2.5291670    -0.3215690
  C       -3.2172620     2.5291680    -0.3215670
  H       -0.6000633     2.3235272     0.6966717
  H       -0.6945650    -2.1508430     0.6613200
  H       -4.1398900     0.0000070    -0.7462250
  H        1.0275050    -0.8925940     1.8992530
  H        1.0275050     0.8925750     1.8992610
  H       -3.9060370    -2.4424280    -1.1656010
  H       -3.8011950    -2.8333800     0.5532780
  H       -2.5084500    -3.3308180    -0.5430300
  H       -3.8015320     2.8331670     0.5531290
  H       -2.5084330     3.3309140    -0.5426230
  H       -3.9057300     2.4425370    -1.1658600
units angstrom
no_reorient  #important for SAPT in psi4, default
symmetry c1  #important for SAPT in psi4, default
}

set PROPERTIES_ORIGIN ["COM"]
properties('MP2/aug-cc-pvtz', properties = ['dipole'])
--------------------------------------------------------------------------

    Molecular point group: c1
  Charge       = 0
  Multiplicity = 1
  Basis Set: AUG-CC-PVTZ
    Blend: AUG-CC-PVTZ
  Basis Set: (AUG-CC-PVTZ AUX)
    Blend: AUG-CC-PVTZ-JKFIT + DEF2-UNIVERSAL-JKFIT

    Orbital Energies [Eh]
    ---------------------

    Doubly Occupied:

       1A    -11.290262     2A    -11.256953     3A    -11.254943
       4A    -11.251749     5A    -11.250482     6A    -11.235125
       7A    -11.233199     8A    -11.229178     9A    -11.228311
      10A     -7.706049    11A     -5.537505    12A     -5.528210
      13A     -5.528198    14A     -2.266719    15A     -2.262296
      16A     -2.262276    17A     -2.251997    18A     -2.251997
      19A     -1.166031    20A     -1.073841    21A     -1.060575
      22A     -0.970280    23A     -0.938845    24A     -0.928732
      25A     -0.848855    26A     -0.788955    27A     -0.781729
      28A     -0.668790    29A     -0.666461    30A     -0.616699
      31A     -0.588604    32A     -0.586683    33A     -0.573970
      34A     -0.572684    35A     -0.558441    36A     -0.542693
      37A     -0.525872    38A     -0.511823    39A     -0.490332
      40A     -0.477616    41A     -0.445191    42A     -0.359418
      43A     -0.357009    44A     -0.326445    45A     -0.320331

  @DF-RHF Final Energy:  -641.98587382882829

   => Energetics <=

    Nuclear Repulsion Energy =            613.6832096880859808
    One-Electron Energy =               -2202.1934626659672176
    Two-Electron Energy =                 946.5243791490529475
    Total Energy =                       -641.9858738288282893
  Basis Set: (AUG-CC-PVTZ AUX)
    Blend: AUG-CC-PVTZ-RI + DEF2-QZVPP-RI
    Molecular point group: c1

    Geometry (in Angstrom), charge = 0, multiplicity = 1:

       Center              X                  Y                   Z               Mass
    ------------   -----------------  -----------------  -----------------  -----------------
         I            2.048693715746    -0.000706727225    -0.222807174878   126.904471900000
         C           -0.850287284254    -0.000711727225     0.766584825122    12.000000000000
         C           -2.799673284254    -1.226012727225    -0.035398174878    12.000000000000
         C           -2.799666284254     1.224602272775    -0.035392174878    12.000000000000
         C           -1.505572284254     1.209043272775     0.498366825122    12.000000000000
         C           -1.505576284254    -1.210460727225     0.498361825122    12.000000000000
         C           -3.430693284254    -0.000704727225    -0.294916174878    12.000000000000
         C            0.525710715746    -0.000714727225     1.338819825122    12.000000000000
         C           -3.513328284254    -2.529874727225    -0.291935174878    12.000000000000
         C           -3.513328284254     2.528460272775    -0.291933174878    12.000000000000
         H           -0.896129584254     2.322819472775     0.726305525122     1.007825032230
         H           -0.990631284254    -2.151550727225     0.690953825122     1.007825032230
         H           -4.435956284254    -0.000700727225    -0.716591174878     1.007825032230
         H            0.731438715746    -0.893301727225     1.928886825122     1.007825032230
         H            0.731438715746     0.891867272775     1.928894825122     1.007825032230
         H           -4.202103284254    -2.443135727225    -1.135967174878     1.007825032230
         H           -4.097261284254    -2.834087727225     0.582911825122     1.007825032230
         H           -2.804516284254    -3.331525727225    -0.513396174878     1.007825032230
         H           -4.097598284254     2.832459272775     0.582762825122     1.007825032230
         H           -2.804499284254     3.330206272775    -0.512989174878     1.007825032230
         H           -4.201796284254     2.441829272775    -1.136226174878     1.007825032230

  Basis Set: AUG-CC-PVTZ
    Blend: AUG-CC-PVTZ
  Basis Set: (AUG-CC-PVTZ AUX)
    Blend: AUG-CC-PVTZ-JKFIT + DEF2-UNIVERSAL-JKFIT
	 Reference Energy          =    -641.9858738288282893 [Eh]
	 Singles Energy            =      -0.0000000000000000 [Eh]
	 Same-Spin Energy          =      -0.4682278943709820 [Eh]
	 Opposite-Spin Energy      =      -1.4548595405681524 [Eh]
	 Correlation Energy        =      -1.9230874349391343 [Eh]
	 Total Energy              =    -643.9089612637674236 [Eh]

	 ================> DF-SCS-MP2 Energies <==================
	-----------------------------------------------------------
	 SCS Same-Spin Scale       =       0.3333333333333333 [-]
	 SCS Opposite-Spin Scale   =       1.2000000000000000 [-]
	 SCS Same-Spin Energy      =      -0.1560759647903273 [Eh]
	 SCS Opposite-Spin Energy  =      -1.7458314486817827 [Eh]
	 SCS Correlation Energy    =      -1.9019074134721101 [Eh]
	 SCS Total Energy          =    -643.8877812423004343 [Eh]
	-----------------------------------------------------------

  Dipole Moment: [D]
     X:    -2.1509      Y:    -0.0865      Z:     0.8591     Total:     2.3177

*** Psi4 exiting successfully. Buy a developer a beer!
