                               Psi4 1.4a3.dev225

  ==> Input File <==

--------------------------------------------------------------------------
#psi4
#
memory 32 gb

molecule  {
0 1
  I        2.3447600     0.0000010    -0.2524410
  C       -0.5542210    -0.0000040     0.7369510
  C       -2.5036070    -1.2253050    -0.0650320
  C       -2.5036000     1.2253100    -0.0650260
  C       -1.2126599     1.3074019     0.4702819
  C       -1.2095100    -1.2097530     0.4687280
  C       -3.1346270     0.0000030    -0.3245500
  C        0.8217770    -0.0000070     1.3091860
  C       -3.2172620    -2.5291670    -0.3215690
  C       -3.2172620     2.5291680    -0.3215670
  H       -0.6945570     2.1508370     0.6613300
  H       -0.6945650    -2.1508430     0.6613200
  H       -4.1398900     0.0000070    -0.7462250
  H        1.0275050    -0.8925940     1.8992530
  H        1.0275050     0.8925750     1.8992610
  H       -3.9060370    -2.4424280    -1.1656010
  H       -3.8011950    -2.8333800     0.5532780
  H       -2.5084500    -3.3308180    -0.5430300
  H       -3.8015320     2.8331670     0.5531290
  H       -2.5084330     3.3309140    -0.5426230
  H       -3.9057300     2.4425370    -1.1658600
units angstrom
no_reorient  #important for SAPT in psi4, default
symmetry c1  #important for SAPT in psi4, default
}

set PROPERTIES_ORIGIN ["COM"]
properties('MP2/aug-cc-pvtz', properties = ['dipole'])
--------------------------------------------------------------------------

    Molecular point group: c1
  Charge       = 0
  Multiplicity = 1
  Basis Set: AUG-CC-PVTZ
    Blend: AUG-CC-PVTZ
  Basis Set: (AUG-CC-PVTZ AUX)
    Blend: AUG-CC-PVTZ-JKFIT + DEF2-UNIVERSAL-JKFIT

    Orbital Energies [Eh]
    ---------------------

    Doubly Occupied:

       1A    -11.289956     2A    -11.263331     3A    -11.251935
       4A    -11.250404     5A    -11.234378     6A    -11.234240
       7A    -11.231429     8A    -11.229443     9A    -11.225236
      10A     -7.706184    11A     -5.537633    12A     -5.528350
      13A     -5.528332    14A     -2.266846    15A     -2.262434
      16A     -2.262402    17A     -2.252142    18A     -2.252142
      19A     -1.158987    20A     -1.069551    21A     -1.063183
      22A     -0.966310    23A     -0.939887    24A     -0.932711
      25A     -0.849697    26A     -0.794913    27A     -0.775960
      28A     -0.692827    29A     -0.664474    30A     -0.620000
      31A     -0.590290    32A     -0.585361    33A     -0.576661
      34A     -0.572335    35A     -0.569555    36A     -0.556401
      37A     -0.522529    38A     -0.509137    39A     -0.493997
      40A     -0.474733    41A     -0.443448    42A     -0.359226
      43A     -0.357282    44A     -0.327352    45A     -0.312584

  @DF-RHF Final Energy:  -641.99436383498005

   => Energetics <=

    Nuclear Repulsion Energy =            613.1317048281862299
    One-Electron Energy =               -2201.0797195404843478
    Two-Electron Energy =                 945.9536508773180685
    Total Energy =                       -641.9943638349800494
  Basis Set: (AUG-CC-PVTZ AUX)
    Blend: AUG-CC-PVTZ-RI + DEF2-QZVPP-RI
    Molecular point group: c1

    Geometry (in Angstrom), charge = 0, multiplicity = 1:

       Center              X                  Y                   Z               Mass
    ------------   -----------------  -----------------  -----------------  -----------------
         I            2.049234711803    -0.004762855823    -0.222737938681   126.904471900000
         C           -0.849746288197    -0.004767855823     0.766654061319    12.000000000000
         C           -2.799132288197    -1.230068855823    -0.035328938681    12.000000000000
         C           -2.799125288197     1.220546144177    -0.035322938681    12.000000000000
         C           -1.508185188197     1.302638044177     0.499984961319    12.000000000000
         C           -1.505035288197    -1.214516855823     0.498431061319    12.000000000000
         C           -3.430152288197    -0.004760855823    -0.294846938681    12.000000000000
         C            0.526251711803    -0.004770855823     1.338889061319    12.000000000000
         C           -3.512787288197    -2.533930855823    -0.291865938681    12.000000000000
         C           -3.512787288197     2.524404144177    -0.291863938681    12.000000000000
         H           -0.990082288197     2.146073144177     0.691033061319     1.007825032230
         H           -0.990090288197    -2.155606855823     0.691023061319     1.007825032230
         H           -4.435415288197    -0.004756855823    -0.716521938681     1.007825032230
         H            0.731979711803    -0.897357855823     1.928956061319     1.007825032230
         H            0.731979711803     0.887811144177     1.928964061319     1.007825032230
         H           -4.201562288197    -2.447191855823    -1.135897938681     1.007825032230
         H           -4.096720288197    -2.838143855823     0.582981061319     1.007825032230
         H           -2.803975288197    -3.335581855823    -0.513326938681     1.007825032230
         H           -4.097057288197     2.828403144177     0.582832061319     1.007825032230
         H           -2.803958288197     3.326150144177    -0.512919938681     1.007825032230
         H           -4.201255288197     2.437773144177    -1.136156938681     1.007825032230

  Basis Set: AUG-CC-PVTZ
    Blend: AUG-CC-PVTZ
  Basis Set: (AUG-CC-PVTZ AUX)
    Blend: AUG-CC-PVTZ-JKFIT + DEF2-UNIVERSAL-JKFIT
	 Reference Energy          =    -641.9943638349800494 [Eh]
	 Singles Energy            =      -0.0000000000000000 [Eh]
	 Same-Spin Energy          =      -0.4676099934519138 [Eh]
	 Opposite-Spin Energy      =      -1.4534506544971131 [Eh]
	 Correlation Energy        =      -1.9210606479490269 [Eh]
	 Total Energy              =    -643.9154244829290974 [Eh]

	 ================> DF-SCS-MP2 Energies <==================
	-----------------------------------------------------------
	 SCS Same-Spin Scale       =       0.3333333333333333 [-]
	 SCS Opposite-Spin Scale   =       1.2000000000000000 [-]
	 SCS Same-Spin Energy      =      -0.1558699978173046 [Eh]
	 SCS Opposite-Spin Energy  =      -1.7441407853965356 [Eh]
	 SCS Correlation Energy    =      -1.9000107832138402 [Eh]
	 SCS Total Energy          =    -643.8943746181938650 [Eh]
	-----------------------------------------------------------

  Dipole Moment: [D]
     X:    -2.1074      Y:    -0.0457      Z:     0.8998     Total:     2.2919

*** Psi4 exiting successfully. Buy a developer a beer!
