                               Psi4 1.4a3.dev225

  ==> Input File <==

--------------------------------------------------------------------------
#psi4
#
memory 32 gb

molecule  {
0 1
  I        2.3447600     0.0000010    -0.2524410
  C       -0.5542210    -0.0000040     0.7369510
  C       -2.5036070    -1.2253050    -0.0650320
  C       -2.5036000     1.2253100    -0.0650260
  C       -1.2095060     1.2097510     0.4687330
  C       -1.2095100    -1.2097530     0.4687280
  C       -3.1346270     0.0000030    -0.3245500
  C        0.8217770    -0.0000070     1.3091860
  C       -3.2172620    -2.5291670    -0.3215690
  C       -3.2172620     2.5291680    -0.3215670
  H       -0.6945570     2.1508370     0.6613300
  H       -0.6945650    -2.1508430     0.6613200
  H       -4.1398900     0.0000070    -0.7462250
  H        1.0275050    -0.8925940     1.8992530
  H        1.0275050     0.8925750     1.8992610
  H       -3.9375497    -2.4384595    -1.2042170
  H       -3.8011950    -2.8333800     0.5532780
  H       -2.5084500    -3.3308180    -0.5430300
  H       -3.8015320     2.8331670     0.5531290
  H       -2.5084330     3.3309140    -0.5426230
  H       -3.9057300     2.4425370    -1.1658600
units angstrom
no_reorient  #important for SAPT in psi4, default
symmetry c1  #important for SAPT in psi4, default
}

set PROPERTIES_ORIGIN ["COM"]
properties('MP2/aug-cc-pvtz', properties = ['dipole'])
--------------------------------------------------------------------------

    Molecular point group: c1
  Charge       = 0
  Multiplicity = 1
  Basis Set: AUG-CC-PVTZ
    Blend: AUG-CC-PVTZ
  Basis Set: (AUG-CC-PVTZ AUX)
    Blend: AUG-CC-PVTZ-JKFIT + DEF2-UNIVERSAL-JKFIT

    Orbital Energies [Eh]
    ---------------------

    Doubly Occupied:

       1A    -11.290487     2A    -11.254332     3A    -11.249690
       4A    -11.249337     5A    -11.234268     6A    -11.233627
       7A    -11.233424     8A    -11.231357     9A    -11.228366
      10A     -7.706290    11A     -5.537737    12A     -5.528455
      13A     -5.528445    14A     -2.266951    15A     -2.262536
      16A     -2.262512    17A     -2.252251    18A     -2.252250
      19A     -1.165390    20A     -1.073068    21A     -1.060768
      22A     -0.969325    23A     -0.937971    24A     -0.931380
      25A     -0.849165    26A     -0.790593    27A     -0.782693
      28A     -0.682389    29A     -0.666778    30A     -0.617501
      31A     -0.588286    32A     -0.585150    33A     -0.573395
      34A     -0.572853    35A     -0.564164    36A     -0.552392
      37A     -0.523010    38A     -0.511586    39A     -0.488589
      40A     -0.485783    41A     -0.444654    42A     -0.359540
      43A     -0.357309    44A     -0.325096    45A     -0.319015

  @DF-RHF Final Energy:  -642.00582664028263

   => Energetics <=

    Nuclear Repulsion Energy =            614.4200303567362198
    One-Electron Energy =               -2203.6913900144918443
    Two-Electron Energy =                 947.2655330174728761
    Total Energy =                       -642.0058266402826348
  Basis Set: (AUG-CC-PVTZ AUX)
    Blend: AUG-CC-PVTZ-RI + DEF2-QZVPP-RI
    Molecular point group: c1

    Geometry (in Angstrom), charge = 0, multiplicity = 1:

       Center              X                  Y                   Z               Mass
    ------------   -----------------  -----------------  -----------------  -----------------
         I            2.049209964868    -0.000015473213    -0.222504169652   126.904471900000
         C           -0.849771035132    -0.000020473213     0.766887830348    12.000000000000
         C           -2.799157035132    -1.225321473213    -0.035095169652    12.000000000000
         C           -2.799150035132     1.225293526787    -0.035089169652    12.000000000000
         C           -1.505056035132     1.209734526787     0.498669830348    12.000000000000
         C           -1.505060035132    -1.209769473213     0.498664830348    12.000000000000
         C           -3.430177035132    -0.000013473213    -0.294613169652    12.000000000000
         C            0.526226964868    -0.000023473213     1.339122830348    12.000000000000
         C           -3.512812035132    -2.529183473213    -0.291632169652    12.000000000000
         C           -3.512812035132     2.529151526787    -0.291630169652    12.000000000000
         H           -0.990107035132     2.150820526787     0.691266830348     1.007825032230
         H           -0.990115035132    -2.150859473213     0.691256830348     1.007825032230
         H           -4.435440035132    -0.000009473213    -0.716288169652     1.007825032230
         H            0.731954964868    -0.892610473213     1.929189830348     1.007825032230
         H            0.731954964868     0.892558526787     1.929197830348     1.007825032230
         H           -4.233099735132    -2.438475973213    -1.174280169652     1.007825032230
         H           -4.096745035132    -2.833396473213     0.583214830348     1.007825032230
         H           -2.804000035132    -3.330834473213    -0.513093169652     1.007825032230
         H           -4.097082035132     2.833150526787     0.583065830348     1.007825032230
         H           -2.803983035132     3.330897526787    -0.512686169652     1.007825032230
         H           -4.201280035132     2.442520526787    -1.135923169652     1.007825032230

  Basis Set: AUG-CC-PVTZ
    Blend: AUG-CC-PVTZ
  Basis Set: (AUG-CC-PVTZ AUX)
    Blend: AUG-CC-PVTZ-JKFIT + DEF2-UNIVERSAL-JKFIT
	 Reference Energy          =    -642.0058266402826348 [Eh]
	 Singles Energy            =      -0.0000000000000000 [Eh]
	 Same-Spin Energy          =      -0.4675777409401710 [Eh]
	 Opposite-Spin Energy      =      -1.4529207353952891 [Eh]
	 Correlation Energy        =      -1.9204984763354602 [Eh]
	 Total Energy              =    -643.9263251166180453 [Eh]

	 ================> DF-SCS-MP2 Energies <==================
	-----------------------------------------------------------
	 SCS Same-Spin Scale       =       0.3333333333333333 [-]
	 SCS Opposite-Spin Scale   =       1.2000000000000000 [-]
	 SCS Same-Spin Energy      =      -0.1558592469800570 [Eh]
	 SCS Opposite-Spin Energy  =      -1.7435048824743469 [Eh]
	 SCS Correlation Energy    =      -1.8993641294544039 [Eh]
	 SCS Total Energy          =    -643.9051907697370325 [Eh]
	-----------------------------------------------------------

  Dipole Moment: [D]
     X:    -2.0767      Y:     0.0120      Z:     0.9038     Total:     2.2648

*** Psi4 exiting successfully. Buy a developer a beer!
