                               Psi4 1.4a3.dev225

  ==> Input File <==

--------------------------------------------------------------------------
#psi4
#
memory 32 gb

molecule  {
0 1
  I        2.3447600     0.0000010    -0.2524410
  C       -0.5542210    -0.0000040     0.7369510
  C       -2.5036070    -1.2253050    -0.0650320
  C       -2.5036000     1.2253100    -0.0650260
  C       -1.2095060     1.2097510     0.4687330
  C       -1.2095100    -1.2097530     0.4687280
  C       -3.1346270     0.0000030    -0.3245500
  C        0.8217770    -0.0000070     1.3091860
  C       -3.2172620    -2.5291670    -0.3215690
  C       -3.2172620     2.5291680    -0.3215670
  H       -0.6945570     2.1508370     0.6613300
  H       -0.6945650    -2.1508430     0.6613200
  H       -4.1398900     0.0000070    -0.7462250
  H        1.0275050    -0.8925940     1.8992530
  H        1.0275050     0.8925750     1.8992610
  H       -3.9060370    -2.4424280    -1.1656010
  H       -3.8011950    -2.8333800     0.5532780
  H       -2.5084500    -3.3308180    -0.5430300
  H       -3.8015320     2.8331670     0.5531290
  H       -2.4435664     3.4042836    -0.5628523
  H       -3.9057300     2.4425370    -1.1658600
units angstrom
no_reorient  #important for SAPT in psi4, default
symmetry c1  #important for SAPT in psi4, default
}

set PROPERTIES_ORIGIN ["COM"]
properties('MP2/aug-cc-pvtz', properties = ['dipole'])
--------------------------------------------------------------------------

    Molecular point group: c1
  Charge       = 0
  Multiplicity = 1
  Basis Set: AUG-CC-PVTZ
    Blend: AUG-CC-PVTZ
  Basis Set: (AUG-CC-PVTZ AUX)
    Blend: AUG-CC-PVTZ-JKFIT + DEF2-UNIVERSAL-JKFIT

    Orbital Energies [Eh]
    ---------------------

    Doubly Occupied:

       1A    -11.290472     2A    -11.254332     3A    -11.250191
       4A    -11.249685     5A    -11.240033     6A    -11.233619
       7A    -11.233458     8A    -11.232085     9A    -11.228622
      10A     -7.706282    11A     -5.537730    12A     -5.528446
      13A     -5.528436    14A     -2.266944    15A     -2.262528
      16A     -2.262505    17A     -2.252240    18A     -2.252240
      19A     -1.165550    20A     -1.073238    21A     -1.060325
      22A     -0.969118    23A     -0.937146    24A     -0.930110
      25A     -0.849305    26A     -0.789265    27A     -0.783272
      28A     -0.682510    29A     -0.666298    30A     -0.617910
      31A     -0.588841    32A     -0.585026    33A     -0.574311
      34A     -0.571248    35A     -0.563724    36A     -0.549264
      37A     -0.520056    38A     -0.510224    39A     -0.489766
      40A     -0.484844    41A     -0.444632    42A     -0.359555
      43A     -0.357287    44A     -0.325073    45A     -0.319332

  @DF-RHF Final Energy:  -642.00139367436941

   => Energetics <=

    Nuclear Repulsion Energy =            614.2379040234271770
    One-Electron Energy =               -2203.3244336319176000
    Two-Electron Energy =                 947.0851359341208990
    Total Energy =                       -642.0013936743694103
  Basis Set: (AUG-CC-PVTZ AUX)
    Blend: AUG-CC-PVTZ-RI + DEF2-QZVPP-RI
    Molecular point group: c1

    Geometry (in Angstrom), charge = 0, multiplicity = 1:

       Center              X                  Y                   Z               Mass
    ------------   -----------------  -----------------  -----------------  -----------------
         I            2.048815098186    -0.000299810016    -0.222579500093   126.904471900000
         C           -0.850165901814    -0.000304810016     0.766812499907    12.000000000000
         C           -2.799551901814    -1.225605810016    -0.035170500093    12.000000000000
         C           -2.799544901814     1.225009189984    -0.035164500093    12.000000000000
         C           -1.505450901814     1.209450189984     0.498594499907    12.000000000000
         C           -1.505454901814    -1.210053810016     0.498589499907    12.000000000000
         C           -3.430571901814    -0.000297810016    -0.294688500093    12.000000000000
         C            0.525832098186    -0.000307810016     1.339047499907    12.000000000000
         C           -3.513206901814    -2.529467810016    -0.291707500093    12.000000000000
         C           -3.513206901814     2.528867189984    -0.291705500093    12.000000000000
         H           -0.990501901814     2.150536189984     0.691191499907     1.007825032230
         H           -0.990509901814    -2.151143810016     0.691181499907     1.007825032230
         H           -4.435834901814    -0.000293810016    -0.716363500093     1.007825032230
         H            0.731560098186    -0.892894810016     1.929114499907     1.007825032230
         H            0.731560098186     0.892274189984     1.929122499907     1.007825032230
         H           -4.201981901814    -2.442728810016    -1.135739500093     1.007825032230
         H           -4.097139901814    -2.833680810016     0.583139499907     1.007825032230
         H           -2.804394901814    -3.331118810016    -0.513168500093     1.007825032230
         H           -4.097476901814     2.832866189984     0.582990499907     1.007825032230
         H           -2.739511301814     3.403982789984    -0.532990800093     1.007825032230
         H           -4.201674901814     2.442236189984    -1.135998500093     1.007825032230

  Basis Set: AUG-CC-PVTZ
    Blend: AUG-CC-PVTZ
  Basis Set: (AUG-CC-PVTZ AUX)
    Blend: AUG-CC-PVTZ-JKFIT + DEF2-UNIVERSAL-JKFIT
	 Reference Energy          =    -642.0013936743694103 [Eh]
	 Singles Energy            =      -0.0000000000000000 [Eh]
	 Same-Spin Energy          =      -0.4675947940366745 [Eh]
	 Opposite-Spin Energy      =      -1.4533309473398570 [Eh]
	 Correlation Energy        =      -1.9209257413765315 [Eh]
	 Total Energy              =    -643.9223194157459602 [Eh]

	 ================> DF-SCS-MP2 Energies <==================
	-----------------------------------------------------------
	 SCS Same-Spin Scale       =       0.3333333333333333 [-]
	 SCS Opposite-Spin Scale   =       1.2000000000000000 [-]
	 SCS Same-Spin Energy      =      -0.1558649313455581 [Eh]
	 SCS Opposite-Spin Energy  =      -1.7439971368078284 [Eh]
	 SCS Correlation Energy    =      -1.8998620681533867 [Eh]
	 SCS Total Energy          =    -643.9012557425228351 [Eh]
	-----------------------------------------------------------

  Dipole Moment: [D]
     X:    -2.1096      Y:    -0.0620      Z:     0.8983     Total:     2.2937

*** Psi4 exiting successfully. Buy a developer a beer!
