                               Psi4 1.4a3.dev225

  ==> Input File <==

--------------------------------------------------------------------------
#psi4
#
memory 32 gb

molecule  {
0 1
  I        2.3447600     0.0000010    -0.2524410
  C       -0.5542210    -0.0000040     0.7369510
  C       -2.5036070    -1.2253050    -0.0650320
  C       -2.5036000     1.2253100    -0.0650260
  C       -1.2095060     1.2097510     0.4687330
  C       -1.2095100    -1.2097530     0.4687280
  C       -3.1346270     0.0000030    -0.3245500
  C        0.9614157    -0.0000063     1.1660042
  C       -3.2172620    -2.5291670    -0.3215690
  C       -3.2172620     2.5291680    -0.3215670
  H       -0.6945570     2.1508370     0.6613300
  H       -0.6945650    -2.1508430     0.6613200
  H       -4.1398900     0.0000070    -0.7462250
  H        1.0275050    -0.8925940     1.8992530
  H        1.0275050     0.8925750     1.8992610
  H       -3.9060370    -2.4424280    -1.1656010
  H       -3.8011950    -2.8333800     0.5532780
  H       -2.5084500    -3.3308180    -0.5430300
  H       -3.8015320     2.8331670     0.5531290
  H       -2.5084330     3.3309140    -0.5426230
  H       -3.9057300     2.4425370    -1.1658600
units angstrom
no_reorient  #important for SAPT in psi4, default
symmetry c1  #important for SAPT in psi4, default
}

set PROPERTIES_ORIGIN ["COM"]
properties('MP2/aug-cc-pvtz', properties = ['dipole'])
--------------------------------------------------------------------------

    Molecular point group: c1
  Charge       = 0
  Multiplicity = 1
  Basis Set: AUG-CC-PVTZ
    Blend: AUG-CC-PVTZ
  Basis Set: (AUG-CC-PVTZ AUX)
    Blend: AUG-CC-PVTZ-JKFIT + DEF2-UNIVERSAL-JKFIT

    Orbital Energies [Eh]
    ---------------------

    Doubly Occupied:

       1A    -11.289822     2A    -11.255669     3A    -11.246738
       4A    -11.246713     5A    -11.229580     6A    -11.229544
       7A    -11.227949     8A    -11.226488     9A    -11.226487
      10A     -7.717517    11A     -5.549688    12A     -5.539623
      13A     -5.539599    14A     -2.280439    15A     -2.274392
      16A     -2.274389    17A     -2.263368    18A     -2.263368
      19A     -1.159625    20A     -1.063596    21A     -1.058551
      22A     -0.981470    23A     -0.939043    24A     -0.929695
      25A     -0.848025    26A     -0.786511    27A     -0.771766
      28A     -0.678047    29A     -0.656812    30A     -0.599175
      31A     -0.584180    32A     -0.571642    33A     -0.566774
      34A     -0.564140    35A     -0.557360    36A     -0.553481
      37A     -0.526699    38A     -0.521179    39A     -0.482503
      40A     -0.479141    41A     -0.466034    42A     -0.360650
      43A     -0.359131    44A     -0.323246    45A     -0.322284

  @DF-RHF Final Energy:  -641.98139779473843

   => Energetics <=

    Nuclear Repulsion Energy =            616.3868011966465019
    One-Electron Energy =               -2207.5521234211410047
    Two-Electron Energy =                 949.1839244297560754
    Total Energy =                       -641.9813977947384274
  Basis Set: (AUG-CC-PVTZ AUX)
    Blend: AUG-CC-PVTZ-RI + DEF2-QZVPP-RI
    Molecular point group: c1

    Geometry (in Angstrom), charge = 0, multiplicity = 1:

       Center              X                  Y                   Z               Mass
    ------------   -----------------  -----------------  -----------------  -----------------
         I            2.042268951455     0.000000751612    -0.215677633237   126.904471900000
         C           -0.856712048545    -0.000004248388     0.773714366763    12.000000000000
         C           -2.806098048545    -1.225305248388    -0.028268633237    12.000000000000
         C           -2.806091048545     1.225309751612    -0.028262633237    12.000000000000
         C           -1.511997048545     1.209750751612     0.505496366763    12.000000000000
         C           -1.512001048545    -1.209753248388     0.505491366763    12.000000000000
         C           -3.437118048545     0.000002751612    -0.287786633237    12.000000000000
         C            0.658924651455    -0.000006548388     1.202767566763    12.000000000000
         C           -3.519753048545    -2.529167248388    -0.284805633237    12.000000000000
         C           -3.519753048545     2.529167751612    -0.284803633237    12.000000000000
         H           -0.997048048545     2.150836751612     0.698093366763     1.007825032230
         H           -0.997056048545    -2.150843248388     0.698083366763     1.007825032230
         H           -4.442381048545     0.000006751612    -0.709461633237     1.007825032230
         H            0.725013951455    -0.892594248388     1.936016366763     1.007825032230
         H            0.725013951455     0.892574751612     1.936024366763     1.007825032230
         H           -4.208528048545    -2.442428248388    -1.128837633237     1.007825032230
         H           -4.103686048545    -2.833380248388     0.590041366763     1.007825032230
         H           -2.810941048545    -3.330818248388    -0.506266633237     1.007825032230
         H           -4.104023048545     2.833166751612     0.589892366763     1.007825032230
         H           -2.810924048545     3.330913751612    -0.505859633237     1.007825032230
         H           -4.208221048545     2.442536751612    -1.129096633237     1.007825032230

  Basis Set: AUG-CC-PVTZ
    Blend: AUG-CC-PVTZ
  Basis Set: (AUG-CC-PVTZ AUX)
    Blend: AUG-CC-PVTZ-JKFIT + DEF2-UNIVERSAL-JKFIT
	 Reference Energy          =    -641.9813977947384274 [Eh]
	 Singles Energy            =      -0.0000000000000000 [Eh]
	 Same-Spin Energy          =      -0.4692354349317920 [Eh]
	 Opposite-Spin Energy      =      -1.4557491979386685 [Eh]
	 Correlation Energy        =      -1.9249846328704605 [Eh]
	 Total Energy              =    -643.9063824276088326 [Eh]

	 ================> DF-SCS-MP2 Energies <==================
	-----------------------------------------------------------
	 SCS Same-Spin Scale       =       0.3333333333333333 [-]
	 SCS Opposite-Spin Scale   =       1.2000000000000000 [-]
	 SCS Same-Spin Energy      =      -0.1564118116439306 [Eh]
	 SCS Opposite-Spin Energy  =      -1.7468990375264022 [Eh]
	 SCS Correlation Energy    =      -1.9033108491703328 [Eh]
	 SCS Total Energy          =    -643.8847086439087661 [Eh]
	-----------------------------------------------------------

  Dipole Moment: [D]
     X:    -1.5749      Y:    -0.0000      Z:     0.6098     Total:     1.6888

*** Psi4 exiting successfully. Buy a developer a beer!
