                               Psi4 1.4a3.dev225

  ==> Input File <==

--------------------------------------------------------------------------
#psi4
#
memory 32 gb

molecule  {
0 1
  I        2.3447600     0.0000010    -0.2524410
  C       -0.5190082    -0.1381005     0.6735379
  C       -2.5036070    -1.2253050    -0.0650320
  C       -2.5036000     1.2253100    -0.0650260
  C       -1.2095060     1.2097510     0.4687330
  C       -1.2095100    -1.2097530     0.4687280
  C       -3.1346270     0.0000030    -0.3245500
  C        0.8217770    -0.0000070     1.3091860
  C       -3.2172620    -2.5291670    -0.3215690
  C       -3.2172620     2.5291680    -0.3215670
  H       -0.6945570     2.1508370     0.6613300
  H       -0.6945650    -2.1508430     0.6613200
  H       -4.1398900     0.0000070    -0.7462250
  H        1.0275050    -0.8925940     1.8992530
  H        1.0275050     0.8925750     1.8992610
  H       -3.9060370    -2.4424280    -1.1656010
  H       -3.8011950    -2.8333800     0.5532780
  H       -2.5084500    -3.3308180    -0.5430300
  H       -3.8015320     2.8331670     0.5531290
  H       -2.5084330     3.3309140    -0.5426230
  H       -3.9057300     2.4425370    -1.1658600
units angstrom
no_reorient  #important for SAPT in psi4, default
symmetry c1  #important for SAPT in psi4, default
}

set PROPERTIES_ORIGIN ["COM"]
properties('MP2/aug-cc-pvtz', properties = ['dipole'])
--------------------------------------------------------------------------

    Molecular point group: c1
  Charge       = 0
  Multiplicity = 1
  Basis Set: AUG-CC-PVTZ
    Blend: AUG-CC-PVTZ
  Basis Set: (AUG-CC-PVTZ AUX)
    Blend: AUG-CC-PVTZ-JKFIT + DEF2-UNIVERSAL-JKFIT

    Orbital Energies [Eh]
    ---------------------

    Doubly Occupied:

       1A    -11.292833     2A    -11.253717     3A    -11.250690
       4A    -11.247101     5A    -11.240301     6A    -11.231367
       7A    -11.229065     8A    -11.227087     9A    -11.223300
      10A     -7.705768    11A     -5.537185    12A     -5.527971
      13A     -5.527928    14A     -2.266402    15A     -2.262022
      16A     -2.261975    17A     -2.251784    18A     -2.251781
      19A     -1.167211    20A     -1.077932    21A     -1.058424
      22A     -0.975285    23A     -0.942013    24A     -0.925085
      25A     -0.848149    26A     -0.800369    27A     -0.774075
      28A     -0.682499    29A     -0.665029    30A     -0.628138
      31A     -0.590363    32A     -0.585841    33A     -0.575356
      34A     -0.572150    35A     -0.558095    36A     -0.554765
      37A     -0.527797    38A     -0.512171    39A     -0.497256
      40A     -0.467329    41A     -0.441278    42A     -0.361574
      43A     -0.356686    44A     -0.337167    45A     -0.307634

  @DF-RHF Final Energy:  -641.98261471189198

   => Energetics <=

    Nuclear Repulsion Energy =            614.9835252495414579
    One-Electron Energy =               -2204.7763858825614989
    Two-Electron Energy =                 947.8102459211281712
    Total Energy =                       -641.9826147118919835
  Basis Set: (AUG-CC-PVTZ AUX)
    Blend: AUG-CC-PVTZ-RI + DEF2-QZVPP-RI
    Molecular point group: c1

    Geometry (in Angstrom), charge = 0, multiplicity = 1:

       Center              X                  Y                   Z               Mass
    ------------   -----------------  -----------------  -----------------  -----------------
         I            2.047363093543     0.006737459256    -0.219568938861   126.904471900000
         C           -0.816405106457    -0.131364040744     0.706409961139    12.000000000000
         C           -2.801003906457    -1.218568540744    -0.032159938861    12.000000000000
         C           -2.800996906457     1.232046459256    -0.032153938861    12.000000000000
         C           -1.506902906457     1.216487459256     0.501605061139    12.000000000000
         C           -1.506906906457    -1.203016540744     0.501600061139    12.000000000000
         C           -3.432023906457     0.006739459256    -0.291677938861    12.000000000000
         C            0.524380093543     0.006729459256     1.342058061139    12.000000000000
         C           -3.514658906457    -2.522430540744    -0.288696938861    12.000000000000
         C           -3.514658906457     2.535904459256    -0.288694938861    12.000000000000
         H           -0.991953906457     2.157573459256     0.694202061139     1.007825032230
         H           -0.991961906457    -2.144106540744     0.694192061139     1.007825032230
         H           -4.437286906457     0.006743459256    -0.713352938861     1.007825032230
         H            0.730108093543    -0.885857540744     1.932125061139     1.007825032230
         H            0.730108093543     0.899311459256     1.932133061139     1.007825032230
         H           -4.203433906457    -2.435691540744    -1.132728938861     1.007825032230
         H           -4.098591906457    -2.826643540744     0.586150061139     1.007825032230
         H           -2.805846906457    -3.324081540744    -0.510157938861     1.007825032230
         H           -4.098928906457     2.839903459256     0.586001061139     1.007825032230
         H           -2.805829906457     3.337650459256    -0.509750938861     1.007825032230
         H           -4.203126906457     2.449273459256    -1.132987938861     1.007825032230

  Basis Set: AUG-CC-PVTZ
    Blend: AUG-CC-PVTZ
  Basis Set: (AUG-CC-PVTZ AUX)
    Blend: AUG-CC-PVTZ-JKFIT + DEF2-UNIVERSAL-JKFIT
	 Reference Energy          =    -641.9826147118919835 [Eh]
	 Singles Energy            =      -0.0000000000000000 [Eh]
	 Same-Spin Energy          =      -0.4673348041643817 [Eh]
	 Opposite-Spin Energy      =      -1.4540435308295887 [Eh]
	 Correlation Energy        =      -1.9213783349939704 [Eh]
	 Total Energy              =    -643.9039930468859438 [Eh]

	 ================> DF-SCS-MP2 Energies <==================
	-----------------------------------------------------------
	 SCS Same-Spin Scale       =       0.3333333333333333 [-]
	 SCS Opposite-Spin Scale   =       1.2000000000000000 [-]
	 SCS Same-Spin Energy      =      -0.1557782680547939 [Eh]
	 SCS Opposite-Spin Energy  =      -1.7448522369955064 [Eh]
	 SCS Correlation Energy    =      -1.9006305050503003 [Eh]
	 SCS Total Energy          =    -643.8832452169423277 [Eh]
	-----------------------------------------------------------

  Dipole Moment: [D]
     X:    -2.0730      Y:    -0.0014      Z:     0.9333     Total:     2.2735

*** Psi4 exiting successfully. Buy a developer a beer!
