                               Psi4 1.4a3.dev225

  ==> Input File <==

--------------------------------------------------------------------------
#psi4
#
memory 32 gb

molecule  {
0 1
  I        2.3447600     0.0000010    -0.2524410
  C       -0.5542210    -0.0000040     0.7369510
  C       -2.5036070    -1.2253050    -0.0650320
  C       -2.5036000     1.2253100    -0.0650260
  C       -1.2095060     1.2097510     0.4687330
  C       -1.2095100    -1.2097530     0.4687280
  C       -3.1346270     0.0000030    -0.3245500
  C        0.8217770    -0.0000070     1.3091860
  C       -3.2172620    -2.5291670    -0.3215690
  C       -3.2172620     2.5291680    -0.3215670
  H       -0.6945570     2.1508370     0.6613300
  H       -0.6945650    -2.1508430     0.6613200
  H       -4.1398900     0.0000070    -0.7462250
  H        1.0275050    -0.8925940     1.8992530
  H        1.0275050     0.8925750     1.8992610
  H       -3.9060370    -2.4424280    -1.1656010
  H       -3.9078559    -2.8889474     0.7130770
  H       -2.5084500    -3.3308180    -0.5430300
  H       -3.8015320     2.8331670     0.5531290
  H       -2.5084330     3.3309140    -0.5426230
  H       -3.9057300     2.4425370    -1.1658600
units angstrom
no_reorient  #important for SAPT in psi4, default
symmetry c1  #important for SAPT in psi4, default
}

set PROPERTIES_ORIGIN ["COM"]
properties('MP2/aug-cc-pvtz', properties = ['dipole'])
--------------------------------------------------------------------------

    Molecular point group: c1
  Charge       = 0
  Multiplicity = 1
  Basis Set: AUG-CC-PVTZ
    Blend: AUG-CC-PVTZ
  Basis Set: (AUG-CC-PVTZ AUX)
    Blend: AUG-CC-PVTZ-JKFIT + DEF2-UNIVERSAL-JKFIT

    Orbital Energies [Eh]
    ---------------------

    Doubly Occupied:

       1A    -11.290916     2A    -11.254927     3A    -11.251199
       4A    -11.250523     5A    -11.250027     6A    -11.234623
       7A    -11.234475     8A    -11.232611     9A    -11.228873
      10A     -7.706688    11A     -5.538136    12A     -5.528852
      13A     -5.528842    14A     -2.267349    15A     -2.262934
      16A     -2.262910    17A     -2.252647    18A     -2.252646
      19A     -1.166130    20A     -1.073511    21A     -1.060286
      22A     -0.968725    23A     -0.937586    24A     -0.927249
      25A     -0.849657    26A     -0.789631    27A     -0.782935
      28A     -0.682859    29A     -0.668215    30A     -0.618285
      31A     -0.589720    32A     -0.582944    33A     -0.574472
      34A     -0.565553    35A     -0.557716    36A     -0.544799
      37A     -0.527499    38A     -0.506398    39A     -0.490215
      40A     -0.485539    41A     -0.442568    42A     -0.359891
      43A     -0.357667    44A     -0.324674    45A     -0.319343

  @DF-RHF Final Energy:  -641.98833531886669

   => Energetics <=

    Nuclear Repulsion Energy =            613.8239540883996597
    One-Electron Energy =               -2202.4580914767816466
    Two-Electron Energy =                 946.6458020695152982
    Total Energy =                       -641.9883353188666888
  Basis Set: (AUG-CC-PVTZ AUX)
    Blend: AUG-CC-PVTZ-RI + DEF2-QZVPP-RI
    Molecular point group: c1

    Geometry (in Angstrom), charge = 0, multiplicity = 1:

       Center              X                  Y                   Z               Mass
    ------------   -----------------  -----------------  -----------------  -----------------
         I            2.049517847581     0.000228445795    -0.223317077327   126.904471900000
         C           -0.849463152419     0.000223445795     0.766074922673    12.000000000000
         C           -2.798849152419    -1.225077554205    -0.035908077327    12.000000000000
         C           -2.798842152419     1.225537445795    -0.035902077327    12.000000000000
         C           -1.504748152419     1.209978445795     0.497856922673    12.000000000000
         C           -1.504752152419    -1.209525554205     0.497851922673    12.000000000000
         C           -3.429869152419     0.000230445795    -0.295426077327    12.000000000000
         C            0.526534847581     0.000220445795     1.338309922673    12.000000000000
         C           -3.512504152419    -2.528939554205    -0.292445077327    12.000000000000
         C           -3.512504152419     2.529395445795    -0.292443077327    12.000000000000
         H           -0.989799152419     2.151064445795     0.690453922673     1.007825032230
         H           -0.989807152419    -2.150615554205     0.690443922673     1.007825032230
         H           -4.435132152419     0.000234445795    -0.717101077327     1.007825032230
         H            0.732262847581    -0.892366554205     1.928376922673     1.007825032230
         H            0.732262847581     0.892802445795     1.928384922673     1.007825032230
         H           -4.201279152419    -2.442200554205    -1.136477077327     1.007825032230
         H           -4.203098052419    -2.888719954205     0.742200922673     1.007825032230
         H           -2.803692152419    -3.330590554205    -0.513906077327     1.007825032230
         H           -4.096774152419     2.833394445795     0.582252922673     1.007825032230
         H           -2.803675152419     3.331141445795    -0.513499077327     1.007825032230
         H           -4.200972152419     2.442764445795    -1.136736077327     1.007825032230

  Basis Set: AUG-CC-PVTZ
    Blend: AUG-CC-PVTZ
  Basis Set: (AUG-CC-PVTZ AUX)
    Blend: AUG-CC-PVTZ-JKFIT + DEF2-UNIVERSAL-JKFIT
	 Reference Energy          =    -641.9883353188666888 [Eh]
	 Singles Energy            =      -0.0000000000000000 [Eh]
	 Same-Spin Energy          =      -0.4675475103698010 [Eh]
	 Opposite-Spin Energy      =      -1.4540719479425799 [Eh]
	 Correlation Energy        =      -1.9216194583123809 [Eh]
	 Total Energy              =    -643.9099547771791094 [Eh]

	 ================> DF-SCS-MP2 Energies <==================
	-----------------------------------------------------------
	 SCS Same-Spin Scale       =       0.3333333333333333 [-]
	 SCS Opposite-Spin Scale   =       1.2000000000000000 [-]
	 SCS Same-Spin Energy      =      -0.1558491701232670 [Eh]
	 SCS Opposite-Spin Energy  =      -1.7448863375310959 [Eh]
	 SCS Correlation Energy    =      -1.9007355076543628 [Eh]
	 SCS Total Energy          =    -643.8890708265211060 [Eh]
	-----------------------------------------------------------

  Dipole Moment: [D]
     X:    -1.9934      Y:     0.1066      Z:     0.8181     Total:     2.1574

*** Psi4 exiting successfully. Buy a developer a beer!
