                               Psi4 1.4a3.dev225

  ==> Input File <==

--------------------------------------------------------------------------
#psi4
#
memory 32 gb

molecule  {
0 1
  I        2.3447600     0.0000010    -0.2524410
  C       -0.5542210    -0.0000040     0.7369510
  C       -2.5036070    -1.2253050    -0.0650320
  C       -2.5036000     1.2253100    -0.0650260
  C       -1.2095060     1.2097510     0.4687330
  C       -1.2095100    -1.2097530     0.4687280
  C       -3.1346270     0.0000030    -0.3245500
  C        0.8217770    -0.0000070     1.3091860
  C       -3.2172620    -2.5291670    -0.3215690
  C       -3.2172620     2.5291680    -0.3215670
  H       -0.7418038     2.0644919     0.6436591
  H       -0.6945650    -2.1508430     0.6613200
  H       -4.1398900     0.0000070    -0.7462250
  H        1.0275050    -0.8925940     1.8992530
  H        1.0275050     0.8925750     1.8992610
  H       -3.9060370    -2.4424280    -1.1656010
  H       -3.8011950    -2.8333800     0.5532780
  H       -2.5084500    -3.3308180    -0.5430300
  H       -3.8015320     2.8331670     0.5531290
  H       -2.5084330     3.3309140    -0.5426230
  H       -3.9057300     2.4425370    -1.1658600
units angstrom
no_reorient  #important for SAPT in psi4, default
symmetry c1  #important for SAPT in psi4, default
}

set PROPERTIES_ORIGIN ["COM"]
properties('MP2/aug-cc-pvtz', properties = ['dipole'])
--------------------------------------------------------------------------

    Molecular point group: c1
  Charge       = 0
  Multiplicity = 1
  Basis Set: AUG-CC-PVTZ
    Blend: AUG-CC-PVTZ
  Basis Set: (AUG-CC-PVTZ AUX)
    Blend: AUG-CC-PVTZ-JKFIT + DEF2-UNIVERSAL-JKFIT

    Orbital Energies [Eh]
    ---------------------

    Doubly Occupied:

       1A    -11.290429     2A    -11.253212     3A    -11.248895
       4A    -11.248329     5A    -11.232516     6A    -11.230514
       7A    -11.228348     8A    -11.228026     9A    -11.221131
      10A     -7.706281    11A     -5.537725    12A     -5.528450
      13A     -5.528436    14A     -2.266938    15A     -2.262527
      16A     -2.262500    17A     -2.252246    18A     -2.252246
      19A     -1.165503    20A     -1.073113    21A     -1.062221
      22A     -0.970290    23A     -0.940226    24A     -0.935731
      25A     -0.849576    26A     -0.794734    27A     -0.783367
      28A     -0.693440    29A     -0.666764    30A     -0.618683
      31A     -0.589370    32A     -0.585769    33A     -0.576385
      34A     -0.573226    35A     -0.568697    36A     -0.556217
      37A     -0.525854    38A     -0.511203    39A     -0.489587
      40A     -0.486492    41A     -0.444383    42A     -0.359486
      43A     -0.357313    44A     -0.324465    45A     -0.318459

  @DF-RHF Final Energy:  -642.00230778277955

   => Energetics <=

    Nuclear Repulsion Energy =            615.1895775859153446
    One-Electron Energy =               -2205.1851678121888654
    Two-Electron Energy =                 947.9932824434940812
    Total Energy =                       -642.0023077827795532
  Basis Set: (AUG-CC-PVTZ AUX)
    Blend: AUG-CC-PVTZ-RI + DEF2-QZVPP-RI
    Molecular point group: c1

    Geometry (in Angstrom), charge = 0, multiplicity = 1:

       Center              X                  Y                   Z               Mass
    ------------   -----------------  -----------------  -----------------  -----------------
         I            2.049274427588     0.000354542252    -0.222589981876   126.904471900000
         C           -0.849706572412     0.000349542252     0.766802018124    12.000000000000
         C           -2.799092572412    -1.224951457748    -0.035180981876    12.000000000000
         C           -2.799085572412     1.225663542252    -0.035174981876    12.000000000000
         C           -1.504991572412     1.210104542252     0.498584018124    12.000000000000
         C           -1.504995572412    -1.209399457748     0.498579018124    12.000000000000
         C           -3.430112572412     0.000356542252    -0.294698981876    12.000000000000
         C            0.526291427588     0.000346542252     1.339037018124    12.000000000000
         C           -3.512747572412    -2.528813457748    -0.291717981876    12.000000000000
         C           -3.512747572412     2.529521542252    -0.291715981876    12.000000000000
         H           -1.037289372412     2.064845442252     0.673510118124     1.007825032230
         H           -0.990050572412    -2.150489457748     0.691171018124     1.007825032230
         H           -4.435375572412     0.000360542252    -0.716373981876     1.007825032230
         H            0.732019427588    -0.892240457748     1.929104018124     1.007825032230
         H            0.732019427588     0.892928542252     1.929112018124     1.007825032230
         H           -4.201522572412    -2.442074457748    -1.135749981876     1.007825032230
         H           -4.096680572412    -2.833026457748     0.583129018124     1.007825032230
         H           -2.803935572412    -3.330464457748    -0.513178981876     1.007825032230
         H           -4.097017572412     2.833520542252     0.582980018124     1.007825032230
         H           -2.803918572412     3.331267542252    -0.512771981876     1.007825032230
         H           -4.201215572412     2.442890542252    -1.136008981876     1.007825032230

  Basis Set: AUG-CC-PVTZ
    Blend: AUG-CC-PVTZ
  Basis Set: (AUG-CC-PVTZ AUX)
    Blend: AUG-CC-PVTZ-JKFIT + DEF2-UNIVERSAL-JKFIT
	 Reference Energy          =    -642.0023077827795532 [Eh]
	 Singles Energy            =      -0.0000000000000000 [Eh]
	 Same-Spin Energy          =      -0.4673289264235724 [Eh]
	 Opposite-Spin Energy      =      -1.4519572698612970 [Eh]
	 Correlation Energy        =      -1.9192861962848693 [Eh]
	 Total Energy              =    -643.9215939790643688 [Eh]

	 ================> DF-SCS-MP2 Energies <==================
	-----------------------------------------------------------
	 SCS Same-Spin Scale       =       0.3333333333333333 [-]
	 SCS Opposite-Spin Scale   =       1.2000000000000000 [-]
	 SCS Same-Spin Energy      =      -0.1557763088078574 [Eh]
	 SCS Opposite-Spin Energy  =      -1.7423487238335564 [Eh]
	 SCS Correlation Energy    =      -1.8981250326414139 [Eh]
	 SCS Total Energy          =    -643.9004328154209134 [Eh]
	-----------------------------------------------------------

  Dipole Moment: [D]
     X:    -2.0834      Y:     0.0257      Z:     0.8942     Total:     2.2673

*** Psi4 exiting successfully. Buy a developer a beer!
