                               Psi4 1.4a3.dev225

  ==> Input File <==

--------------------------------------------------------------------------
#psi4
#
memory 32 gb

molecule  {
0 1
  I        2.3447600     0.0000010    -0.2524410
  C       -0.5542210    -0.0000040     0.7369510
  C       -2.5036070    -1.2253050    -0.0650320
  C       -2.5036000     1.2253100    -0.0650260
  C       -1.2095060     1.2097510     0.4687330
  C       -1.2095100    -1.2097530     0.4687280
  C       -3.1436257     0.0174766    -0.3282509
  C        0.8217770    -0.0000070     1.3091860
  C       -3.2172620    -2.5291670    -0.3215690
  C       -3.2172620     2.5291680    -0.3215670
  H       -0.6945570     2.1508370     0.6613300
  H       -0.6945650    -2.1508430     0.6613200
  H       -4.1398900     0.0000070    -0.7462250
  H        1.0275050    -0.8925940     1.8992530
  H        1.0275050     0.8925750     1.8992610
  H       -3.9060370    -2.4424280    -1.1656010
  H       -3.8011950    -2.8333800     0.5532780
  H       -2.5084500    -3.3308180    -0.5430300
  H       -3.8015320     2.8331670     0.5531290
  H       -2.5084330     3.3309140    -0.5426230
  H       -3.9057300     2.4425370    -1.1658600
units angstrom
no_reorient  #important for SAPT in psi4, default
symmetry c1  #important for SAPT in psi4, default
}

set PROPERTIES_ORIGIN ["COM"]
properties('MP2/aug-cc-pvtz', properties = ['dipole'])
--------------------------------------------------------------------------

    Molecular point group: c1
  Charge       = 0
  Multiplicity = 1
  Basis Set: AUG-CC-PVTZ
    Blend: AUG-CC-PVTZ
  Basis Set: (AUG-CC-PVTZ AUX)
    Blend: AUG-CC-PVTZ-JKFIT + DEF2-UNIVERSAL-JKFIT

    Orbital Energies [Eh]
    ---------------------

    Doubly Occupied:

       1A    -11.290412     2A    -11.254389     3A    -11.251539
       4A    -11.248049     5A    -11.233307     6A    -11.233075
       7A    -11.231324     8A    -11.228598     9A    -11.227585
      10A     -7.706279    11A     -5.537728    12A     -5.528442
      13A     -5.528432    14A     -2.266942    15A     -2.262525
      16A     -2.262502    17A     -2.252236    18A     -2.252235
      19A     -1.164527    20A     -1.073124    21A     -1.060660
      22A     -0.970037    23A     -0.938280    24A     -0.932944
      25A     -0.849420    26A     -0.789806    27A     -0.783526
      28A     -0.683290    29A     -0.666654    30A     -0.618298
      31A     -0.588713    32A     -0.585707    33A     -0.573412
      34A     -0.573017    35A     -0.564078    36A     -0.556575
      37A     -0.525693    38A     -0.511833    39A     -0.490722
      40A     -0.483319    41A     -0.444199    42A     -0.359465
      43A     -0.357275    44A     -0.325274    45A     -0.318104

  @DF-RHF Final Energy:  -642.00733667472150

   => Energetics <=

    Nuclear Repulsion Energy =            614.4580725345207384
    One-Electron Energy =               -2203.7637185701973976
    Two-Electron Energy =                 947.2983093609550451
    Total Energy =                       -642.0073366747215005
  Basis Set: (AUG-CC-PVTZ AUX)
    Blend: AUG-CC-PVTZ-RI + DEF2-QZVPP-RI
    Molecular point group: c1

    Geometry (in Angstrom), charge = 0, multiplicity = 1:

       Center              X                  Y                   Z               Mass
    ------------   -----------------  -----------------  -----------------  -----------------
         I            2.049519834954    -0.000851617726    -0.222481841035   126.904471900000
         C           -0.849461165046    -0.000856617726     0.766910158965    12.000000000000
         C           -2.798847165046    -1.226157617726    -0.035072841035    12.000000000000
         C           -2.798840165046     1.224457382274    -0.035066841035    12.000000000000
         C           -1.504746165046     1.208898382274     0.498692158965    12.000000000000
         C           -1.504750165046    -1.210605617726     0.498687158965    12.000000000000
         C           -3.438865865046     0.016623982274    -0.298291741035    12.000000000000
         C            0.526536834954    -0.000859617726     1.339145158965    12.000000000000
         C           -3.512502165046    -2.530019617726    -0.291609841035    12.000000000000
         C           -3.512502165046     2.528315382274    -0.291607841035    12.000000000000
         H           -0.989797165046     2.149984382274     0.691289158965     1.007825032230
         H           -0.989805165046    -2.151695617726     0.691279158965     1.007825032230
         H           -4.435130165046    -0.000845617726    -0.716265841035     1.007825032230
         H            0.732264834954    -0.893446617726     1.929212158965     1.007825032230
         H            0.732264834954     0.891722382274     1.929220158965     1.007825032230
         H           -4.201277165046    -2.443280617726    -1.135641841035     1.007825032230
         H           -4.096435165046    -2.834232617726     0.583237158965     1.007825032230
         H           -2.803690165046    -3.331670617726    -0.513070841035     1.007825032230
         H           -4.096772165046     2.832314382274     0.583088158965     1.007825032230
         H           -2.803673165046     3.330061382274    -0.512663841035     1.007825032230
         H           -4.200970165046     2.441684382274    -1.135900841035     1.007825032230

  Basis Set: AUG-CC-PVTZ
    Blend: AUG-CC-PVTZ
  Basis Set: (AUG-CC-PVTZ AUX)
    Blend: AUG-CC-PVTZ-JKFIT + DEF2-UNIVERSAL-JKFIT
	 Reference Energy          =    -642.0073366747215005 [Eh]
	 Singles Energy            =      -0.0000000000000000 [Eh]
	 Same-Spin Energy          =      -0.4675375856996355 [Eh]
	 Opposite-Spin Energy      =      -1.4525963986058290 [Eh]
	 Correlation Energy        =      -1.9201339843054646 [Eh]
	 Total Energy              =    -643.9274706590269943 [Eh]

	 ================> DF-SCS-MP2 Energies <==================
	-----------------------------------------------------------
	 SCS Same-Spin Scale       =       0.3333333333333333 [-]
	 SCS Opposite-Spin Scale   =       1.2000000000000000 [-]
	 SCS Same-Spin Energy      =      -0.1558458618998785 [Eh]
	 SCS Opposite-Spin Energy  =      -1.7431156783269948 [Eh]
	 SCS Correlation Energy    =      -1.8989615402268734 [Eh]
	 SCS Total Energy          =    -643.9062982149483787 [Eh]
	-----------------------------------------------------------

  Dipole Moment: [D]
     X:    -2.1000      Y:    -0.0168      Z:     0.8843     Total:     2.2787

*** Psi4 exiting successfully. Buy a developer a beer!
