                               Psi4 1.4a3.dev225

  ==> Input File <==

--------------------------------------------------------------------------
#psi4
#
memory 32 gb

molecule  {
0 1
  I        2.3447600     0.0000010    -0.2524410
  C       -0.5542210    -0.0000040     0.7369510
  C       -2.5036070    -1.2253050    -0.0650320
  C       -2.5036000     1.2253100    -0.0650260
  C       -1.2095060     1.2097510     0.4687330
  C       -1.2095100    -1.2097530     0.4687280
  C       -3.1346270     0.0000030    -0.3245500
  C        0.8217770    -0.0000070     1.3091860
  C       -3.2172620    -2.5291670    -0.3215690
  C       -3.2172620     2.5291680    -0.3215670
  H       -0.6945570     2.1508370     0.6613300
  H       -0.6945650    -2.1508430     0.6613200
  H       -4.1398900     0.0000070    -0.7462250
  H        1.0275050    -0.8925940     1.8992530
  H        1.0275050     0.8925750     1.8992610
  H       -3.8934319    -2.4440154    -1.1501546
  H       -3.8011950    -2.8333800     0.5532780
  H       -2.5084500    -3.3308180    -0.5430300
  H       -3.8015320     2.8331670     0.5531290
  H       -2.5084330     3.3309140    -0.5426230
  H       -3.9057300     2.4425370    -1.1658600
units angstrom
no_reorient  #important for SAPT in psi4, default
symmetry c1  #important for SAPT in psi4, default
}

set PROPERTIES_ORIGIN ["COM"]
properties('MP2/aug-cc-pvtz', properties = ['dipole'])
--------------------------------------------------------------------------

    Molecular point group: c1
  Charge       = 0
  Multiplicity = 1
  Basis Set: AUG-CC-PVTZ
    Blend: AUG-CC-PVTZ
  Basis Set: (AUG-CC-PVTZ AUX)
    Blend: AUG-CC-PVTZ-JKFIT + DEF2-UNIVERSAL-JKFIT

    Orbital Energies [Eh]
    ---------------------

    Doubly Occupied:

       1A    -11.290306     2A    -11.254059     3A    -11.249219
       4A    -11.249084     5A    -11.233178     6A    -11.233092
       7A    -11.231233     8A    -11.228280     9A    -11.225871
      10A     -7.706154    11A     -5.537600    12A     -5.528320
      13A     -5.528310    14A     -2.266813    15A     -2.262399
      16A     -2.262375    17A     -2.252117    18A     -2.252117
      19A     -1.165208    20A     -1.073181    21A     -1.061376
      22A     -0.970364    23A     -0.939046    24A     -0.933574
      25A     -0.849136    26A     -0.791193    27A     -0.783264
      28A     -0.682297    29A     -0.667183    30A     -0.617863
      31A     -0.589261    32A     -0.586242    33A     -0.573825
      34A     -0.573001    35A     -0.564290    36A     -0.556894
      37A     -0.526874    38A     -0.511315    39A     -0.489442
      40A     -0.485333    41A     -0.444565    42A     -0.359410
      43A     -0.357173    44A     -0.324839    45A     -0.318914

  @DF-RHF Final Energy:  -642.00794386264238

   => Energetics <=

    Nuclear Repulsion Energy =            614.7256670466573496
    One-Electron Energy =               -2204.2960347162943435
    Two-Electron Energy =                 947.5624238069947296
    Total Energy =                       -642.0079438626423780
  Basis Set: (AUG-CC-PVTZ AUX)
    Blend: AUG-CC-PVTZ-RI + DEF2-QZVPP-RI
    Molecular point group: c1

    Geometry (in Angstrom), charge = 0, multiplicity = 1:

       Center              X                  Y                   Z               Mass
    ------------   -----------------  -----------------  -----------------  -----------------
         I            2.049029213926     0.000007289349    -0.222725663691   126.904471900000
         C           -0.849951786074     0.000002289349     0.766666336309    12.000000000000
         C           -2.799337786074    -1.225298710651    -0.035316663691    12.000000000000
         C           -2.799330786074     1.225316289349    -0.035310663691    12.000000000000
         C           -1.505236786074     1.209757289349     0.498448336309    12.000000000000
         C           -1.505240786074    -1.209746710651     0.498443336309    12.000000000000
         C           -3.430357786074     0.000009289349    -0.294834663691    12.000000000000
         C            0.526046213926    -0.000000710651     1.338901336309    12.000000000000
         C           -3.512992786074    -2.529160710651    -0.291853663691    12.000000000000
         C           -3.512992786074     2.529174289349    -0.291851663691    12.000000000000
         H           -0.990287786074     2.150843289349     0.691045336309     1.007825032230
         H           -0.990295786074    -2.150836710651     0.691035336309     1.007825032230
         H           -4.435620786074     0.000013289349    -0.716509663691     1.007825032230
         H            0.731774213926    -0.892587710651     1.928968336309     1.007825032230
         H            0.731774213926     0.892581289349     1.928976336309     1.007825032230
         H           -4.189162686074    -2.444009110651    -1.120439263691     1.007825032230
         H           -4.096925786074    -2.833373710651     0.582993336309     1.007825032230
         H           -2.804180786074    -3.330811710651    -0.513314663691     1.007825032230
         H           -4.097262786074     2.833173289349     0.582844336309     1.007825032230
         H           -2.804163786074     3.330920289349    -0.512907663691     1.007825032230
         H           -4.201460786074     2.442543289349    -1.136144663691     1.007825032230

  Basis Set: AUG-CC-PVTZ
    Blend: AUG-CC-PVTZ
  Basis Set: (AUG-CC-PVTZ AUX)
    Blend: AUG-CC-PVTZ-JKFIT + DEF2-UNIVERSAL-JKFIT
	 Reference Energy          =    -642.0079438626423780 [Eh]
	 Singles Energy            =      -0.0000000000000000 [Eh]
	 Same-Spin Energy          =      -0.4675621801458948 [Eh]
	 Opposite-Spin Energy      =      -1.4524370476128803 [Eh]
	 Correlation Energy        =      -1.9199992277587752 [Eh]
	 Total Energy              =    -643.9279430904011861 [Eh]

	 ================> DF-SCS-MP2 Energies <==================
	-----------------------------------------------------------
	 SCS Same-Spin Scale       =       0.3333333333333333 [-]
	 SCS Opposite-Spin Scale   =       1.2000000000000000 [-]
	 SCS Same-Spin Energy      =      -0.1558540600486316 [Eh]
	 SCS Opposite-Spin Energy  =      -1.7429244571354563 [Eh]
	 SCS Correlation Energy    =      -1.8987785171840879 [Eh]
	 SCS Total Energy          =    -643.9067223798264195 [Eh]
	-----------------------------------------------------------

  Dipole Moment: [D]
     X:    -2.1082      Y:    -0.0044      Z:     0.8789     Total:     2.2841

*** Psi4 exiting successfully. Buy a developer a beer!
