                               Psi4 1.4a3.dev225

  ==> Input File <==

--------------------------------------------------------------------------
#psi4
#
memory 32 gb

molecule  {
0 1
  I        2.3447600     0.0000010    -0.2524410
  C       -0.5626227     0.0461030     0.7595183
  C       -2.5036070    -1.2253050    -0.0650320
  C       -2.5036000     1.2253100    -0.0650260
  C       -1.2095060     1.2097510     0.4687330
  C       -1.2095100    -1.2097530     0.4687280
  C       -3.1346270     0.0000030    -0.3245500
  C        0.8217770    -0.0000070     1.3091860
  C       -3.2172620    -2.5291670    -0.3215690
  C       -3.2172620     2.5291680    -0.3215670
  H       -0.6945570     2.1508370     0.6613300
  H       -0.6945650    -2.1508430     0.6613200
  H       -4.1398900     0.0000070    -0.7462250
  H        1.0275050    -0.8925940     1.8992530
  H        1.0275050     0.8925750     1.8992610
  H       -3.9060370    -2.4424280    -1.1656010
  H       -3.8011950    -2.8333800     0.5532780
  H       -2.5084500    -3.3308180    -0.5430300
  H       -3.8015320     2.8331670     0.5531290
  H       -2.5084330     3.3309140    -0.5426230
  H       -3.9057300     2.4425370    -1.1658600
units angstrom
no_reorient  #important for SAPT in psi4, default
symmetry c1  #important for SAPT in psi4, default
}

set PROPERTIES_ORIGIN ["COM"]
properties('MP2/aug-cc-pvtz', properties = ['dipole'])
--------------------------------------------------------------------------

    Molecular point group: c1
  Charge       = 0
  Multiplicity = 1
  Basis Set: AUG-CC-PVTZ
    Blend: AUG-CC-PVTZ
  Basis Set: (AUG-CC-PVTZ AUX)
    Blend: AUG-CC-PVTZ-JKFIT + DEF2-UNIVERSAL-JKFIT

    Orbital Energies [Eh]
    ---------------------

    Doubly Occupied:

       1A    -11.289976     2A    -11.253625     3A    -11.249794
       4A    -11.248559     5A    -11.236091     6A    -11.231502
       7A    -11.230228     8A    -11.228631     9A    -11.227950
      10A     -7.706530    11A     -5.537993    12A     -5.528687
      13A     -5.528672    14A     -2.267205    15A     -2.262781
      16A     -2.262755    17A     -2.252465    18A     -2.252465
      19A     -1.165443    20A     -1.073573    21A     -1.060753
      22A     -0.970462    23A     -0.939507    24A     -0.931563
      25A     -0.849620    26A     -0.792854    27A     -0.780872
      28A     -0.682365    29A     -0.666753    30A     -0.617709
      31A     -0.588664    32A     -0.586004    33A     -0.574098
      34A     -0.572511    35A     -0.563106    36A     -0.555693
      37A     -0.526114    38A     -0.511583    39A     -0.491643
      40A     -0.481307    41A     -0.445177    42A     -0.359592
      43A     -0.357229    44A     -0.328079    45A     -0.316484

  @DF-RHF Final Energy:  -642.00517620827577

   => Energetics <=

    Nuclear Repulsion Energy =            614.5085108435160919
    One-Electron Energy =               -2203.8580426325261215
    Two-Electron Energy =                 947.3443555807343728
    Total Energy =                       -642.0051762082757705
  Basis Set: (AUG-CC-PVTZ AUX)
    Blend: AUG-CC-PVTZ-RI + DEF2-QZVPP-RI
    Molecular point group: c1

    Geometry (in Angstrom), charge = 0, multiplicity = 1:

       Center              X                  Y                   Z               Mass
    ------------   -----------------  -----------------  -----------------  -----------------
         I            2.049490711884    -0.002248422619    -0.223763265885   126.904471900000
         C           -0.857891988116     0.043853577381     0.788196034115    12.000000000000
         C           -2.798876288116    -1.227554422619    -0.036354265885    12.000000000000
         C           -2.798869288116     1.223060577381    -0.036348265885    12.000000000000
         C           -1.504775288116     1.207501577381     0.497410734115    12.000000000000
         C           -1.504779288116    -1.212002422619     0.497405734115    12.000000000000
         C           -3.429896288116    -0.002246422619    -0.295872265885    12.000000000000
         C            0.526507711884    -0.002256422619     1.337863734115    12.000000000000
         C           -3.512531288116    -2.531416422619    -0.292891265885    12.000000000000
         C           -3.512531288116     2.526918577381    -0.292889265885    12.000000000000
         H           -0.989826288116     2.148587577381     0.690007734115     1.007825032230
         H           -0.989834288116    -2.153092422619     0.689997734115     1.007825032230
         H           -4.435159288116    -0.002242422619    -0.717547265885     1.007825032230
         H            0.732235711884    -0.894843422619     1.927930734115     1.007825032230
         H            0.732235711884     0.890325577381     1.927938734115     1.007825032230
         H           -4.201306288116    -2.444677422619    -1.136923265885     1.007825032230
         H           -4.096464288116    -2.835629422619     0.581955734115     1.007825032230
         H           -2.803719288116    -3.333067422619    -0.514352265885     1.007825032230
         H           -4.096801288116     2.830917577381     0.581806734115     1.007825032230
         H           -2.803702288116     3.328664577381    -0.513945265885     1.007825032230
         H           -4.200999288116     2.440287577381    -1.137182265885     1.007825032230

  Basis Set: AUG-CC-PVTZ
    Blend: AUG-CC-PVTZ
  Basis Set: (AUG-CC-PVTZ AUX)
    Blend: AUG-CC-PVTZ-JKFIT + DEF2-UNIVERSAL-JKFIT
	 Reference Energy          =    -642.0051762082757705 [Eh]
	 Singles Energy            =      -0.0000000000000000 [Eh]
	 Same-Spin Energy          =      -0.4674778794261643 [Eh]
	 Opposite-Spin Energy      =      -1.4526577019998848 [Eh]
	 Correlation Energy        =      -1.9201355814260490 [Eh]
	 Total Energy              =    -643.9253117897018228 [Eh]

	 ================> DF-SCS-MP2 Energies <==================
	-----------------------------------------------------------
	 SCS Same-Spin Scale       =       0.3333333333333333 [-]
	 SCS Opposite-Spin Scale   =       1.2000000000000000 [-]
	 SCS Same-Spin Energy      =      -0.1558259598087214 [Eh]
	 SCS Opposite-Spin Energy  =      -1.7431892423998616 [Eh]
	 SCS Correlation Energy    =      -1.8990152022085831 [Eh]
	 SCS Total Energy          =    -643.9041914104843727 [Eh]
	-----------------------------------------------------------

  Dipole Moment: [D]
     X:    -2.0938      Y:    -0.0005      Z:     0.8672     Total:     2.2663

*** Psi4 exiting successfully. Buy a developer a beer!
