                               Psi4 1.4a3.dev225

  ==> Input File <==

--------------------------------------------------------------------------
#psi4
#
memory 32 gb

molecule  {
0 1
  I        2.3447600     0.0000010    -0.2524410
  C       -0.5542210    -0.0000040     0.7369510
  C       -2.5036070    -1.2253050    -0.0650320
  C       -2.5036000     1.2253100    -0.0650260
  C       -1.2095060     1.2097510     0.4687330
  C       -1.1170705    -1.2086421     0.5068554
  C       -3.1346270     0.0000030    -0.3245500
  C        0.8217770    -0.0000070     1.3091860
  C       -3.2172620    -2.5291670    -0.3215690
  C       -3.2172620     2.5291680    -0.3215670
  H       -0.6945570     2.1508370     0.6613300
  H       -0.6945650    -2.1508430     0.6613200
  H       -4.1398900     0.0000070    -0.7462250
  H        1.0275050    -0.8925940     1.8992530
  H        1.0275050     0.8925750     1.8992610
  H       -3.9060370    -2.4424280    -1.1656010
  H       -3.8011950    -2.8333800     0.5532780
  H       -2.5084500    -3.3308180    -0.5430300
  H       -3.8015320     2.8331670     0.5531290
  H       -2.5084330     3.3309140    -0.5426230
  H       -3.9057300     2.4425370    -1.1658600
units angstrom
no_reorient  #important for SAPT in psi4, default
symmetry c1  #important for SAPT in psi4, default
}

set PROPERTIES_ORIGIN ["COM"]
properties('MP2/aug-cc-pvtz', properties = ['dipole'])
--------------------------------------------------------------------------

    Molecular point group: c1
  Charge       = 0
  Multiplicity = 1
  Basis Set: AUG-CC-PVTZ
    Blend: AUG-CC-PVTZ
  Basis Set: (AUG-CC-PVTZ AUX)
    Blend: AUG-CC-PVTZ-JKFIT + DEF2-UNIVERSAL-JKFIT

    Orbital Energies [Eh]
    ---------------------

    Doubly Occupied:

       1A    -11.287651     2A    -11.259915     3A    -11.250960
       4A    -11.249580     5A    -11.234158     6A    -11.231781
       7A    -11.230932     8A    -11.229968     9A    -11.228820
      10A     -7.704927    11A     -5.536324    12A     -5.527132
      13A     -5.527107    14A     -2.265531    15A     -2.261154
      16A     -2.261119    17A     -2.250951    18A     -2.250951
      19A     -1.163221    20A     -1.077459    21A     -1.054575
      22A     -0.969122    23A     -0.939747    24A     -0.934484
      25A     -0.846196    26A     -0.794002    27A     -0.778604
      28A     -0.688319    29A     -0.665853    30A     -0.617299
      31A     -0.587890    32A     -0.585589    33A     -0.580908
      34A     -0.573561    35A     -0.564424    36A     -0.556790
      37A     -0.526069    38A     -0.511035    39A     -0.494226
      40A     -0.476854    41A     -0.440939    42A     -0.358889
      43A     -0.356102    44A     -0.326726    45A     -0.314929

  @DF-RHF Final Energy:  -641.99624124142235

   => Energetics <=

    Nuclear Repulsion Energy =            614.3106052341476015
    One-Electron Energy =               -2203.4681444157390615
    Two-Electron Energy =                 947.1612979401689927
    Total Energy =                       -641.9962412414223536
  Basis Set: (AUG-CC-PVTZ AUX)
    Blend: AUG-CC-PVTZ-RI + DEF2-QZVPP-RI
    Molecular point group: c1

    Geometry (in Angstrom), charge = 0, multiplicity = 1:

       Center              X                  Y                   Z               Mass
    ------------   -----------------  -----------------  -----------------  -----------------
         I            2.044571439930    -0.000053406566    -0.224522324321   126.904471900000
         C           -0.854409560070    -0.000058406566     0.764869675679    12.000000000000
         C           -2.803795560070    -1.225359406566    -0.037113324321    12.000000000000
         C           -2.803788560070     1.225255593434    -0.037107324321    12.000000000000
         C           -1.509694560070     1.209696593434     0.496651675679    12.000000000000
         C           -1.417259060070    -1.208696506566     0.534774075679    12.000000000000
         C           -3.434815560070    -0.000051406566    -0.296631324321    12.000000000000
         C            0.521588439930    -0.000061406566     1.337104675679    12.000000000000
         C           -3.517450560070    -2.529221406566    -0.293650324321    12.000000000000
         C           -3.517450560070     2.529113593434    -0.293648324321    12.000000000000
         H           -0.994745560070     2.150782593434     0.689248675679     1.007825032230
         H           -0.994753560070    -2.150897406566     0.689238675679     1.007825032230
         H           -4.440078560070    -0.000047406566    -0.718306324321     1.007825032230
         H            0.727316439930    -0.892648406566     1.927171675679     1.007825032230
         H            0.727316439930     0.892520593434     1.927179675679     1.007825032230
         H           -4.206225560070    -2.442482406566    -1.137682324321     1.007825032230
         H           -4.101383560070    -2.833434406566     0.581196675679     1.007825032230
         H           -2.808638560070    -3.330872406566    -0.515111324321     1.007825032230
         H           -4.101720560070     2.833112593434     0.581047675679     1.007825032230
         H           -2.808621560070     3.330859593434    -0.514704324321     1.007825032230
         H           -4.205918560070     2.442482593434    -1.137941324321     1.007825032230

  Basis Set: AUG-CC-PVTZ
    Blend: AUG-CC-PVTZ
  Basis Set: (AUG-CC-PVTZ AUX)
    Blend: AUG-CC-PVTZ-JKFIT + DEF2-UNIVERSAL-JKFIT
	 Reference Energy          =    -641.9962412414223536 [Eh]
	 Singles Energy            =      -0.0000000000000000 [Eh]
	 Same-Spin Energy          =      -0.4673045174469773 [Eh]
	 Opposite-Spin Energy      =      -1.4530531167537120 [Eh]
	 Correlation Energy        =      -1.9203576342006894 [Eh]
	 Total Energy              =    -643.9165988756230945 [Eh]

	 ================> DF-SCS-MP2 Energies <==================
	-----------------------------------------------------------
	 SCS Same-Spin Scale       =       0.3333333333333333 [-]
	 SCS Opposite-Spin Scale   =       1.2000000000000000 [-]
	 SCS Same-Spin Energy      =      -0.1557681724823258 [Eh]
	 SCS Opposite-Spin Energy  =      -1.7436637401044544 [Eh]
	 SCS Correlation Energy    =      -1.8994319125867800 [Eh]
	 SCS Total Energy          =    -643.8956731540091596 [Eh]
	-----------------------------------------------------------

  Dipole Moment: [D]
     X:    -2.1671      Y:    -0.0501      Z:     0.8830     Total:     2.3407

*** Psi4 exiting successfully. Buy a developer a beer!
