                               Psi4 1.4a3.dev225

  ==> Input File <==

--------------------------------------------------------------------------
#psi4
#
memory 32 gb

molecule  {
0 1
  I        2.3447600     0.0000010    -0.2524410
  C       -0.5441428    -0.0461110     0.7150809
  C       -2.5036070    -1.2253050    -0.0650320
  C       -2.5036000     1.2253100    -0.0650260
  C       -1.2095060     1.2097510     0.4687330
  C       -1.2095100    -1.2097530     0.4687280
  C       -3.1346270     0.0000030    -0.3245500
  C        0.8217770    -0.0000070     1.3091860
  C       -3.2172620    -2.5291670    -0.3215690
  C       -3.2172620     2.5291680    -0.3215670
  H       -0.6945570     2.1508370     0.6613300
  H       -0.6945650    -2.1508430     0.6613200
  H       -4.1398900     0.0000070    -0.7462250
  H        1.0275050    -0.8925940     1.8992530
  H        1.0275050     0.8925750     1.8992610
  H       -3.9060370    -2.4424280    -1.1656010
  H       -3.8011950    -2.8333800     0.5532780
  H       -2.5084500    -3.3308180    -0.5430300
  H       -3.8015320     2.8331670     0.5531290
  H       -2.5084330     3.3309140    -0.5426230
  H       -3.9057300     2.4425370    -1.1658600
units angstrom
no_reorient  #important for SAPT in psi4, default
symmetry c1  #important for SAPT in psi4, default
}

set PROPERTIES_ORIGIN ["COM"]
properties('MP2/aug-cc-pvtz', properties = ['dipole'])
--------------------------------------------------------------------------

    Molecular point group: c1
  Charge       = 0
  Multiplicity = 1
  Basis Set: AUG-CC-PVTZ
    Blend: AUG-CC-PVTZ
  Basis Set: (AUG-CC-PVTZ AUX)
    Blend: AUG-CC-PVTZ-JKFIT + DEF2-UNIVERSAL-JKFIT

    Orbital Energies [Eh]
    ---------------------

    Doubly Occupied:

       1A    -11.290953     2A    -11.254282     3A    -11.249836
       4A    -11.248605     5A    -11.235972     6A    -11.231158
       7A    -11.230071     8A    -11.228608     9A    -11.227927
      10A     -7.705955    11A     -5.537388    12A     -5.528134
      13A     -5.528115    14A     -2.266602    15A     -2.262199
      16A     -2.262172    17A     -2.251939    18A     -2.251938
      19A     -1.165485    20A     -1.073908    21A     -1.060733
      22A     -0.970748    23A     -0.939472    24A     -0.931561
      25A     -0.848733    26A     -0.792919    27A     -0.781399
      28A     -0.682323    29A     -0.666812    30A     -0.619598
      31A     -0.589214    32A     -0.585915    33A     -0.574186
      34A     -0.572738    35A     -0.563169    36A     -0.555625
      37A     -0.526237    38A     -0.511410    39A     -0.492077
      40A     -0.481625    41A     -0.443837    42A     -0.359714
      43A     -0.357083    44A     -0.327809    45A     -0.315924

  @DF-RHF Final Energy:  -642.00503114296112

   => Energetics <=

    Nuclear Repulsion Energy =            614.7579921767822952
    One-Electron Energy =               -2204.3618360248619865
    Two-Electron Energy =                 947.5988127051184620
    Total Energy =                       -642.0050311429611156
  Basis Set: (AUG-CC-PVTZ AUX)
    Blend: AUG-CC-PVTZ-RI + DEF2-QZVPP-RI
    Molecular point group: c1

    Geometry (in Angstrom), charge = 0, multiplicity = 1:

       Center              X                  Y                   Z               Mass
    ------------   -----------------  -----------------  -----------------  -----------------
         I            2.048589218707     0.002249994139    -0.221595504538   126.904471900000
         C           -0.840313581293    -0.043862005861     0.745926395462    12.000000000000
         C           -2.799777781293    -1.223056005861    -0.034186504538    12.000000000000
         C           -2.799770781293     1.227558994139    -0.034180504538    12.000000000000
         C           -1.505676781293     1.211999994139     0.499578495462    12.000000000000
         C           -1.505680781293    -1.207504005861     0.499573495462    12.000000000000
         C           -3.430797781293     0.002251994139    -0.293704504538    12.000000000000
         C            0.525606218707     0.002241994139     1.340031495462    12.000000000000
         C           -3.513432781293    -2.526918005861    -0.290723504538    12.000000000000
         C           -3.513432781293     2.531416994139    -0.290721504538    12.000000000000
         H           -0.990727781293     2.153085994139     0.692175495462     1.007825032230
         H           -0.990735781293    -2.148594005861     0.692165495462     1.007825032230
         H           -4.436060781293     0.002255994139    -0.715379504538     1.007825032230
         H            0.731334218707    -0.890345005861     1.930098495462     1.007825032230
         H            0.731334218707     0.894823994139     1.930106495462     1.007825032230
         H           -4.202207781293    -2.440179005861    -1.134755504538     1.007825032230
         H           -4.097365781293    -2.831131005861     0.584123495462     1.007825032230
         H           -2.804620781293    -3.328569005861    -0.512184504538     1.007825032230
         H           -4.097702781293     2.835415994139     0.583974495462     1.007825032230
         H           -2.804603781293     3.333162994139    -0.511777504538     1.007825032230
         H           -4.201900781293     2.444785994139    -1.135014504538     1.007825032230

  Basis Set: AUG-CC-PVTZ
    Blend: AUG-CC-PVTZ
  Basis Set: (AUG-CC-PVTZ AUX)
    Blend: AUG-CC-PVTZ-JKFIT + DEF2-UNIVERSAL-JKFIT
	 Reference Energy          =    -642.0050311429611156 [Eh]
	 Singles Energy            =      -0.0000000000000000 [Eh]
	 Same-Spin Energy          =      -0.4675538656565370 [Eh]
	 Opposite-Spin Energy      =      -1.4527760289220619 [Eh]
	 Correlation Energy        =      -1.9203298945785989 [Eh]
	 Total Energy              =    -643.9253610375396875 [Eh]

	 ================> DF-SCS-MP2 Energies <==================
	-----------------------------------------------------------
	 SCS Same-Spin Scale       =       0.3333333333333333 [-]
	 SCS Opposite-Spin Scale   =       1.2000000000000000 [-]
	 SCS Same-Spin Energy      =      -0.1558512885521790 [Eh]
	 SCS Opposite-Spin Energy  =      -1.7433312347064742 [Eh]
	 SCS Correlation Energy    =      -1.8991825232586532 [Eh]
	 SCS Total Energy          =    -643.9042136662197890 [Eh]
	-----------------------------------------------------------

  Dipole Moment: [D]
     X:    -2.0981      Y:     0.0010      Z:     0.9028     Total:     2.2841

*** Psi4 exiting successfully. Buy a developer a beer!
