                               Psi4 1.4a3.dev225

  ==> Input File <==

--------------------------------------------------------------------------
#psi4
#
memory 32 gb

molecule  {
0 1
  I        2.3447600     0.0000010    -0.2524410
  C       -0.5542210    -0.0000040     0.7369510
  C       -2.5036070    -1.2253050    -0.0650320
  C       -2.5036000     1.2253100    -0.0650260
  C       -1.2095060     1.2097510     0.4687330
  C       -1.2095100    -1.2097530     0.4687280
  C       -3.1346270     0.0000030    -0.3245500
  C        0.8217770    -0.0000070     1.3091860
  C       -3.1226358    -2.3562831    -0.2875538
  C       -3.2172620     2.5291680    -0.3215670
  H       -0.6945570     2.1508370     0.6613300
  H       -0.6945650    -2.1508430     0.6613200
  H       -4.1398900     0.0000070    -0.7462250
  H        1.0275050    -0.8925940     1.8992530
  H        1.0275050     0.8925750     1.8992610
  H       -3.9060370    -2.4424280    -1.1656010
  H       -3.8011950    -2.8333800     0.5532780
  H       -2.5084500    -3.3308180    -0.5430300
  H       -3.8015320     2.8331670     0.5531290
  H       -2.5084330     3.3309140    -0.5426230
  H       -3.9057300     2.4425370    -1.1658600
units angstrom
no_reorient  #important for SAPT in psi4, default
symmetry c1  #important for SAPT in psi4, default
}

set PROPERTIES_ORIGIN ["COM"]
properties('MP2/aug-cc-pvtz', properties = ['dipole'])
--------------------------------------------------------------------------

    Molecular point group: c1
  Charge       = 0
  Multiplicity = 1
  Basis Set: AUG-CC-PVTZ
    Blend: AUG-CC-PVTZ
  Basis Set: (AUG-CC-PVTZ AUX)
    Blend: AUG-CC-PVTZ-JKFIT + DEF2-UNIVERSAL-JKFIT

    Orbital Energies [Eh]
    ---------------------

    Doubly Occupied:

       1A    -11.290874     2A    -11.254900     3A    -11.249993
       4A    -11.239302     5A    -11.236993     6A    -11.234277
       7A    -11.234077     8A    -11.232075     9A    -11.228874
      10A     -7.706667    11A     -5.538122    12A     -5.528826
      13A     -5.528817    14A     -2.267336    15A     -2.262916
      16A     -2.262893    17A     -2.252616    18A     -2.252616
      19A     -1.175200    20A     -1.093611    21A     -1.069950
      22A     -0.972679    23A     -0.939551    24A     -0.930449
      25A     -0.850199    26A     -0.790149    27A     -0.783266
      28A     -0.683993    29A     -0.672662    30A     -0.644540
      31A     -0.595546    32A     -0.585754    33A     -0.582290
      34A     -0.569146    35A     -0.561430    36A     -0.549668
      37A     -0.511606    38A     -0.504302    39A     -0.496203
      40A     -0.470855    41A     -0.438810    42A     -0.359694
      43A     -0.357474    44A     -0.322529    45A     -0.315854

  @DF-RHF Final Energy:  -641.95609537546000

   => Energetics <=

    Nuclear Repulsion Energy =            618.5965921372231833
    One-Electron Energy =               -2211.8461995934544575
    Two-Electron Energy =                 951.2935120807713929
    Total Energy =                       -641.9560953754599950
  Basis Set: (AUG-CC-PVTZ AUX)
    Blend: AUG-CC-PVTZ-RI + DEF2-QZVPP-RI
    Molecular point group: c1

    Geometry (in Angstrom), charge = 0, multiplicity = 1:

       Center              X                  Y                   Z               Mass
    ------------   -----------------  -----------------  -----------------  -----------------
         I            2.044464767539    -0.008432899287    -0.224321721490   126.904471900000
         C           -0.854516232461    -0.008437899287     0.765070278510    12.000000000000
         C           -2.803902232461    -1.233738899287    -0.036912721490    12.000000000000
         C           -2.803895232461     1.216876100713    -0.036906721490    12.000000000000
         C           -1.509801232461     1.201317100713     0.496852278510    12.000000000000
         C           -1.509805232461    -1.218186899287     0.496847278510    12.000000000000
         C           -3.434922232461    -0.008430899287    -0.296430721490    12.000000000000
         C            0.521481767539    -0.008440899287     1.337305278510    12.000000000000
         C           -3.422931032461    -2.364716999287    -0.259434521490    12.000000000000
         C           -3.517557232461     2.520734100713    -0.293447721490    12.000000000000
         H           -0.994852232461     2.142403100713     0.689449278510     1.007825032230
         H           -0.994860232461    -2.159276899287     0.689439278510     1.007825032230
         H           -4.440185232461    -0.008426899287    -0.718105721490     1.007825032230
         H            0.727209767539    -0.901027899287     1.927372278510     1.007825032230
         H            0.727209767539     0.884141100713     1.927380278510     1.007825032230
         H           -4.206332232461    -2.450861899287    -1.137481721490     1.007825032230
         H           -4.101490232461    -2.841813899287     0.581397278510     1.007825032230
         H           -2.808745232461    -3.339251899287    -0.514910721490     1.007825032230
         H           -4.101827232461     2.824733100713     0.581248278510     1.007825032230
         H           -2.808728232461     3.322480100713    -0.514503721490     1.007825032230
         H           -4.206025232461     2.434103100713    -1.137740721490     1.007825032230

  Basis Set: AUG-CC-PVTZ
    Blend: AUG-CC-PVTZ
  Basis Set: (AUG-CC-PVTZ AUX)
    Blend: AUG-CC-PVTZ-JKFIT + DEF2-UNIVERSAL-JKFIT
	 Reference Energy          =    -641.9560953754599950 [Eh]
	 Singles Energy            =      -0.0000000000000000 [Eh]
	 Same-Spin Energy          =      -0.4711106156503965 [Eh]
	 Opposite-Spin Energy      =      -1.4572261369516439 [Eh]
	 Correlation Energy        =      -1.9283367526020405 [Eh]
	 Total Energy              =    -643.8844321280620306 [Eh]

	 ================> DF-SCS-MP2 Energies <==================
	-----------------------------------------------------------
	 SCS Same-Spin Scale       =       0.3333333333333333 [-]
	 SCS Opposite-Spin Scale   =       1.2000000000000000 [-]
	 SCS Same-Spin Energy      =      -0.1570368718834655 [Eh]
	 SCS Opposite-Spin Energy  =      -1.7486713643419727 [Eh]
	 SCS Correlation Energy    =      -1.9057082362254383 [Eh]
	 SCS Total Energy          =    -643.8618036116854455 [Eh]
	-----------------------------------------------------------

  Dipole Moment: [D]
     X:    -2.0716      Y:     0.0344      Z:     0.8978     Total:     2.2581

*** Psi4 exiting successfully. Buy a developer a beer!
