                               Psi4 1.4a3.dev225

  ==> Input File <==

--------------------------------------------------------------------------
#psi4
#
memory 32 gb

molecule  {
0 1
  I        2.3447600     0.0000010    -0.2524410
  C       -0.5542210    -0.0000040     0.7369510
  C       -2.5036070    -1.2253050    -0.0650320
  C       -2.5036000     1.2253100    -0.0650260
  C       -1.2095060     1.2097510     0.4687330
  C       -1.2095100    -1.2097530     0.4687280
  C       -3.1346270     0.0000030    -0.3245500
  C        0.8915963    -0.0000066     1.2375951
  C       -3.2172620    -2.5291670    -0.3215690
  C       -3.2172620     2.5291680    -0.3215670
  H       -0.6945570     2.1508370     0.6613300
  H       -0.6945650    -2.1508430     0.6613200
  H       -4.1398900     0.0000070    -0.7462250
  H        1.0275050    -0.8925940     1.8992530
  H        1.0275050     0.8925750     1.8992610
  H       -3.9060370    -2.4424280    -1.1656010
  H       -3.8011950    -2.8333800     0.5532780
  H       -2.5084500    -3.3308180    -0.5430300
  H       -3.8015320     2.8331670     0.5531290
  H       -2.5084330     3.3309140    -0.5426230
  H       -3.9057300     2.4425370    -1.1658600
units angstrom
no_reorient  #important for SAPT in psi4, default
symmetry c1  #important for SAPT in psi4, default
}

set PROPERTIES_ORIGIN ["COM"]
properties('MP2/aug-cc-pvtz', properties = ['dipole'])
--------------------------------------------------------------------------

    Molecular point group: c1
  Charge       = 0
  Multiplicity = 1
  Basis Set: AUG-CC-PVTZ
    Blend: AUG-CC-PVTZ
  Basis Set: (AUG-CC-PVTZ AUX)
    Blend: AUG-CC-PVTZ-JKFIT + DEF2-UNIVERSAL-JKFIT

    Orbital Energies [Eh]
    ---------------------

    Doubly Occupied:

       1A    -11.288493     2A    -11.254300     3A    -11.247679
       4A    -11.247653     5A    -11.230900     6A    -11.230861
       7A    -11.229115     8A    -11.227163     9A    -11.227162
      10A     -7.712633    11A     -5.544433    12A     -5.534737
      13A     -5.534733    14A     -2.274273    15A     -2.269166
      16A     -2.269155    17A     -2.258464    18A     -2.258463
      19A     -1.161914    20A     -1.067382    21A     -1.059528
      22A     -0.973603    23A     -0.938566    24A     -0.931002
      25A     -0.850086    26A     -0.788334    27A     -0.777280
      28A     -0.679731    29A     -0.661107    30A     -0.607288
      31A     -0.584815    32A     -0.576440    33A     -0.572293
      34A     -0.568784    35A     -0.561592    36A     -0.554350
      37A     -0.523533    38A     -0.517231    39A     -0.483623
      40A     -0.482718    41A     -0.457689    42A     -0.361459
      43A     -0.359476    44A     -0.323303    45A     -0.321500

  @DF-RHF Final Energy:  -642.00151043972585

   => Energetics <=

    Nuclear Repulsion Energy =            615.4623685862173943
    One-Electron Energy =               -2205.7597386459265181
    Two-Electron Energy =                 948.2958596199831618
    Total Energy =                       -642.0015104397258483
  Basis Set: (AUG-CC-PVTZ AUX)
    Blend: AUG-CC-PVTZ-RI + DEF2-QZVPP-RI
    Molecular point group: c1

    Geometry (in Angstrom), charge = 0, multiplicity = 1:

       Center              X                  Y                   Z               Mass
    ------------   -----------------  -----------------  -----------------  -----------------
         I            2.045674906722     0.000000766247    -0.219170006458   126.904471900000
         C           -0.853306093278    -0.000004233753     0.770221993542    12.000000000000
         C           -2.802692093278    -1.225305233753    -0.031761006458    12.000000000000
         C           -2.802685093278     1.225309766247    -0.031755006458    12.000000000000
         C           -1.508591093278     1.209750766247     0.502003993542    12.000000000000
         C           -1.508595093278    -1.209753233753     0.501998993542    12.000000000000
         C           -3.433712093278     0.000002766247    -0.291279006458    12.000000000000
         C            0.592511206722    -0.000006833753     1.270866093542    12.000000000000
         C           -3.516347093278    -2.529167233753    -0.288298006458    12.000000000000
         C           -3.516347093278     2.529167766247    -0.288296006458    12.000000000000
         H           -0.993642093278     2.150836766247     0.694600993542     1.007825032230
         H           -0.993650093278    -2.150843233753     0.694590993542     1.007825032230
         H           -4.438975093278     0.000006766247    -0.712954006458     1.007825032230
         H            0.728419906722    -0.892594233753     1.932523993542     1.007825032230
         H            0.728419906722     0.892574766247     1.932531993542     1.007825032230
         H           -4.205122093278    -2.442428233753    -1.132330006458     1.007825032230
         H           -4.100280093278    -2.833380233753     0.586548993542     1.007825032230
         H           -2.807535093278    -3.330818233753    -0.509759006458     1.007825032230
         H           -4.100617093278     2.833166766247     0.586399993542     1.007825032230
         H           -2.807518093278     3.330913766247    -0.509352006458     1.007825032230
         H           -4.204815093278     2.442536766247    -1.132589006458     1.007825032230

  Basis Set: AUG-CC-PVTZ
    Blend: AUG-CC-PVTZ
  Basis Set: (AUG-CC-PVTZ AUX)
    Blend: AUG-CC-PVTZ-JKFIT + DEF2-UNIVERSAL-JKFIT
	 Reference Energy          =    -642.0015104397258483 [Eh]
	 Singles Energy            =      -0.0000000000000000 [Eh]
	 Same-Spin Energy          =      -0.4680874437250119 [Eh]
	 Opposite-Spin Energy      =      -1.4537382164644255 [Eh]
	 Correlation Energy        =      -1.9218256601894375 [Eh]
	 Total Energy              =    -643.9233360999153319 [Eh]

	 ================> DF-SCS-MP2 Energies <==================
	-----------------------------------------------------------
	 SCS Same-Spin Scale       =       0.3333333333333333 [-]
	 SCS Opposite-Spin Scale   =       1.2000000000000000 [-]
	 SCS Same-Spin Energy      =      -0.1560291479083373 [Eh]
	 SCS Opposite-Spin Energy  =      -1.7444858597573105 [Eh]
	 SCS Correlation Energy    =      -1.9005150076656478 [Eh]
	 SCS Total Energy          =    -643.9020254473914520 [Eh]
	-----------------------------------------------------------

  Dipole Moment: [D]
     X:    -1.7917      Y:    -0.0000      Z:     0.7411     Total:     1.9389

*** Psi4 exiting successfully. Buy a developer a beer!
