                               Psi4 1.4a3.dev225

  ==> Input File <==

--------------------------------------------------------------------------
#psi4
#
memory 32 gb

molecule  {
0 1
  I        2.3447600     0.0000010    -0.2524410
  C       -0.5542210    -0.0000040     0.7369510
  C       -2.5036070    -1.2253050    -0.0650320
  C       -2.5036000     1.2253100    -0.0650260
  C       -1.2095060     1.2097510     0.4687330
  C       -1.2095100    -1.2097530     0.4687280
  C       -3.1346270     0.0000030    -0.3245500
  C        0.8357409    -0.0000069     1.2948678
  C       -3.2172620    -2.5291670    -0.3215690
  C       -3.2172620     2.5291680    -0.3215670
  H       -0.6945570     2.1508370     0.6613300
  H       -0.6945650    -2.1508430     0.6613200
  H       -4.1398900     0.0000070    -0.7462250
  H        1.0275050    -0.8925940     1.8992530
  H        1.0275050     0.8925750     1.8992610
  H       -3.9060370    -2.4424280    -1.1656010
  H       -3.8011950    -2.8333800     0.5532780
  H       -2.5084500    -3.3308180    -0.5430300
  H       -3.8015320     2.8331670     0.5531290
  H       -2.5084330     3.3309140    -0.5426230
  H       -3.9057300     2.4425370    -1.1658600
units angstrom
no_reorient  #important for SAPT in psi4, default
symmetry c1  #important for SAPT in psi4, default
}

set PROPERTIES_ORIGIN ["COM"]
properties('MP2/aug-cc-pvtz', properties = ['dipole'])
--------------------------------------------------------------------------

    Molecular point group: c1
  Charge       = 0
  Multiplicity = 1
  Basis Set: AUG-CC-PVTZ
    Blend: AUG-CC-PVTZ
  Basis Set: (AUG-CC-PVTZ AUX)
    Blend: AUG-CC-PVTZ-JKFIT + DEF2-UNIVERSAL-JKFIT

    Orbital Energies [Eh]
    ---------------------

    Doubly Occupied:

       1A    -11.289722     2A    -11.254065     3A    -11.248890
       4A    -11.248864     5A    -11.232699     6A    -11.232656
       7A    -11.230745     8A    -11.228034     9A    -11.228034
      10A     -7.707617    11A     -5.539135    12A     -5.529765
      13A     -5.529757    14A     -2.268456    15A     -2.263917
      16A     -2.263896    17A     -2.253540    18A     -2.253539
      19A     -1.164495    20A     -1.071864    21A     -1.060783
      22A     -0.970435    23A     -0.938523    24A     -0.932551
      25A     -0.849559    26A     -0.790382    27A     -0.781907
      28A     -0.681719    29A     -0.665729    30A     -0.615497
      31A     -0.586287    32A     -0.585701    33A     -0.573215
      34A     -0.572246    35A     -0.563680    36A     -0.555396
      37A     -0.525452    38A     -0.512270    39A     -0.487842
      40A     -0.485028    41A     -0.447366    42A     -0.360055
      43A     -0.357848    44A     -0.324538    45A     -0.319539

  @DF-RHF Final Energy:  -642.00754656275535

   => Energetics <=

    Nuclear Repulsion Energy =            614.7955355682913705
    One-Electron Energy =               -2204.4396980662763781
    Two-Electron Energy =                 947.6366159352296563
    Total Energy =                       -642.0075465627553513
  Basis Set: (AUG-CC-PVTZ AUX)
    Blend: AUG-CC-PVTZ-RI + DEF2-QZVPP-RI
    Molecular point group: c1

    Geometry (in Angstrom), charge = 0, multiplicity = 1:

       Center              X                  Y                   Z               Mass
    ------------   -----------------  -----------------  -----------------  -----------------
         I            2.048399665082     0.000000780882    -0.221963904060   126.904471900000
         C           -0.850581334918    -0.000004219118     0.767428095940    12.000000000000
         C           -2.799967334918    -1.225305219118    -0.034554904060    12.000000000000
         C           -2.799960334918     1.225309780882    -0.034548904060    12.000000000000
         C           -1.505866334918     1.209750780882     0.499210095940    12.000000000000
         C           -1.505870334918    -1.209753219118     0.499205095940    12.000000000000
         C           -3.430987334918     0.000002780882    -0.294072904060    12.000000000000
         C            0.539380565082    -0.000007119118     1.325344895940    12.000000000000
         C           -3.513622334918    -2.529167219118    -0.291091904060    12.000000000000
         C           -3.513622334918     2.529167780882    -0.291089904060    12.000000000000
         H           -0.990917334918     2.150836780882     0.691807095940     1.007825032230
         H           -0.990925334918    -2.150843219118     0.691797095940     1.007825032230
         H           -4.436250334918     0.000006780882    -0.715747904060     1.007825032230
         H            0.731144665082    -0.892594219118     1.929730095940     1.007825032230
         H            0.731144665082     0.892574780882     1.929738095940     1.007825032230
         H           -4.202397334918    -2.442428219118    -1.135123904060     1.007825032230
         H           -4.097555334918    -2.833380219118     0.583755095940     1.007825032230
         H           -2.804810334918    -3.330818219118    -0.512552904060     1.007825032230
         H           -4.097892334918     2.833166780882     0.583606095940     1.007825032230
         H           -2.804793334918     3.330913780882    -0.512145904060     1.007825032230
         H           -4.202090334918     2.442536780882    -1.135382904060     1.007825032230

  Basis Set: AUG-CC-PVTZ
    Blend: AUG-CC-PVTZ
  Basis Set: (AUG-CC-PVTZ AUX)
    Blend: AUG-CC-PVTZ-JKFIT + DEF2-UNIVERSAL-JKFIT
	 Reference Energy          =    -642.0075465627553513 [Eh]
	 Singles Energy            =      -0.0000000000000000 [Eh]
	 Same-Spin Energy          =      -0.4676278180425836 [Eh]
	 Opposite-Spin Energy      =      -1.4527442836181792 [Eh]
	 Correlation Energy        =      -1.9203721016607629 [Eh]
	 Total Energy              =    -643.9279186644160973 [Eh]

	 ================> DF-SCS-MP2 Energies <==================
	-----------------------------------------------------------
	 SCS Same-Spin Scale       =       0.3333333333333333 [-]
	 SCS Opposite-Spin Scale   =       1.2000000000000000 [-]
	 SCS Same-Spin Energy      =      -0.1558759393475279 [Eh]
	 SCS Opposite-Spin Energy  =      -1.7432931403418150 [Eh]
	 SCS Correlation Energy    =      -1.8991690796893428 [Eh]
	 SCS Total Energy          =    -643.9067156424447376 [Eh]
	-----------------------------------------------------------

  Dipole Moment: [D]
     X:    -2.0309      Y:    -0.0000      Z:     0.8558     Total:     2.2039

*** Psi4 exiting successfully. Buy a developer a beer!
