                               Psi4 1.4a3.dev225

  ==> Input File <==

--------------------------------------------------------------------------
#psi4
#
memory 32 gb

molecule  {
0 1
  I        2.3447600     0.0000010    -0.2524410
  C       -0.5542210    -0.0000040     0.7369510
  C       -2.5036070    -1.2253050    -0.0650320
  C       -2.5036000     1.2253100    -0.0650260
  C       -1.2095060     1.2097510     0.4687330
  C       -1.2095100    -1.2097530     0.4687280
  C       -3.1346270     0.0000030    -0.3245500
  C        0.8217770    -0.0000070     1.3091860
  C       -3.2172620    -2.5291670    -0.3215690
  C       -3.2172620     2.5291680    -0.3215670
  H       -0.6945570     2.1508370     0.6613300
  H       -0.6945650    -2.1508430     0.6613200
  H       -4.1398900     0.0000070    -0.7462250
  H        1.0275050    -0.8925940     1.8992530
  H        1.0275050     0.8925750     1.8992610
  H       -3.9060370    -2.4424280    -1.1656010
  H       -3.8011950    -2.8333800     0.5532780
  H       -2.5084500    -3.3308180    -0.5430300
  H       -3.8015320     2.8331670     0.5531290
  H       -2.5084330     3.3309140    -0.5426230
  H       -3.8427326     2.4504641    -1.0886040
units angstrom
no_reorient  #important for SAPT in psi4, default
symmetry c1  #important for SAPT in psi4, default
}

set PROPERTIES_ORIGIN ["COM"]
properties('MP2/aug-cc-pvtz', properties = ['dipole'])
--------------------------------------------------------------------------

    Molecular point group: c1
  Charge       = 0
  Multiplicity = 1
  Basis Set: AUG-CC-PVTZ
    Blend: AUG-CC-PVTZ
  Basis Set: (AUG-CC-PVTZ AUX)
    Blend: AUG-CC-PVTZ-JKFIT + DEF2-UNIVERSAL-JKFIT

    Orbital Energies [Eh]
    ---------------------

    Doubly Occupied:

       1A    -11.290143     2A    -11.253809     3A    -11.249127
       4A    -11.248517     5A    -11.232959     6A    -11.232610
       7A    -11.231159     8A    -11.228210     9A    -11.215978
      10A     -7.706034    11A     -5.537478    12A     -5.528201
      13A     -5.528190    14A     -2.266690    15A     -2.262277
      16A     -2.262254    17A     -2.251998    18A     -2.251998
      19A     -1.165115    20A     -1.073605    21A     -1.062507
      22A     -0.972448    23A     -0.942230    24A     -0.934912
      25A     -0.849162    26A     -0.792426    27A     -0.783872
      28A     -0.682350    29A     -0.667925    30A     -0.618943
      31A     -0.593891    32A     -0.586588    33A     -0.575563
      34A     -0.572701    35A     -0.565069    36A     -0.559871
      37A     -0.529490    38A     -0.511072    39A     -0.490005
      40A     -0.484922    41A     -0.444484    42A     -0.359296
      43A     -0.357053    44A     -0.324620    45A     -0.318842

  @DF-RHF Final Energy:  -642.00181364070522

   => Energetics <=

    Nuclear Repulsion Energy =            615.1084938497950816
    One-Electron Energy =               -2205.0274272459419080
    Two-Electron Energy =                 947.9171197554414903
    Total Energy =                       -642.0018136407052225
  Basis Set: (AUG-CC-PVTZ AUX)
    Blend: AUG-CC-PVTZ-RI + DEF2-QZVPP-RI
    Molecular point group: c1

    Geometry (in Angstrom), charge = 0, multiplicity = 1:

       Center              X                  Y                   Z               Mass
    ------------   -----------------  -----------------  -----------------  -----------------
         I            2.048822756312    -0.000031691625    -0.222978898065   126.904471900000
         C           -0.850158243688    -0.000036691625     0.766413101935    12.000000000000
         C           -2.799544243688    -1.225337691625    -0.035569898065    12.000000000000
         C           -2.799537243688     1.225277308375    -0.035563898065    12.000000000000
         C           -1.505443243688     1.209718308375     0.498195101935    12.000000000000
         C           -1.505447243688    -1.209785691625     0.498190101935    12.000000000000
         C           -3.430564243688    -0.000029691625    -0.295087898065    12.000000000000
         C            0.525839756312    -0.000039691625     1.338648101935    12.000000000000
         C           -3.513199243688    -2.529199691625    -0.292106898065    12.000000000000
         C           -3.513199243688     2.529135308375    -0.292104898065    12.000000000000
         H           -0.990494243688     2.150804308375     0.690792101935     1.007825032230
         H           -0.990502243688    -2.150875691625     0.690782101935     1.007825032230
         H           -4.435827243688    -0.000025691625    -0.716762898065     1.007825032230
         H            0.731567756312    -0.892626691625     1.928715101935     1.007825032230
         H            0.731567756312     0.892542308375     1.928723101935     1.007825032230
         H           -4.201974243688    -2.442460691625    -1.136138898065     1.007825032230
         H           -4.097132243688    -2.833412691625     0.582740101935     1.007825032230
         H           -2.804387243688    -3.330850691625    -0.513567898065     1.007825032230
         H           -4.097469243688     2.833134308375     0.582591101935     1.007825032230
         H           -2.804370243688     3.330881308375    -0.513160898065     1.007825032230
         H           -4.138669843688     2.450431408375    -1.059141898065     1.007825032230

  Basis Set: AUG-CC-PVTZ
    Blend: AUG-CC-PVTZ
  Basis Set: (AUG-CC-PVTZ AUX)
    Blend: AUG-CC-PVTZ-JKFIT + DEF2-UNIVERSAL-JKFIT
	 Reference Energy          =    -642.0018136407052225 [Eh]
	 Singles Energy            =      -0.0000000000000000 [Eh]
	 Same-Spin Energy          =      -0.4675659048922014 [Eh]
	 Opposite-Spin Energy      =      -1.4520486308729348 [Eh]
	 Correlation Energy        =      -1.9196145357651362 [Eh]
	 Total Energy              =    -643.9214281764703856 [Eh]

	 ================> DF-SCS-MP2 Energies <==================
	-----------------------------------------------------------
	 SCS Same-Spin Scale       =       0.3333333333333333 [-]
	 SCS Opposite-Spin Scale   =       1.2000000000000000 [-]
	 SCS Same-Spin Energy      =      -0.1558553016307338 [Eh]
	 SCS Opposite-Spin Energy  =      -1.7424583570475216 [Eh]
	 SCS Correlation Energy    =      -1.8983136586782554 [Eh]
	 SCS Total Energy          =    -643.9001272993834846 [Eh]
	-----------------------------------------------------------

  Dipole Moment: [D]
     X:    -2.1370      Y:     0.0197      Z:     0.8571     Total:     2.3025

*** Psi4 exiting successfully. Buy a developer a beer!
