                               Psi4 1.4a3.dev225

  ==> Input File <==

--------------------------------------------------------------------------
#psi4
#
memory 32 gb

molecule  {
0 1
  I        2.3447600     0.0000010    -0.2524410
  C       -0.5493907    -0.0230610     0.7259271
  C       -2.5036070    -1.2253050    -0.0650320
  C       -2.5036000     1.2253100    -0.0650260
  C       -1.2095060     1.2097510     0.4687330
  C       -1.2095100    -1.2097530     0.4687280
  C       -3.1346270     0.0000030    -0.3245500
  C        0.8217770    -0.0000070     1.3091860
  C       -3.2172620    -2.5291670    -0.3215690
  C       -3.2172620     2.5291680    -0.3215670
  H       -0.6945570     2.1508370     0.6613300
  H       -0.6945650    -2.1508430     0.6613200
  H       -4.1398900     0.0000070    -0.7462250
  H        1.0275050    -0.8925940     1.8992530
  H        1.0275050     0.8925750     1.8992610
  H       -3.9060370    -2.4424280    -1.1656010
  H       -3.8011950    -2.8333800     0.5532780
  H       -2.5084500    -3.3308180    -0.5430300
  H       -3.8015320     2.8331670     0.5531290
  H       -2.5084330     3.3309140    -0.5426230
  H       -3.9057300     2.4425370    -1.1658600
units angstrom
no_reorient  #important for SAPT in psi4, default
symmetry c1  #important for SAPT in psi4, default
}

set PROPERTIES_ORIGIN ["COM"]
properties('MP2/aug-cc-pvtz', properties = ['dipole'])
--------------------------------------------------------------------------

    Molecular point group: c1
  Charge       = 0
  Multiplicity = 1
  Basis Set: AUG-CC-PVTZ
    Blend: AUG-CC-PVTZ
  Basis Set: (AUG-CC-PVTZ AUX)
    Blend: AUG-CC-PVTZ-JKFIT + DEF2-UNIVERSAL-JKFIT

    Orbital Energies [Eh]
    ---------------------

    Doubly Occupied:

       1A    -11.290626     2A    -11.254251     3A    -11.249555
       4A    -11.248937     5A    -11.234646     6A    -11.231688
       7A    -11.231192     8A    -11.228461     9A    -11.228119
      10A     -7.706060    11A     -5.537499    12A     -5.528232
      13A     -5.528219    14A     -2.266712    15A     -2.262304
      16A     -2.262279    17A     -2.252034    18A     -2.252033
      19A     -1.165314    20A     -1.073374    21A     -1.061049
      22A     -0.970230    23A     -0.938856    24A     -0.932604
      25A     -0.848927    26A     -0.791541    27A     -0.782674
      28A     -0.682310    29A     -0.666992    30A     -0.618426
      31A     -0.588942    32A     -0.585947    33A     -0.573754
      34A     -0.572957    35A     -0.563930    36A     -0.555683
      37A     -0.526038    38A     -0.511372    39A     -0.490383
      40A     -0.484151    41A     -0.444238    42A     -0.359526
      43A     -0.357158    44A     -0.325843    45A     -0.317874

  @DF-RHF Final Energy:  -642.00718072735526

   => Energetics <=

    Nuclear Repulsion Energy =            614.6975289159986460
    One-Electron Energy =               -2204.2435411488336285
    Two-Electron Energy =                 947.5388315054797204
    Total Energy =                       -642.0071807273552622
  Basis Set: (AUG-CC-PVTZ AUX)
    Blend: AUG-CC-PVTZ-RI + DEF2-QZVPP-RI
    Molecular point group: c1

    Geometry (in Angstrom), charge = 0, multiplicity = 1:

       Center              X                  Y                   Z               Mass
    ------------   -----------------  -----------------  -----------------  -----------------
         I            2.048845223666     0.001125560688    -0.222124607796   126.904471900000
         C           -0.845305476334    -0.021936439312     0.756243492204    12.000000000000
         C           -2.799521776334    -1.224180439312    -0.034715607796    12.000000000000
         C           -2.799514776334     1.226434560688    -0.034709607796    12.000000000000
         C           -1.505420776334     1.210875560688     0.499049392204    12.000000000000
         C           -1.505424776334    -1.208628439312     0.499044392204    12.000000000000
         C           -3.430541776334     0.001127560688    -0.294233607796    12.000000000000
         C            0.525862223666     0.001117560688     1.339502392204    12.000000000000
         C           -3.513176776334    -2.528042439312    -0.291252607796    12.000000000000
         C           -3.513176776334     2.530292560688    -0.291250607796    12.000000000000
         H           -0.990471776334     2.151961560688     0.691646392204     1.007825032230
         H           -0.990479776334    -2.149718439312     0.691636392204     1.007825032230
         H           -4.435804776334     0.001131560688    -0.715908607796     1.007825032230
         H            0.731590223666    -0.891469439312     1.929569392204     1.007825032230
         H            0.731590223666     0.893699560688     1.929577392204     1.007825032230
         H           -4.201951776334    -2.441303439312    -1.135284607796     1.007825032230
         H           -4.097109776334    -2.832255439312     0.583594392204     1.007825032230
         H           -2.804364776334    -3.329693439312    -0.512713607796     1.007825032230
         H           -4.097446776334     2.834291560688     0.583445392204     1.007825032230
         H           -2.804347776334     3.332038560688    -0.512306607796     1.007825032230
         H           -4.201644776334     2.443661560688    -1.135543607796     1.007825032230

  Basis Set: AUG-CC-PVTZ
    Blend: AUG-CC-PVTZ
  Basis Set: (AUG-CC-PVTZ AUX)
    Blend: AUG-CC-PVTZ-JKFIT + DEF2-UNIVERSAL-JKFIT
	 Reference Energy          =    -642.0071807273552622 [Eh]
	 Singles Energy            =      -0.0000000000000000 [Eh]
	 Same-Spin Energy          =      -0.4675718630192823 [Eh]
	 Opposite-Spin Energy      =      -1.4526323088153914 [Eh]
	 Correlation Energy        =      -1.9202041718346736 [Eh]
	 Total Energy              =    -643.9273848991899740 [Eh]

	 ================> DF-SCS-MP2 Energies <==================
	-----------------------------------------------------------
	 SCS Same-Spin Scale       =       0.3333333333333333 [-]
	 SCS Opposite-Spin Scale   =       1.2000000000000000 [-]
	 SCS Same-Spin Energy      =      -0.1558572876730941 [Eh]
	 SCS Opposite-Spin Energy  =      -1.7431587705784697 [Eh]
	 SCS Correlation Energy    =      -1.8990160582515638 [Eh]
	 SCS Total Energy          =    -643.9061967856068804 [Eh]
	-----------------------------------------------------------

  Dipole Moment: [D]
     X:    -2.0999      Y:     0.0005      Z:     0.8943     Total:     2.2824

*** Psi4 exiting successfully. Buy a developer a beer!
