                               Psi4 1.4a3.dev225

  ==> Input File <==

--------------------------------------------------------------------------
#psi4
#
memory 32 gb

molecule  {
0 1
  I        2.3447600     0.0000010    -0.2524410
  C       -0.5542210    -0.0000040     0.7369510
  C       -2.5036070    -1.2253050    -0.0650320
  C       -2.5038339     1.2008815    -0.0646119
  C       -1.2095060     1.2097510     0.4687330
  C       -1.2095100    -1.2097530     0.4687280
  C       -3.1346270     0.0000030    -0.3245500
  C        0.8217770    -0.0000070     1.3091860
  C       -3.2172620    -2.5291670    -0.3215690
  C       -3.2172620     2.5291680    -0.3215670
  H       -0.6945570     2.1508370     0.6613300
  H       -0.6945650    -2.1508430     0.6613200
  H       -4.1398900     0.0000070    -0.7462250
  H        1.0275050    -0.8925940     1.8992530
  H        1.0275050     0.8925750     1.8992610
  H       -3.9060370    -2.4424280    -1.1656010
  H       -3.8011950    -2.8333800     0.5532780
  H       -2.5084500    -3.3308180    -0.5430300
  H       -3.8015320     2.8331670     0.5531290
  H       -2.5084330     3.3309140    -0.5426230
  H       -3.9057300     2.4425370    -1.1658600
units angstrom
no_reorient  #important for SAPT in psi4, default
symmetry c1  #important for SAPT in psi4, default
}

set PROPERTIES_ORIGIN ["COM"]
properties('MP2/aug-cc-pvtz', properties = ['dipole'])
--------------------------------------------------------------------------

    Molecular point group: c1
  Charge       = 0
  Multiplicity = 1
  Basis Set: AUG-CC-PVTZ
    Blend: AUG-CC-PVTZ
  Basis Set: (AUG-CC-PVTZ AUX)
    Blend: AUG-CC-PVTZ-JKFIT + DEF2-UNIVERSAL-JKFIT

    Orbital Energies [Eh]
    ---------------------

    Doubly Occupied:

       1A    -11.290312     2A    -11.254089     3A    -11.249492
       4A    -11.247702     5A    -11.233198     6A    -11.232948
       7A    -11.229159     8A    -11.228529     9A    -11.228398
      10A     -7.706330    11A     -5.537778    12A     -5.528494
      13A     -5.528483    14A     -2.266991    15A     -2.262576
      16A     -2.262552    17A     -2.252288    18A     -2.252287
      19A     -1.166754    20A     -1.073820    21A     -1.059353
      22A     -0.969451    23A     -0.940083    24A     -0.931981
      25A     -0.849311    26A     -0.792333    27A     -0.782466
      28A     -0.683437    29A     -0.667618    30A     -0.616312
      31A     -0.588224    32A     -0.585385    33A     -0.574265
      34A     -0.572174    35A     -0.563233    36A     -0.555234
      37A     -0.526288    38A     -0.511922    39A     -0.490711
      40A     -0.482325    41A     -0.445819    42A     -0.359752
      43A     -0.357330    44A     -0.325303    45A     -0.320382

  @DF-RHF Final Energy:  -642.00782116529024

   => Energetics <=

    Nuclear Repulsion Energy =            614.8823207038523151
    One-Electron Energy =               -2204.6145366275372908
    Two-Electron Energy =                 947.7243947583948511
    Total Energy =                       -642.0078211652902382
  Basis Set: (AUG-CC-PVTZ AUX)
    Blend: AUG-CC-PVTZ-RI + DEF2-QZVPP-RI
    Molecular point group: c1

    Geometry (in Angstrom), charge = 0, multiplicity = 1:

       Center              X                  Y                   Z               Mass
    ------------   -----------------  -----------------  -----------------  -----------------
         I            2.049092267305     0.001192465698    -0.222682580456   126.904471900000
         C           -0.849888732695     0.001187465698     0.766709419544    12.000000000000
         C           -2.799274732695    -1.224113534302    -0.035273580456    12.000000000000
         C           -2.799501632695     1.202072965698    -0.034853480456    12.000000000000
         C           -1.505173732695     1.210942465698     0.498491419544    12.000000000000
         C           -1.505177732695    -1.208561534302     0.498486419544    12.000000000000
         C           -3.430294732695     0.001194465698    -0.294791580456    12.000000000000
         C            0.526109267305     0.001184465698     1.338944419544    12.000000000000
         C           -3.512929732695    -2.527975534302    -0.291810580456    12.000000000000
         C           -3.512929732695     2.530359465698    -0.291808580456    12.000000000000
         H           -0.990224732695     2.152028465698     0.691088419544     1.007825032230
         H           -0.990232732695    -2.149651534302     0.691078419544     1.007825032230
         H           -4.435557732695     0.001198465698    -0.716466580456     1.007825032230
         H            0.731837267305    -0.891402534302     1.929011419544     1.007825032230
         H            0.731837267305     0.893766465698     1.929019419544     1.007825032230
         H           -4.201704732695    -2.441236534302    -1.135842580456     1.007825032230
         H           -4.096862732695    -2.832188534302     0.583036419544     1.007825032230
         H           -2.804117732695    -3.329626534302    -0.513271580456     1.007825032230
         H           -4.097199732695     2.834358465698     0.582887419544     1.007825032230
         H           -2.804100732695     3.332105465698    -0.512864580456     1.007825032230
         H           -4.201397732695     2.443728465698    -1.136101580456     1.007825032230

  Basis Set: AUG-CC-PVTZ
    Blend: AUG-CC-PVTZ
  Basis Set: (AUG-CC-PVTZ AUX)
    Blend: AUG-CC-PVTZ-JKFIT + DEF2-UNIVERSAL-JKFIT
	 Reference Energy          =    -642.0078211652902382 [Eh]
	 Singles Energy            =      -0.0000000000000000 [Eh]
	 Same-Spin Energy          =      -0.4673756830739898 [Eh]
	 Opposite-Spin Energy      =      -1.4522795808386117 [Eh]
	 Correlation Energy        =      -1.9196552639126017 [Eh]
	 Total Energy              =    -643.9274764292027839 [Eh]

	 ================> DF-SCS-MP2 Energies <==================
	-----------------------------------------------------------
	 SCS Same-Spin Scale       =       0.3333333333333333 [-]
	 SCS Opposite-Spin Scale   =       1.2000000000000000 [-]
	 SCS Same-Spin Energy      =      -0.1557918943579966 [Eh]
	 SCS Opposite-Spin Energy  =      -1.7427354970063340 [Eh]
	 SCS Correlation Energy    =      -1.8985273913643306 [Eh]
	 SCS Total Energy          =    -643.9063485566546206 [Eh]
	-----------------------------------------------------------

  Dipole Moment: [D]
     X:    -2.0748      Y:    -0.0276      Z:     0.8903     Total:     2.2580

*** Psi4 exiting successfully. Buy a developer a beer!
