                               Psi4 1.4a3.dev225

  ==> Input File <==

--------------------------------------------------------------------------
#psi4
#
memory 32 gb

molecule  {
0 1
  I        2.3447600     0.0000010    -0.2524410
  C       -0.5542210    -0.0000040     0.7369510
  C       -2.5036070    -1.2253050    -0.0650320
  C       -2.5036000     1.2253100    -0.0650260
  C       -1.2095060     1.2097510     0.4687330
  C       -1.2095100    -1.2097530     0.4687280
  C       -3.1346270     0.0000030    -0.3245500
  C        0.7868673    -0.0000072     1.3449815
  C       -3.2172620    -2.5291670    -0.3215690
  C       -3.2172620     2.5291680    -0.3215670
  H       -0.6945570     2.1508370     0.6613300
  H       -0.6945650    -2.1508430     0.6613200
  H       -4.1398900     0.0000070    -0.7462250
  H        1.0275050    -0.8925940     1.8992530
  H        1.0275050     0.8925750     1.8992610
  H       -3.9060370    -2.4424280    -1.1656010
  H       -3.8011950    -2.8333800     0.5532780
  H       -2.5084500    -3.3308180    -0.5430300
  H       -3.8015320     2.8331670     0.5531290
  H       -2.5084330     3.3309140    -0.5426230
  H       -3.9057300     2.4425370    -1.1658600
units angstrom
no_reorient  #important for SAPT in psi4, default
symmetry c1  #important for SAPT in psi4, default
}

set PROPERTIES_ORIGIN ["COM"]
properties('MP2/aug-cc-pvtz', properties = ['dipole'])
--------------------------------------------------------------------------

    Molecular point group: c1
  Charge       = 0
  Multiplicity = 1
  Basis Set: AUG-CC-PVTZ
    Blend: AUG-CC-PVTZ
  Basis Set: (AUG-CC-PVTZ AUX)
    Blend: AUG-CC-PVTZ-JKFIT + DEF2-UNIVERSAL-JKFIT

    Orbital Energies [Eh]
    ---------------------

    Doubly Occupied:

       1A    -11.292479     2A    -11.254515     3A    -11.250313
       4A    -11.250285     5A    -11.234868     6A    -11.234823
       7A    -11.232763     8A    -11.229063     9A    -11.229062
      10A     -7.702316    11A     -5.533575    12A     -5.524538
      13A     -5.524521    14A     -2.262552    15A     -2.258424
      16A     -2.258395    17A     -2.248403    18A     -2.248403
      19A     -1.167337    20A     -1.076488    21A     -1.062261
      22A     -0.969460    23A     -0.938968    24A     -0.934301
      25A     -0.847633    26A     -0.792627    27A     -0.786135
      28A     -0.683963    29A     -0.670578    30A     -0.623449
      31A     -0.594638    32A     -0.586778    33A     -0.575120
      34A     -0.574291    35A     -0.565573    36A     -0.556608
      37A     -0.527238    38A     -0.509733    39A     -0.492852
      40A     -0.486647    41A     -0.437639    42A     -0.357487
      43A     -0.355253    44A     -0.325928    45A     -0.317210

  @DF-RHF Final Energy:  -642.00721247874446

   => Energetics <=

    Nuclear Repulsion Energy =            614.2446999113217316
    One-Electron Energy =               -2203.3328382578420133
    Two-Electron Energy =                 947.0809258677758180
    Total Energy =                       -642.0072124787444636
  Basis Set: (AUG-CC-PVTZ AUX)
    Blend: AUG-CC-PVTZ-RI + DEF2-QZVPP-RI
    Molecular point group: c1

    Geometry (in Angstrom), charge = 0, multiplicity = 1:

       Center              X                  Y                   Z               Mass
    ------------   -----------------  -----------------  -----------------  -----------------
         I            2.050783834744     0.000000795516    -0.224408568730   126.904471900000
         C           -0.848197165256    -0.000004204484     0.764983431270    12.000000000000
         C           -2.797583165256    -1.225305204484    -0.036999568730    12.000000000000
         C           -2.797576165256     1.225309795516    -0.036993568730    12.000000000000
         C           -1.503482165256     1.209750795516     0.496765431270    12.000000000000
         C           -1.503486165256    -1.209753204484     0.496760431270    12.000000000000
         C           -3.428603165256     0.000002795516    -0.296517568730    12.000000000000
         C            0.492891134744    -0.000007404484     1.373013931270    12.000000000000
         C           -3.511238165256    -2.529167204484    -0.293536568730    12.000000000000
         C           -3.511238165256     2.529167795516    -0.293534568730    12.000000000000
         H           -0.988533165256     2.150836795516     0.689362431270     1.007825032230
         H           -0.988541165256    -2.150843204484     0.689352431270     1.007825032230
         H           -4.433866165256     0.000006795516    -0.718192568730     1.007825032230
         H            0.733528834744    -0.892594204484     1.927285431270     1.007825032230
         H            0.733528834744     0.892574795516     1.927293431270     1.007825032230
         H           -4.200013165256    -2.442428204484    -1.137568568730     1.007825032230
         H           -4.095171165256    -2.833380204484     0.581310431270     1.007825032230
         H           -2.802426165256    -3.330818204484    -0.514997568730     1.007825032230
         H           -4.095508165256     2.833166795516     0.581161431270     1.007825032230
         H           -2.802409165256     3.330913795516    -0.514590568730     1.007825032230
         H           -4.199706165256     2.442536795516    -1.137827568730     1.007825032230

  Basis Set: AUG-CC-PVTZ
    Blend: AUG-CC-PVTZ
  Basis Set: (AUG-CC-PVTZ AUX)
    Blend: AUG-CC-PVTZ-JKFIT + DEF2-UNIVERSAL-JKFIT
	 Reference Energy          =    -642.0072124787444636 [Eh]
	 Singles Energy            =      -0.0000000000000000 [Eh]
	 Same-Spin Energy          =      -0.4674855264232139 [Eh]
	 Opposite-Spin Energy      =      -1.4522082875303930 [Eh]
	 Correlation Energy        =      -1.9196938139536068 [Eh]
	 Total Energy              =    -643.9269062926980496 [Eh]

	 ================> DF-SCS-MP2 Energies <==================
	-----------------------------------------------------------
	 SCS Same-Spin Scale       =       0.3333333333333333 [-]
	 SCS Opposite-Spin Scale   =       1.2000000000000000 [-]
	 SCS Same-Spin Energy      =      -0.1558285088077380 [Eh]
	 SCS Opposite-Spin Energy  =      -1.7426499450364716 [Eh]
	 SCS Correlation Energy    =      -1.8984784538442097 [Eh]
	 SCS Total Energy          =    -643.9056909325886409 [Eh]
	-----------------------------------------------------------

  Dipole Moment: [D]
     X:    -2.2869      Y:    -0.0000      Z:     0.9602     Total:     2.4803

*** Psi4 exiting successfully. Buy a developer a beer!
