                               Psi4 1.4a3.dev225

  ==> Input File <==

--------------------------------------------------------------------------
#psi4
#
memory 32 gb

molecule  {
0 1
  I        2.3447600     0.0000010    -0.2524410
  C       -0.5542210    -0.0000040     0.7369510
  C       -2.5036070    -1.2253050    -0.0650320
  C       -2.5036000     1.2253100    -0.0650260
  C       -1.2095060     1.2097510     0.4687330
  C       -1.2095100    -1.2097530     0.4687280
  C       -3.1346270     0.0000030    -0.3245500
  C        0.8217770    -0.0000070     1.3091860
  C       -3.2172620    -2.5291670    -0.3215690
  C       -3.2077993     2.5118797    -0.3181654
  H       -0.6945570     2.1508370     0.6613300
  H       -0.6945650    -2.1508430     0.6613200
  H       -4.1398900     0.0000070    -0.7462250
  H        1.0275050    -0.8925940     1.8992530
  H        1.0275050     0.8925750     1.8992610
  H       -3.9060370    -2.4424280    -1.1656010
  H       -3.8011950    -2.8333800     0.5532780
  H       -2.5084500    -3.3308180    -0.5430300
  H       -3.8015320     2.8331670     0.5531290
  H       -2.5084330     3.3309140    -0.5426230
  H       -3.9057300     2.4425370    -1.1658600
units angstrom
no_reorient  #important for SAPT in psi4, default
symmetry c1  #important for SAPT in psi4, default
}

set PROPERTIES_ORIGIN ["COM"]
properties('MP2/aug-cc-pvtz', properties = ['dipole'])
--------------------------------------------------------------------------

    Molecular point group: c1
  Charge       = 0
  Multiplicity = 1
  Basis Set: AUG-CC-PVTZ
    Blend: AUG-CC-PVTZ
  Basis Set: (AUG-CC-PVTZ AUX)
    Blend: AUG-CC-PVTZ-JKFIT + DEF2-UNIVERSAL-JKFIT

    Orbital Energies [Eh]
    ---------------------

    Doubly Occupied:

       1A    -11.290394     2A    -11.254193     3A    -11.249308
       4A    -11.248360     5A    -11.233318     6A    -11.233260
       7A    -11.231290     8A    -11.228967     9A    -11.228347
      10A     -7.706228    11A     -5.537675    12A     -5.528394
      13A     -5.528383    14A     -2.266888    15A     -2.262473
      16A     -2.262450    17A     -2.252189    18A     -2.252189
      19A     -1.165826    20A     -1.073817    21A     -1.062761
      22A     -0.970200    23A     -0.938481    24A     -0.932721
      25A     -0.849220    26A     -0.790957    27A     -0.783276
      28A     -0.682432    29A     -0.667450    30A     -0.619355
      31A     -0.588954    32A     -0.585410    33A     -0.574382
      34A     -0.572232    35A     -0.565044    36A     -0.554308
      37A     -0.523923    38A     -0.511040    39A     -0.489868
      40A     -0.486642    41A     -0.444246    42A     -0.359466
      43A     -0.357234    44A     -0.324643    45A     -0.318920

  @DF-RHF Final Energy:  -642.00728438273518

   => Energetics <=

    Nuclear Repulsion Energy =            615.0038995358813736
    One-Electron Energy =               -2204.8481398722287850
    Two-Electron Energy =                 947.8369559536122324
    Total Energy =                       -642.0072843827351790
  Basis Set: (AUG-CC-PVTZ AUX)
    Blend: AUG-CC-PVTZ-RI + DEF2-QZVPP-RI
    Molecular point group: c1

    Geometry (in Angstrom), charge = 0, multiplicity = 1:

       Center              X                  Y                   Z               Mass
    ------------   -----------------  -----------------  -----------------  -----------------
         I            2.048619244251     0.000844149874    -0.222828317764   126.904471900000
         C           -0.850361755749     0.000839149874     0.766563682236    12.000000000000
         C           -2.799747755749    -1.224461850126    -0.035419317764    12.000000000000
         C           -2.799740755749     1.226153149874    -0.035413317764    12.000000000000
         C           -1.505646755749     1.210594149874     0.498345682236    12.000000000000
         C           -1.505650755749    -1.208909850126     0.498340682236    12.000000000000
         C           -3.430767755749     0.000846149874    -0.294937317764    12.000000000000
         C            0.525636244251     0.000836149874     1.338798682236    12.000000000000
         C           -3.513402755749    -2.528323850126    -0.291956317764    12.000000000000
         C           -3.503940055749     2.512722849874    -0.288552717764    12.000000000000
         H           -0.990697755749     2.151680149874     0.690942682236     1.007825032230
         H           -0.990705755749    -2.149999850126     0.690932682236     1.007825032230
         H           -4.436030755749     0.000850149874    -0.716612317764     1.007825032230
         H            0.731364244251    -0.891750850126     1.928865682236     1.007825032230
         H            0.731364244251     0.893418149874     1.928873682236     1.007825032230
         H           -4.202177755749    -2.441584850126    -1.135988317764     1.007825032230
         H           -4.097335755749    -2.832536850126     0.582890682236     1.007825032230
         H           -2.804590755749    -3.329974850126    -0.513417317764     1.007825032230
         H           -4.097672755749     2.834010149874     0.582741682236     1.007825032230
         H           -2.804573755749     3.331757149874    -0.513010317764     1.007825032230
         H           -4.201870755749     2.443380149874    -1.136247317764     1.007825032230

  Basis Set: AUG-CC-PVTZ
    Blend: AUG-CC-PVTZ
  Basis Set: (AUG-CC-PVTZ AUX)
    Blend: AUG-CC-PVTZ-JKFIT + DEF2-UNIVERSAL-JKFIT
	 Reference Energy          =    -642.0072843827351790 [Eh]
	 Singles Energy            =      -0.0000000000000000 [Eh]
	 Same-Spin Energy          =      -0.4677483437824704 [Eh]
	 Opposite-Spin Energy      =      -1.4527375109196690 [Eh]
	 Correlation Energy        =      -1.9204858547021393 [Eh]
	 Total Energy              =    -643.9277702374373575 [Eh]

	 ================> DF-SCS-MP2 Energies <==================
	-----------------------------------------------------------
	 SCS Same-Spin Scale       =       0.3333333333333333 [-]
	 SCS Opposite-Spin Scale   =       1.2000000000000000 [-]
	 SCS Same-Spin Energy      =      -0.1559161145941568 [Eh]
	 SCS Opposite-Spin Energy  =      -1.7432850131036026 [Eh]
	 SCS Correlation Energy    =      -1.8992011276977594 [Eh]
	 SCS Total Energy          =    -643.9064855104329581 [Eh]
	-----------------------------------------------------------

  Dipole Moment: [D]
     X:    -2.1000      Y:     0.0011      Z:     0.8857     Total:     2.2791

*** Psi4 exiting successfully. Buy a developer a beer!
