                               Psi4 1.4a3.dev225

  ==> Input File <==

--------------------------------------------------------------------------
#psi4
#
memory 32 gb

molecule  {
0 1
  I        2.3447600     0.0000010    -0.2524410
  C       -0.5542210    -0.0000040     0.7369510
  C       -2.5036070    -1.2253050    -0.0650320
  C       -2.5036000     1.2253100    -0.0650260
  C       -1.2095060     1.2097510     0.4687330
  C       -1.0892536    -1.2771366     0.5189779
  C       -3.1346270     0.0000030    -0.3245500
  C        0.8217770    -0.0000070     1.3091860
  C       -3.2172620    -2.5291670    -0.3215690
  C       -3.2172620     2.5291680    -0.3215670
  H       -0.6945570     2.1508370     0.6613300
  H       -0.6945650    -2.1508430     0.6613200
  H       -4.1398900     0.0000070    -0.7462250
  H        1.0275050    -0.8925940     1.8992530
  H        1.0275050     0.8925750     1.8992610
  H       -3.9060370    -2.4424280    -1.1656010
  H       -3.8011950    -2.8333800     0.5532780
  H       -2.5084500    -3.3308180    -0.5430300
  H       -3.8015320     2.8331670     0.5531290
  H       -2.5084330     3.3309140    -0.5426230
  H       -3.9057300     2.4425370    -1.1658600
units angstrom
no_reorient  #important for SAPT in psi4, default
symmetry c1  #important for SAPT in psi4, default
}

set PROPERTIES_ORIGIN ["COM"]
properties('MP2/aug-cc-pvtz', properties = ['dipole'])
--------------------------------------------------------------------------

    Molecular point group: c1
  Charge       = 0
  Multiplicity = 1
  Basis Set: AUG-CC-PVTZ
    Blend: AUG-CC-PVTZ
  Basis Set: (AUG-CC-PVTZ AUX)
    Blend: AUG-CC-PVTZ-JKFIT + DEF2-UNIVERSAL-JKFIT

    Orbital Energies [Eh]
    ---------------------

    Doubly Occupied:

       1A    -11.286675     2A    -11.263934     3A    -11.257327
       4A    -11.253586     5A    -11.236176     6A    -11.232507
       7A    -11.231269     8A    -11.229968     9A    -11.228437
      10A     -7.704488    11A     -5.535874    12A     -5.526703
      13A     -5.526669    14A     -2.265080    15A     -2.260715
      16A     -2.260671    17A     -2.250527    18A     -2.250526
      19A     -1.157873    20A     -1.075744    21A     -1.054264
      22A     -0.966232    23A     -0.941534    24A     -0.935079
      25A     -0.846549    26A     -0.798477    27A     -0.773379
      28A     -0.699365    29A     -0.663388    30A     -0.619280
      31A     -0.588802    32A     -0.585285    33A     -0.584848
      34A     -0.573359    35A     -0.567472    36A     -0.557024
      37A     -0.524501    38A     -0.507654    39A     -0.497212
      40A     -0.469800    41A     -0.439381    42A     -0.358312
      43A     -0.355805    44A     -0.323369    45A     -0.313915

  @DF-RHF Final Energy:  -641.97837522138548

   => Energetics <=

    Nuclear Repulsion Energy =            613.1095364951419242
    One-Electron Energy =               -2201.0177544415205375
    Two-Electron Energy =                 945.9298427249930228
    Total Energy =                       -641.9783752213854768
  Basis Set: (AUG-CC-PVTZ AUX)
    Blend: AUG-CC-PVTZ-RI + DEF2-QZVPP-RI
    Molecular point group: c1

    Geometry (in Angstrom), charge = 0, multiplicity = 1:

       Center              X                  Y                   Z               Mass
    ------------   -----------------  -----------------  -----------------  -----------------
         I            2.043214465836     0.003287916949    -0.225113688508   126.904471900000
         C           -0.855766534164     0.003282916949     0.764278311492    12.000000000000
         C           -2.805152534164    -1.222018083051    -0.037704688508    12.000000000000
         C           -2.805145534164     1.228596916949    -0.037698688508    12.000000000000
         C           -1.511051534164     1.213037916949     0.496060311492    12.000000000000
         C           -1.390799134164    -1.273849683051     0.546305211492    12.000000000000
         C           -3.436172534164     0.003289916949    -0.297222688508    12.000000000000
         C            0.520231465836     0.003279916949     1.336513311492    12.000000000000
         C           -3.518807534164    -2.525880083051    -0.294241688508    12.000000000000
         C           -3.518807534164     2.532454916949    -0.294239688508    12.000000000000
         H           -0.996102534164     2.154123916949     0.688657311492     1.007825032230
         H           -0.996110534164    -2.147556083051     0.688647311492     1.007825032230
         H           -4.441435534164     0.003293916949    -0.718897688508     1.007825032230
         H            0.725959465836    -0.889307083051     1.926580311492     1.007825032230
         H            0.725959465836     0.895861916949     1.926588311492     1.007825032230
         H           -4.207582534164    -2.439141083051    -1.138273688508     1.007825032230
         H           -4.102740534164    -2.830093083051     0.580605311492     1.007825032230
         H           -2.809995534164    -3.327531083051    -0.515702688508     1.007825032230
         H           -4.103077534164     2.836453916949     0.580456311492     1.007825032230
         H           -2.809978534164     3.334200916949    -0.515295688508     1.007825032230
         H           -4.207275534164     2.445823916949    -1.138532688508     1.007825032230

  Basis Set: AUG-CC-PVTZ
    Blend: AUG-CC-PVTZ
  Basis Set: (AUG-CC-PVTZ AUX)
    Blend: AUG-CC-PVTZ-JKFIT + DEF2-UNIVERSAL-JKFIT
	 Reference Energy          =    -641.9783752213854768 [Eh]
	 Singles Energy            =      -0.0000000000000000 [Eh]
	 Same-Spin Energy          =      -0.4676317604199036 [Eh]
	 Opposite-Spin Energy      =      -1.4542737128401564 [Eh]
	 Correlation Energy        =      -1.9219054732600600 [Eh]
	 Total Energy              =    -643.9002806946455166 [Eh]

	 ================> DF-SCS-MP2 Energies <==================
	-----------------------------------------------------------
	 SCS Same-Spin Scale       =       0.3333333333333333 [-]
	 SCS Opposite-Spin Scale   =       1.2000000000000000 [-]
	 SCS Same-Spin Energy      =      -0.1558772534733012 [Eh]
	 SCS Opposite-Spin Energy  =      -1.7451284554081876 [Eh]
	 SCS Correlation Energy    =      -1.9010057088814889 [Eh]
	 SCS Total Energy          =    -643.8793809302669615 [Eh]
	-----------------------------------------------------------

  Dipole Moment: [D]
     X:    -2.2024      Y:    -0.0126      Z:     0.8892     Total:     2.3752

*** Psi4 exiting successfully. Buy a developer a beer!
