                               Psi4 1.4a3.dev225

  ==> Input File <==

--------------------------------------------------------------------------
#psi4
#
memory 32 gb

molecule  {
0 1
  I        2.3447600     0.0000010    -0.2524410
  C       -0.5542210    -0.0000040     0.7369510
  C       -2.5036070    -1.2253050    -0.0650320
  C       -2.5036000     1.2253100    -0.0650260
  C       -1.2095060     1.2097510     0.4687330
  C       -1.2095100    -1.2097530     0.4687280
  C       -3.1346270     0.0000030    -0.3245500
  C        0.8217770    -0.0000070     1.3091860
  C       -3.2172620    -2.5291670    -0.3215690
  C       -3.2172620     2.5291680    -0.3215670
  H       -0.6945570     2.1508370     0.6613300
  H       -0.6945650    -2.1508430     0.6613200
  H       -4.1398900     0.0000070    -0.7462250
  H        1.0275050    -0.8925940     1.8992530
  H        1.0275050     0.8925750     1.8992610
  H       -3.9060370    -2.4424280    -1.1656010
  H       -3.7478646    -2.8055963     0.4733785
  H       -2.5084500    -3.3308180    -0.5430300
  H       -3.8015320     2.8331670     0.5531290
  H       -2.5084330     3.3309140    -0.5426230
  H       -3.9057300     2.4425370    -1.1658600
units angstrom
no_reorient  #important for SAPT in psi4, default
symmetry c1  #important for SAPT in psi4, default
}

set PROPERTIES_ORIGIN ["COM"]
properties('MP2/aug-cc-pvtz', properties = ['dipole'])
--------------------------------------------------------------------------

    Molecular point group: c1
  Charge       = 0
  Multiplicity = 1
  Basis Set: AUG-CC-PVTZ
    Blend: AUG-CC-PVTZ
  Basis Set: (AUG-CC-PVTZ AUX)
    Blend: AUG-CC-PVTZ-JKFIT + DEF2-UNIVERSAL-JKFIT

    Orbital Energies [Eh]
    ---------------------

    Doubly Occupied:

       1A    -11.290207     2A    -11.253915     3A    -11.249039
       4A    -11.248644     5A    -11.232961     6A    -11.232887
       7A    -11.230930     8A    -11.228154     9A    -11.216006
      10A     -7.706058    11A     -5.537503    12A     -5.528224
      13A     -5.528214    14A     -2.266716    15A     -2.262303
      16A     -2.262279    17A     -2.252021    18A     -2.252020
      19A     -1.165145    20A     -1.073510    21A     -1.062647
      22A     -0.972270    23A     -0.942677    24A     -0.934626
      25A     -0.849054    26A     -0.792852    27A     -0.783326
      28A     -0.682521    29A     -0.666716    30A     -0.618623
      31A     -0.598253    32A     -0.588420    33A     -0.579031
      34A     -0.572738    35A     -0.563816    36A     -0.555140
      37A     -0.525457    38A     -0.512447    39A     -0.489001
      40A     -0.485215    41A     -0.445190    42A     -0.359336
      43A     -0.357092    44A     -0.325169    45A     -0.318853

  @DF-RHF Final Energy:  -642.00185232478236

   => Energetics <=

    Nuclear Repulsion Energy =            615.1156254445749028
    One-Electron Energy =               -2205.0405409024297114
    Two-Electron Energy =                 947.9230631330723327
    Total Energy =                       -642.0018523247823623
  Basis Set: (AUG-CC-PVTZ AUX)
    Blend: AUG-CC-PVTZ-RI + DEF2-QZVPP-RI
    Molecular point group: c1

    Geometry (in Angstrom), charge = 0, multiplicity = 1:

       Center              X                  Y                   Z               Mass
    ------------   -----------------  -----------------  -----------------  -----------------
         I            2.048862362080    -0.000113044258    -0.222335030857   126.904471900000
         C           -0.850118637920    -0.000118044258     0.767056969143    12.000000000000
         C           -2.799504637920    -1.225419044258    -0.034926030857    12.000000000000
         C           -2.799497637920     1.225195955742    -0.034920030857    12.000000000000
         C           -1.505403637920     1.209636955742     0.498838969143    12.000000000000
         C           -1.505407637920    -1.209867044258     0.498833969143    12.000000000000
         C           -3.430524637920    -0.000111044258    -0.294444030857    12.000000000000
         C            0.525879362080    -0.000121044258     1.339291969143    12.000000000000
         C           -3.513159637920    -2.529281044258    -0.291463030857    12.000000000000
         C           -3.513159637920     2.529053955742    -0.291461030857    12.000000000000
         H           -0.990454637920     2.150722955742     0.691435969143     1.007825032230
         H           -0.990462637920    -2.150957044258     0.691425969143     1.007825032230
         H           -4.435787637920    -0.000107044258    -0.716119030857     1.007825032230
         H            0.731607362080    -0.892708044258     1.929358969143     1.007825032230
         H            0.731607362080     0.892460955742     1.929366969143     1.007825032230
         H           -4.201934637920    -2.442542044258    -1.135495030857     1.007825032230
         H           -4.043762237920    -2.805710344258     0.503484469143     1.007825032230
         H           -2.804347637920    -3.330932044258    -0.512924030857     1.007825032230
         H           -4.097429637920     2.833052955742     0.583234969143     1.007825032230
         H           -2.804330637920     3.330799955742    -0.512517030857     1.007825032230
         H           -4.201627637920     2.442422955742    -1.135754030857     1.007825032230

  Basis Set: AUG-CC-PVTZ
    Blend: AUG-CC-PVTZ
  Basis Set: (AUG-CC-PVTZ AUX)
    Blend: AUG-CC-PVTZ-JKFIT + DEF2-UNIVERSAL-JKFIT
	 Reference Energy          =    -642.0018523247823623 [Eh]
	 Singles Energy            =      -0.0000000000000000 [Eh]
	 Same-Spin Energy          =      -0.4675980114866948 [Eh]
	 Opposite-Spin Energy      =      -1.4521010992514931 [Eh]
	 Correlation Energy        =      -1.9196991107381880 [Eh]
	 Total Energy              =    -643.9215514355205414 [Eh]

	 ================> DF-SCS-MP2 Energies <==================
	-----------------------------------------------------------
	 SCS Same-Spin Scale       =       0.3333333333333333 [-]
	 SCS Opposite-Spin Scale   =       1.2000000000000000 [-]
	 SCS Same-Spin Energy      =      -0.1558660038288983 [Eh]
	 SCS Opposite-Spin Energy  =      -1.7425213191017916 [Eh]
	 SCS Correlation Energy    =      -1.8983873229306900 [Eh]
	 SCS Total Energy          =    -643.9002396477130787 [Eh]
	-----------------------------------------------------------

  Dipole Moment: [D]
     X:    -2.1293      Y:    -0.0297      Z:     0.9044     Total:     2.3136

*** Psi4 exiting successfully. Buy a developer a beer!
