                               Psi4 1.4a3.dev225

  ==> Input File <==

--------------------------------------------------------------------------
#psi4
#
memory 32 gb

molecule  {
0 1
  I        2.3447600     0.0000010    -0.2524410
  C       -0.5542210    -0.0000040     0.7369510
  C       -2.5036070    -1.2253050    -0.0650320
  C       -2.5036000     1.2253100    -0.0650260
  C       -1.2095060     1.2097510     0.4687330
  C       -1.2095100    -1.2097530     0.4687280
  C       -3.1346270     0.0000030    -0.3245500
  C        0.8217770    -0.0000070     1.3091860
  C       -3.1936055    -2.4859460    -0.3130652
  C       -3.2172620     2.5291680    -0.3215670
  H       -0.6945570     2.1508370     0.6613300
  H       -0.6945650    -2.1508430     0.6613200
  H       -4.1398900     0.0000070    -0.7462250
  H        1.0275050    -0.8925940     1.8992530
  H        1.0275050     0.8925750     1.8992610
  H       -3.9060370    -2.4424280    -1.1656010
  H       -3.8011950    -2.8333800     0.5532780
  H       -2.5084500    -3.3308180    -0.5430300
  H       -3.8015320     2.8331670     0.5531290
  H       -2.5084330     3.3309140    -0.5426230
  H       -3.9057300     2.4425370    -1.1658600
units angstrom
no_reorient  #important for SAPT in psi4, default
symmetry c1  #important for SAPT in psi4, default
}

set PROPERTIES_ORIGIN ["COM"]
properties('MP2/aug-cc-pvtz', properties = ['dipole'])
--------------------------------------------------------------------------

    Molecular point group: c1
  Charge       = 0
  Multiplicity = 1
  Basis Set: AUG-CC-PVTZ
    Blend: AUG-CC-PVTZ
  Basis Set: (AUG-CC-PVTZ AUX)
    Blend: AUG-CC-PVTZ-JKFIT + DEF2-UNIVERSAL-JKFIT

    Orbital Energies [Eh]
    ---------------------

    Doubly Occupied:

       1A    -11.290456     2A    -11.254287     3A    -11.249400
       4A    -11.246903     5A    -11.233424     6A    -11.233326
       7A    -11.231344     8A    -11.230165     9A    -11.228415
      10A     -7.706287    11A     -5.537735    12A     -5.528452
      13A     -5.528442    14A     -2.266949    15A     -2.262533
      16A     -2.262510    17A     -2.252247    18A     -2.252246
      19A     -1.166805    20A     -1.075320    21A     -1.064944
      22A     -0.970518    23A     -0.938419    24A     -0.932246
      25A     -0.849348    26A     -0.790874    27A     -0.783524
      28A     -0.682626    29A     -0.668112    30A     -0.622294
      31A     -0.589571    32A     -0.584938    33A     -0.576556
      34A     -0.570495    35A     -0.565510    36A     -0.552591
      37A     -0.520562    38A     -0.510366    39A     -0.492048
      40A     -0.486400    41A     -0.443643    42A     -0.359498
      43A     -0.357270    44A     -0.324210    45A     -0.318839

  @DF-RHF Final Energy:  -642.00474122323226

   => Energetics <=

    Nuclear Repulsion Energy =            615.5660028717102250
    One-Electron Energy =               -2205.9561919307839162
    Two-Electron Energy =                 948.3854478358414326
    Total Energy =                       -642.0047412232322586
  Basis Set: (AUG-CC-PVTZ AUX)
    Blend: AUG-CC-PVTZ-RI + DEF2-QZVPP-RI
    Molecular point group: c1

    Geometry (in Angstrom), charge = 0, multiplicity = 1:

       Center              X                  Y                   Z               Mass
    ------------   -----------------  -----------------  -----------------  -----------------
         I            2.047926837157    -0.002107636721    -0.223077215133   126.904471900000
         C           -0.851054162843    -0.002112636721     0.766314784867    12.000000000000
         C           -2.800440162843    -1.227413636721    -0.035668215133    12.000000000000
         C           -2.800433162843     1.223201363279    -0.035662215133    12.000000000000
         C           -1.506339162843     1.207642363279     0.498096784867    12.000000000000
         C           -1.506343162843    -1.211861636721     0.498091784867    12.000000000000
         C           -3.431460162843    -0.002105636721    -0.295186215133    12.000000000000
         C            0.524943837157    -0.002115636721     1.338549784867    12.000000000000
         C           -3.490438662843    -2.488054636721    -0.283701415133    12.000000000000
         C           -3.514095162843     2.527059363279    -0.292203215133    12.000000000000
         H           -0.991390162843     2.148728363279     0.690693784867     1.007825032230
         H           -0.991398162843    -2.152951636721     0.690683784867     1.007825032230
         H           -4.436723162843    -0.002101636721    -0.716861215133     1.007825032230
         H            0.730671837157    -0.894702636721     1.928616784867     1.007825032230
         H            0.730671837157     0.890466363279     1.928624784867     1.007825032230
         H           -4.202870162843    -2.444536636721    -1.136237215133     1.007825032230
         H           -4.098028162843    -2.835488636721     0.582641784867     1.007825032230
         H           -2.805283162843    -3.332926636721    -0.513666215133     1.007825032230
         H           -4.098365162843     2.831058363279     0.582492784867     1.007825032230
         H           -2.805266162843     3.328805363279    -0.513259215133     1.007825032230
         H           -4.202563162843     2.440428363279    -1.136496215133     1.007825032230

  Basis Set: AUG-CC-PVTZ
    Blend: AUG-CC-PVTZ
  Basis Set: (AUG-CC-PVTZ AUX)
    Blend: AUG-CC-PVTZ-JKFIT + DEF2-UNIVERSAL-JKFIT
	 Reference Energy          =    -642.0047412232322586 [Eh]
	 Singles Energy            =      -0.0000000000000000 [Eh]
	 Same-Spin Energy          =      -0.4680882028320033 [Eh]
	 Opposite-Spin Energy      =      -1.4531093543135949 [Eh]
	 Correlation Energy        =      -1.9211975571455981 [Eh]
	 Total Energy              =    -643.9259387803778054 [Eh]

	 ================> DF-SCS-MP2 Energies <==================
	-----------------------------------------------------------
	 SCS Same-Spin Scale       =       0.3333333333333333 [-]
	 SCS Opposite-Spin Scale   =       1.2000000000000000 [-]
	 SCS Same-Spin Energy      =      -0.1560294009440011 [Eh]
	 SCS Opposite-Spin Energy  =      -1.7437312251763137 [Eh]
	 SCS Correlation Energy    =      -1.8997606261203148 [Eh]
	 SCS Total Energy          =    -643.9045018493525276 [Eh]
	-----------------------------------------------------------

  Dipole Moment: [D]
     X:    -2.0992      Y:    -0.0013      Z:     0.8864     Total:     2.2787

*** Psi4 exiting successfully. Buy a developer a beer!
