                               Psi4 1.4a3.dev225

  ==> Input File <==

--------------------------------------------------------------------------
#psi4
#
memory 32 gb

molecule  {
0 1
  I        2.3447600     0.0000010    -0.2524410
  C       -0.5542210    -0.0000040     0.7369510
  C       -2.5036070    -1.2253050    -0.0650320
  C       -2.5036000     1.2253100    -0.0650260
  C       -1.2095060     1.2097510     0.4687330
  C       -1.2095100    -1.2097530     0.4687280
  C       -3.1346270     0.0000030    -0.3245500
  C        0.8217770    -0.0000070     1.3091860
  C       -3.2172620    -2.5291670    -0.3215690
  C       -3.1699485     2.4427263    -0.3045591
  H       -0.6945570     2.1508370     0.6613300
  H       -0.6945650    -2.1508430     0.6613200
  H       -4.1398900     0.0000070    -0.7462250
  H        1.0275050    -0.8925940     1.8992530
  H        1.0275050     0.8925750     1.8992610
  H       -3.9060370    -2.4424280    -1.1656010
  H       -3.8011950    -2.8333800     0.5532780
  H       -2.5084500    -3.3308180    -0.5430300
  H       -3.8015320     2.8331670     0.5531290
  H       -2.5084330     3.3309140    -0.5426230
  H       -3.9057300     2.4425370    -1.1658600
units angstrom
no_reorient  #important for SAPT in psi4, default
symmetry c1  #important for SAPT in psi4, default
}

set PROPERTIES_ORIGIN ["COM"]
properties('MP2/aug-cc-pvtz', properties = ['dipole'])
--------------------------------------------------------------------------

    Molecular point group: c1
  Charge       = 0
  Multiplicity = 1
  Basis Set: AUG-CC-PVTZ
    Blend: AUG-CC-PVTZ
  Basis Set: (AUG-CC-PVTZ AUX)
    Blend: AUG-CC-PVTZ-JKFIT + DEF2-UNIVERSAL-JKFIT

    Orbital Energies [Eh]
    ---------------------

    Doubly Occupied:

       1A    -11.290569     2A    -11.254455     3A    -11.249564
       4A    -11.244142     5A    -11.233639     6A    -11.233484
       7A    -11.232633     8A    -11.231485     9A    -11.228540
      10A     -7.706393    11A     -5.537843    12A     -5.528556
      13A     -5.528546    14A     -2.267057    15A     -2.262639
      16A     -2.262616    17A     -2.252349    18A     -2.252349
      19A     -1.168827    20A     -1.079573    21A     -1.067572
      22A     -0.971133    23A     -0.938562    24A     -0.931457
      25A     -0.849582    26A     -0.790611    27A     -0.783850
      28A     -0.682995    29A     -0.669377    30A     -0.628548
      31A     -0.591343    32A     -0.584824    33A     -0.579516
      34A     -0.569009    35A     -0.564418    36A     -0.550744
      37A     -0.515296    38A     -0.508439    39A     -0.495392
      40A     -0.483855    41A     -0.442378    42A     -0.359550
      43A     -0.357330    44A     -0.323449    45A     -0.318472

  @DF-RHF Final Energy:  -641.99575984374280

   => Energetics <=

    Nuclear Repulsion Energy =            616.5322843150864855
    One-Electron Energy =               -2207.8501685866563093
    Two-Electron Energy =                 949.3221244278269069
    Total Energy =                       -641.9957598437428032
  Basis Set: (AUG-CC-PVTZ AUX)
    Blend: AUG-CC-PVTZ-RI + DEF2-QZVPP-RI
    Molecular point group: c1

    Geometry (in Angstrom), charge = 0, multiplicity = 1:

       Center              X                  Y                   Z               Mass
    ------------   -----------------  -----------------  -----------------  -----------------
         I            2.046772792812     0.004217616088    -0.223492065220   126.904471900000
         C           -0.852208207188     0.004212616088     0.765899934780    12.000000000000
         C           -2.801594207188    -1.221088383912    -0.036083065220    12.000000000000
         C           -2.801587207188     1.229526616088    -0.036077065220    12.000000000000
         C           -1.507493207188     1.213967616088     0.497681934780    12.000000000000
         C           -1.507497207188    -1.205536383912     0.497676934780    12.000000000000
         C           -3.432614207188     0.004219616088    -0.295601065220    12.000000000000
         C            0.523789792812     0.004209616088     1.338134934780    12.000000000000
         C           -3.515249207188    -2.524950383912    -0.292620065220    12.000000000000
         C           -3.467935707188     2.446942916088    -0.275610165220    12.000000000000
         H           -0.992544207188     2.155053616088     0.690278934780     1.007825032230
         H           -0.992552207188    -2.146626383912     0.690268934780     1.007825032230
         H           -4.437877207188     0.004223616088    -0.717276065220     1.007825032230
         H            0.729517792812    -0.888377383912     1.928201934780     1.007825032230
         H            0.729517792812     0.896791616088     1.928209934780     1.007825032230
         H           -4.204024207188    -2.438211383912    -1.136652065220     1.007825032230
         H           -4.099182207188    -2.829163383912     0.582226934780     1.007825032230
         H           -2.806437207188    -3.326601383912    -0.514081065220     1.007825032230
         H           -4.099519207188     2.837383616088     0.582077934780     1.007825032230
         H           -2.806420207188     3.335130616088    -0.513674065220     1.007825032230
         H           -4.203717207188     2.446753616088    -1.136911065220     1.007825032230

  Basis Set: AUG-CC-PVTZ
    Blend: AUG-CC-PVTZ
  Basis Set: (AUG-CC-PVTZ AUX)
    Blend: AUG-CC-PVTZ-JKFIT + DEF2-UNIVERSAL-JKFIT
	 Reference Energy          =    -641.9957598437428032 [Eh]
	 Singles Energy            =      -0.0000000000000000 [Eh]
	 Same-Spin Energy          =      -0.4688398264708846 [Eh]
	 Opposite-Spin Energy      =      -1.4540443527404840 [Eh]
	 Correlation Energy        =      -1.9228841792113687 [Eh]
	 Total Energy              =    -643.9186440229541404 [Eh]

	 ================> DF-SCS-MP2 Energies <==================
	-----------------------------------------------------------
	 SCS Same-Spin Scale       =       0.3333333333333333 [-]
	 SCS Opposite-Spin Scale   =       1.2000000000000000 [-]
	 SCS Same-Spin Energy      =      -0.1562799421569615 [Eh]
	 SCS Opposite-Spin Energy  =      -1.7448532232885807 [Eh]
	 SCS Correlation Energy    =      -1.9011331654455423 [Eh]
	 SCS Total Energy          =    -643.8968930091883749 [Eh]
	-----------------------------------------------------------

  Dipole Moment: [D]
     X:    -2.0951      Y:    -0.0027      Z:     0.8884     Total:     2.2757

*** Psi4 exiting successfully. Buy a developer a beer!
