                               Psi4 1.4a3.dev225

  ==> Input File <==

--------------------------------------------------------------------------
#psi4
#
memory 32 gb

molecule  {
0 1
  I        2.2321165     0.0000015    -0.3548749
  C       -0.5542210    -0.0000040     0.7369510
  C       -2.5036070    -1.2253050    -0.0650320
  C       -2.5036000     1.2253100    -0.0650260
  C       -1.2095060     1.2097510     0.4687330
  C       -1.2095100    -1.2097530     0.4687280
  C       -3.1346270     0.0000030    -0.3245500
  C        0.8217770    -0.0000070     1.3091860
  C       -3.2172620    -2.5291670    -0.3215690
  C       -3.2172620     2.5291680    -0.3215670
  H       -0.6945570     2.1508370     0.6613300
  H       -0.6945650    -2.1508430     0.6613200
  H       -4.1398900     0.0000070    -0.7462250
  H        1.0275050    -0.8925940     1.8992530
  H        1.0275050     0.8925750     1.8992610
  H       -3.9060370    -2.4424280    -1.1656010
  H       -3.8011950    -2.8333800     0.5532780
  H       -2.5084500    -3.3308180    -0.5430300
  H       -3.8015320     2.8331670     0.5531290
  H       -2.5084330     3.3309140    -0.5426230
  H       -3.9057300     2.4425370    -1.1658600
units angstrom
no_reorient  #important for SAPT in psi4, default
symmetry c1  #important for SAPT in psi4, default
}

set PROPERTIES_ORIGIN ["COM"]
properties('MP2/aug-cc-pvtz', properties = ['dipole'])
--------------------------------------------------------------------------

    Molecular point group: c1
  Charge       = 0
  Multiplicity = 1
  Basis Set: AUG-CC-PVTZ
    Blend: AUG-CC-PVTZ
  Basis Set: (AUG-CC-PVTZ AUX)
    Blend: AUG-CC-PVTZ-JKFIT + DEF2-UNIVERSAL-JKFIT

    Orbital Energies [Eh]
    ---------------------

    Doubly Occupied:

       1A    -11.290895     2A    -11.253537     3A    -11.248570
       4A    -11.248544     5A    -11.231984     6A    -11.231942
       7A    -11.229909     8A    -11.227726     9A    -11.227726
      10A     -7.706522    11A     -5.538012    12A     -5.528685
      13A     -5.528627    14A     -2.267239    15A     -2.262818
      16A     -2.262758    17A     -2.252434    18A     -2.252432
      19A     -1.164674    20A     -1.073517    21A     -1.060384
      22A     -0.969257    23A     -0.937630    24A     -0.932325
      25A     -0.848608    26A     -0.790291    27A     -0.783742
      28A     -0.681436    29A     -0.666556    30A     -0.617748
      31A     -0.588507    32A     -0.585398    33A     -0.572897
      34A     -0.572539    35A     -0.563387    36A     -0.555032
      37A     -0.525287    38A     -0.511823    39A     -0.488249
      40A     -0.484689    41A     -0.444611    42A     -0.361145
      43A     -0.358318    44A     -0.323964    45A     -0.315891

  @DF-RHF Final Energy:  -642.00660768187515

   => Energetics <=

    Nuclear Repulsion Energy =            617.8272395579996328
    One-Electron Energy =               -2210.5311589279908731
    Two-Electron Energy =                 950.6973116881159740
    Total Energy =                       -642.0066076818751526
  Basis Set: (AUG-CC-PVTZ AUX)
    Blend: AUG-CC-PVTZ-RI + DEF2-QZVPP-RI
    Molecular point group: c1

    Geometry (in Angstrom), charge = 0, multiplicity = 1:

       Center              X                  Y                   Z               Mass
    ------------   -----------------  -----------------  -----------------  -----------------
         I            1.994549199375     0.000001027814    -0.272251484914   126.904471900000
         C           -0.791788300625    -0.000004472186     0.819574415086    12.000000000000
         C           -2.741174300625    -1.225305472186     0.017591415086    12.000000000000
         C           -2.741167300625     1.225309527814     0.017597415086    12.000000000000
         C           -1.447073300625     1.209750527814     0.551356415086    12.000000000000
         C           -1.447077300625    -1.209753472186     0.551351415086    12.000000000000
         C           -3.372194300625     0.000002527814    -0.241926584914    12.000000000000
         C            0.584209699375    -0.000007472186     1.391809415086    12.000000000000
         C           -3.454829300625    -2.529167472186    -0.238945584914    12.000000000000
         C           -3.454829300625     2.529167527814    -0.238943584914    12.000000000000
         H           -0.932124300625     2.150836527814     0.743953415086     1.007825032230
         H           -0.932132300625    -2.150843472186     0.743943415086     1.007825032230
         H           -4.377457300625     0.000006527814    -0.663601584914     1.007825032230
         H            0.789937699375    -0.892594472186     1.981876415086     1.007825032230
         H            0.789937699375     0.892574527814     1.981884415086     1.007825032230
         H           -4.143604300625    -2.442428472186    -1.082977584914     1.007825032230
         H           -4.038762300625    -2.833380472186     0.635901415086     1.007825032230
         H           -2.746017300625    -3.330818472186    -0.460406584914     1.007825032230
         H           -4.039099300625     2.833166527814     0.635752415086     1.007825032230
         H           -2.746000300625     3.330913527814    -0.459999584914     1.007825032230
         H           -4.143297300625     2.442536527814    -1.083236584914     1.007825032230

  Basis Set: AUG-CC-PVTZ
    Blend: AUG-CC-PVTZ
  Basis Set: (AUG-CC-PVTZ AUX)
    Blend: AUG-CC-PVTZ-JKFIT + DEF2-UNIVERSAL-JKFIT
	 Reference Energy          =    -642.0066076818751526 [Eh]
	 Singles Energy            =      -0.0000000000000000 [Eh]
	 Same-Spin Energy          =      -0.4679129164649289 [Eh]
	 Opposite-Spin Energy      =      -1.4531048664569295 [Eh]
	 Correlation Energy        =      -1.9210177829218584 [Eh]
	 Total Energy              =    -643.9276254647969608 [Eh]

	 ================> DF-SCS-MP2 Energies <==================
	-----------------------------------------------------------
	 SCS Same-Spin Scale       =       0.3333333333333333 [-]
	 SCS Opposite-Spin Scale   =       1.2000000000000000 [-]
	 SCS Same-Spin Energy      =      -0.1559709721549763 [Eh]
	 SCS Opposite-Spin Energy  =      -1.7437258397483153 [Eh]
	 SCS Correlation Energy    =      -1.8996968119032915 [Eh]
	 SCS Total Energy          =    -643.9063044937784070 [Eh]
	-----------------------------------------------------------

  Dipole Moment: [D]
     X:    -1.9570      Y:    -0.0000      Z:     0.9373     Total:     2.1699

*** Psi4 exiting successfully. Buy a developer a beer!
