                               Psi4 1.4a3.dev225

  ==> Input File <==

--------------------------------------------------------------------------
#psi4
#
memory 32 gb

molecule  {
0 1
  I        2.3447600     0.0000010    -0.2524410
  C       -0.5542210    -0.0000040     0.7369510
  C       -2.5036070    -1.2253050    -0.0650320
  C       -2.5036000     1.2253100    -0.0650260
  C       -1.2095060     1.2097510     0.4687330
  C       -1.2095100    -1.2097530     0.4687280
  C       -3.1796206     0.0873710    -0.3430544
  C        0.8217770    -0.0000070     1.3091860
  C       -3.2172620    -2.5291670    -0.3215690
  C       -3.2172620     2.5291680    -0.3215670
  H       -0.6945570     2.1508370     0.6613300
  H       -0.6945650    -2.1508430     0.6613200
  H       -4.1398900     0.0000070    -0.7462250
  H        1.0275050    -0.8925940     1.8992530
  H        1.0275050     0.8925750     1.8992610
  H       -3.9060370    -2.4424280    -1.1656010
  H       -3.8011950    -2.8333800     0.5532780
  H       -2.5084500    -3.3308180    -0.5430300
  H       -3.8015320     2.8331670     0.5531290
  H       -2.5084330     3.3309140    -0.5426230
  H       -3.9057300     2.4425370    -1.1658600
units angstrom
no_reorient  #important for SAPT in psi4, default
symmetry c1  #important for SAPT in psi4, default
}

set PROPERTIES_ORIGIN ["COM"]
properties('MP2/aug-cc-pvtz', properties = ['dipole'])
--------------------------------------------------------------------------

    Molecular point group: c1
  Charge       = 0
  Multiplicity = 1
  Basis Set: AUG-CC-PVTZ
    Blend: AUG-CC-PVTZ
  Basis Set: (AUG-CC-PVTZ AUX)
    Blend: AUG-CC-PVTZ-JKFIT + DEF2-UNIVERSAL-JKFIT

    Orbital Energies [Eh]
    ---------------------

    Doubly Occupied:

       1A    -11.290684     2A    -11.259277     3A    -11.255577
       4A    -11.243376     5A    -11.233543     6A    -11.232417
       7A    -11.231303     8A    -11.229670     9A    -11.224780
      10A     -7.706690    11A     -5.538157    12A     -5.528846
      13A     -5.528829    14A     -2.267372    15A     -2.262946
      16A     -2.262920    17A     -2.252625    18A     -2.252624
      19A     -1.162492    20A     -1.075690    21A     -1.057184
      22A     -0.970359    23A     -0.937367    24A     -0.932481
      25A     -0.850702    26A     -0.786738    27A     -0.783802
      28A     -0.687645    29A     -0.665603    30A     -0.620860
      31A     -0.588785    32A     -0.584818    33A     -0.573776
      34A     -0.572688    35A     -0.563397    36A     -0.559787
      37A     -0.524979    38A     -0.514036    39A     -0.495597
      40A     -0.469930    41A     -0.443015    42A     -0.359876
      43A     -0.357569    44A     -0.330550    45A     -0.312126

  @DF-RHF Final Energy:  -641.99623651877528

   => Energetics <=

    Nuclear Repulsion Energy =            613.8019823286155088
    One-Electron Energy =               -2202.4294569858393515
    Two-Electron Energy =                 946.6312381384486798
    Total Energy =                       -641.9962365187752766
  Basis Set: (AUG-CC-PVTZ AUX)
    Blend: AUG-CC-PVTZ-RI + DEF2-QZVPP-RI
    Molecular point group: c1

    Geometry (in Angstrom), charge = 0, multiplicity = 1:

       Center              X                  Y                   Z               Mass
    ------------   -----------------  -----------------  -----------------  -----------------
         I            2.051275751207    -0.004261231670    -0.221759691335   126.904471900000
         C           -0.847705248793    -0.004266231670     0.767632308665    12.000000000000
         C           -2.797091248793    -1.229567231670    -0.034350691335    12.000000000000
         C           -2.797084248793     1.221047768330    -0.034344691335    12.000000000000
         C           -1.502990248793     1.205488768330     0.499414308665    12.000000000000
         C           -1.502994248793    -1.214015231670     0.499409308665    12.000000000000
         C           -3.473104848793     0.083108768330    -0.312373091335    12.000000000000
         C            0.528292751207    -0.004269231670     1.339867308665    12.000000000000
         C           -3.510746248793    -2.533429231670    -0.290887691335    12.000000000000
         C           -3.510746248793     2.524905768330    -0.290885691335    12.000000000000
         H           -0.988041248793     2.146574768330     0.692011308665     1.007825032230
         H           -0.988049248793    -2.155105231670     0.692001308665     1.007825032230
         H           -4.433374248793    -0.004255231670    -0.715543691335     1.007825032230
         H            0.734020751207    -0.896856231670     1.929934308665     1.007825032230
         H            0.734020751207     0.888312768330     1.929942308665     1.007825032230
         H           -4.199521248793    -2.446690231670    -1.134919691335     1.007825032230
         H           -4.094679248793    -2.837642231670     0.583959308665     1.007825032230
         H           -2.801934248793    -3.335080231670    -0.512348691335     1.007825032230
         H           -4.095016248793     2.828904768330     0.583810308665     1.007825032230
         H           -2.801917248793     3.326651768330    -0.511941691335     1.007825032230
         H           -4.199214248793     2.438274768330    -1.135178691335     1.007825032230

  Basis Set: AUG-CC-PVTZ
    Blend: AUG-CC-PVTZ
  Basis Set: (AUG-CC-PVTZ AUX)
    Blend: AUG-CC-PVTZ-JKFIT + DEF2-UNIVERSAL-JKFIT
	 Reference Energy          =    -641.9962365187752766 [Eh]
	 Singles Energy            =      -0.0000000000000000 [Eh]
	 Same-Spin Energy          =      -0.4673328634793215 [Eh]
	 Opposite-Spin Energy      =      -1.4531163889615426 [Eh]
	 Correlation Energy        =      -1.9204492524408641 [Eh]
	 Total Energy              =    -643.9166857712161800 [Eh]

	 ================> DF-SCS-MP2 Energies <==================
	-----------------------------------------------------------
	 SCS Same-Spin Scale       =       0.3333333333333333 [-]
	 SCS Opposite-Spin Scale   =       1.2000000000000000 [-]
	 SCS Same-Spin Energy      =      -0.1557776211597738 [Eh]
	 SCS Opposite-Spin Energy  =      -1.7437396667538512 [Eh]
	 SCS Correlation Energy    =      -1.8995172879136251 [Eh]
	 SCS Total Energy          =    -643.8957538066889583 [Eh]
	-----------------------------------------------------------

  Dipole Moment: [D]
     X:    -2.0913      Y:    -0.0792      Z:     0.8822     Total:     2.2712

*** Psi4 exiting successfully. Buy a developer a beer!
