                               Psi4 1.4a3.dev225

  ==> Input File <==

--------------------------------------------------------------------------
#psi4
#
memory 32 gb

molecule  {
0 1
  I        2.3447600     0.0000010    -0.2524410
  C       -0.5542210    -0.0000040     0.7369510
  C       -2.5036070    -1.2253050    -0.0650320
  C       -2.5036000     1.2253100    -0.0650260
  C       -1.2095060     1.2097510     0.4687330
  C       -1.2095100    -1.2097530     0.4687280
  C       -3.1121302    -0.0436810    -0.3152978
  C        0.8217770    -0.0000070     1.3091860
  C       -3.2172620    -2.5291670    -0.3215690
  C       -3.2172620     2.5291680    -0.3215670
  H       -0.6945570     2.1508370     0.6613300
  H       -0.6945650    -2.1508430     0.6613200
  H       -4.1398900     0.0000070    -0.7462250
  H        1.0275050    -0.8925940     1.8992530
  H        1.0275050     0.8925750     1.8992610
  H       -3.9060370    -2.4424280    -1.1656010
  H       -3.8011950    -2.8333800     0.5532780
  H       -2.5084500    -3.3308180    -0.5430300
  H       -3.8015320     2.8331670     0.5531290
  H       -2.5084330     3.3309140    -0.5426230
  H       -3.9057300     2.4425370    -1.1658600
units angstrom
no_reorient  #important for SAPT in psi4, default
symmetry c1  #important for SAPT in psi4, default
}

set PROPERTIES_ORIGIN ["COM"]
properties('MP2/aug-cc-pvtz', properties = ['dipole'])
--------------------------------------------------------------------------

    Molecular point group: c1
  Charge       = 0
  Multiplicity = 1
  Basis Set: AUG-CC-PVTZ
    Blend: AUG-CC-PVTZ
  Basis Set: (AUG-CC-PVTZ AUX)
    Blend: AUG-CC-PVTZ-JKFIT + DEF2-UNIVERSAL-JKFIT

    Orbital Energies [Eh]
    ---------------------

    Doubly Occupied:

       1A    -11.290233     2A    -11.253566     3A    -11.252217
       4A    -11.242949     5A    -11.233655     6A    -11.233075
       7A    -11.230882     8A    -11.230081     9A    -11.227554
      10A     -7.705997    11A     -5.537435    12A     -5.528170
      13A     -5.528156    14A     -2.266647    15A     -2.262239
      16A     -2.262213    17A     -2.251970    18A     -2.251970
      19A     -1.167534    20A     -1.074847    21A     -1.061265
      22A     -0.970026    23A     -0.939519    24A     -0.933188
      25A     -0.848563    26A     -0.793930    27A     -0.781827
      28A     -0.680018    29A     -0.668169    30A     -0.616419
      31A     -0.588892    32A     -0.586763    33A     -0.573985
      34A     -0.573264    35A     -0.564500    36A     -0.553584
      37A     -0.526689    38A     -0.510685    39A     -0.492410
      40A     -0.481125    41A     -0.445757    42A     -0.359572
      43A     -0.357060    44A     -0.328043    45A     -0.317507

  @DF-RHF Final Energy:  -642.00494724292082

   => Energetics <=

    Nuclear Repulsion Energy =            615.1080974857715091
    One-Electron Energy =               -2205.0577889424093883
    Two-Electron Energy =                 947.9447442137171720
    Total Energy =                       -642.0049472429208208
  Basis Set: (AUG-CC-PVTZ AUX)
    Blend: AUG-CC-PVTZ-RI + DEF2-QZVPP-RI
    Molecular point group: c1

    Geometry (in Angstrom), charge = 0, multiplicity = 1:

       Center              X                  Y                   Z               Mass
    ------------   -----------------  -----------------  -----------------  -----------------
         I            2.047983410062     0.002131794475    -0.223113723853   126.904471900000
         C           -0.850997589938     0.002126794475     0.766278276147    12.000000000000
         C           -2.800383589938    -1.223174205525    -0.035704723853    12.000000000000
         C           -2.800376589938     1.227440794475    -0.035698723853    12.000000000000
         C           -1.506282589938     1.211881794475     0.498060276147    12.000000000000
         C           -1.506286589938    -1.207622205525     0.498055276147    12.000000000000
         C           -3.408906789938    -0.041550205525    -0.285970523853    12.000000000000
         C            0.525000410062     0.002123794475     1.338513276147    12.000000000000
         C           -3.514038589938    -2.527036205525    -0.292241723853    12.000000000000
         C           -3.514038589938     2.531298794475    -0.292239723853    12.000000000000
         H           -0.991333589938     2.152967794475     0.690657276147     1.007825032230
         H           -0.991341589938    -2.148712205525     0.690647276147     1.007825032230
         H           -4.436666589938     0.002137794475    -0.716897723853     1.007825032230
         H            0.730728410062    -0.890463205525     1.928580276147     1.007825032230
         H            0.730728410062     0.894705794475     1.928588276147     1.007825032230
         H           -4.202813589938    -2.440297205525    -1.136273723853     1.007825032230
         H           -4.097971589938    -2.831249205525     0.582605276147     1.007825032230
         H           -2.805226589938    -3.328687205525    -0.513702723853     1.007825032230
         H           -4.098308589938     2.835297794475     0.582456276147     1.007825032230
         H           -2.805209589938     3.333044794475    -0.513295723853     1.007825032230
         H           -4.202506589938     2.444667794475    -1.136532723853     1.007825032230

  Basis Set: AUG-CC-PVTZ
    Blend: AUG-CC-PVTZ
  Basis Set: (AUG-CC-PVTZ AUX)
    Blend: AUG-CC-PVTZ-JKFIT + DEF2-UNIVERSAL-JKFIT
	 Reference Energy          =    -642.0049472429208208 [Eh]
	 Singles Energy            =      -0.0000000000000000 [Eh]
	 Same-Spin Energy          =      -0.4675746465877008 [Eh]
	 Opposite-Spin Energy      =      -1.4526500574609624 [Eh]
	 Correlation Energy        =      -1.9202247040486631 [Eh]
	 Total Energy              =    -643.9251719469694990 [Eh]

	 ================> DF-SCS-MP2 Energies <==================
	-----------------------------------------------------------
	 SCS Same-Spin Scale       =       0.3333333333333333 [-]
	 SCS Opposite-Spin Scale   =       1.2000000000000000 [-]
	 SCS Same-Spin Energy      =      -0.1558582155292336 [Eh]
	 SCS Opposite-Spin Energy  =      -1.7431800689531549 [Eh]
	 SCS Correlation Energy    =      -1.8990382844823885 [Eh]
	 SCS Total Energy          =    -643.9039855274031652 [Eh]
	-----------------------------------------------------------

  Dipole Moment: [D]
     X:    -2.0945      Y:     0.0432      Z:     0.8898     Total:     2.2761

*** Psi4 exiting successfully. Buy a developer a beer!
