                               Psi4 1.4a3.dev225

  ==> Input File <==

--------------------------------------------------------------------------
#psi4
#
memory 32 gb

molecule  {
0 1
  I        2.3447600     0.0000010    -0.2524410
  C       -0.5542210    -0.0000040     0.7369510
  C       -2.5036070    -1.2253050    -0.0650320
  C       -2.5036000     1.2253100    -0.0650260
  C       -1.2095060     1.2097510     0.4687330
  C       -1.1899312    -1.2219258     0.4769134
  C       -3.1346270     0.0000030    -0.3245500
  C        0.8217770    -0.0000070     1.3091860
  C       -3.2172620    -2.5291670    -0.3215690
  C       -3.2172620     2.5291680    -0.3215670
  H       -0.6945570     2.1508370     0.6613300
  H       -0.6945650    -2.1508430     0.6613200
  H       -4.1398900     0.0000070    -0.7462250
  H        1.0275050    -0.8925940     1.8992530
  H        1.0275050     0.8925750     1.8992610
  H       -3.9060370    -2.4424280    -1.1656010
  H       -3.8011950    -2.8333800     0.5532780
  H       -2.5084500    -3.3308180    -0.5430300
  H       -3.8015320     2.8331670     0.5531290
  H       -2.5084330     3.3309140    -0.5426230
  H       -3.9057300     2.4425370    -1.1658600
units angstrom
no_reorient  #important for SAPT in psi4, default
symmetry c1  #important for SAPT in psi4, default
}

set PROPERTIES_ORIGIN ["COM"]
properties('MP2/aug-cc-pvtz', properties = ['dipole'])
--------------------------------------------------------------------------

    Molecular point group: c1
  Charge       = 0
  Multiplicity = 1
  Basis Set: AUG-CC-PVTZ
    Blend: AUG-CC-PVTZ
  Basis Set: (AUG-CC-PVTZ AUX)
    Blend: AUG-CC-PVTZ-JKFIT + DEF2-UNIVERSAL-JKFIT

    Orbital Energies [Eh]
    ---------------------

    Doubly Occupied:

       1A    -11.289711     2A    -11.254437     3A    -11.251882
       4A    -11.249899     5A    -11.233624     6A    -11.233037
       7A    -11.231208     8A    -11.228532     9A    -11.228276
      10A     -7.705917    11A     -5.537353    12A     -5.528090
      13A     -5.528077    14A     -2.266565    15A     -2.262158
      16A     -2.262132    17A     -2.251891    18A     -2.251891
      19A     -1.163673    20A     -1.073309    21A     -1.059962
      22A     -0.969313    23A     -0.938846    24A     -0.933286
      25A     -0.848554    26A     -0.791834    27A     -0.781337
      28A     -0.684713    29A     -0.666353    30A     -0.617731
      31A     -0.588459    32A     -0.585731    33A     -0.574695
      34A     -0.573315    35A     -0.565597    36A     -0.556254
      37A     -0.525612    38A     -0.510742    39A     -0.488699
      40A     -0.486174    41A     -0.443644    42A     -0.359233
      43A     -0.356976    44A     -0.322920    45A     -0.319579

  @DF-RHF Final Energy:  -642.00690364016180

   => Energetics <=

    Nuclear Repulsion Energy =            614.3569864678205477
    One-Electron Energy =               -2203.5653302420014370
    Two-Electron Energy =                 947.2014401340189806
    Total Energy =                       -642.0069036401617950
  Basis Set: (AUG-CC-PVTZ AUX)
    Blend: AUG-CC-PVTZ-RI + DEF2-QZVPP-RI
    Molecular point group: c1

    Geometry (in Angstrom), charge = 0, multiplicity = 1:

       Center              X                  Y                   Z               Mass
    ------------   -----------------  -----------------  -----------------  -----------------
         I            2.048125756996     0.000594603700    -0.223061682829   126.904471900000
         C           -0.850855243004     0.000589603700     0.766330317171    12.000000000000
         C           -2.800241243004    -1.224711396300    -0.035652682829    12.000000000000
         C           -2.800234243004     1.225903603700    -0.035646682829    12.000000000000
         C           -1.506140243004     1.210344603700     0.498112317171    12.000000000000
         C           -1.486565443004    -1.221332196300     0.506292717171    12.000000000000
         C           -3.431261243004     0.000596603700    -0.295170682829    12.000000000000
         C            0.525142756996     0.000586603700     1.338565317171    12.000000000000
         C           -3.513896243004    -2.528573396300    -0.292189682829    12.000000000000
         C           -3.513896243004     2.529761603700    -0.292187682829    12.000000000000
         H           -0.991191243004     2.151430603700     0.690709317171     1.007825032230
         H           -0.991199243004    -2.150249396300     0.690699317171     1.007825032230
         H           -4.436524243004     0.000600603700    -0.716845682829     1.007825032230
         H            0.730870756996    -0.892000396300     1.928632317171     1.007825032230
         H            0.730870756996     0.893168603700     1.928640317171     1.007825032230
         H           -4.202671243004    -2.441834396300    -1.136221682829     1.007825032230
         H           -4.097829243004    -2.832786396300     0.582657317171     1.007825032230
         H           -2.805084243004    -3.330224396300    -0.513650682829     1.007825032230
         H           -4.098166243004     2.833760603700     0.582508317171     1.007825032230
         H           -2.805067243004     3.331507603700    -0.513243682829     1.007825032230
         H           -4.202364243004     2.443130603700    -1.136480682829     1.007825032230

  Basis Set: AUG-CC-PVTZ
    Blend: AUG-CC-PVTZ
  Basis Set: (AUG-CC-PVTZ AUX)
    Blend: AUG-CC-PVTZ-JKFIT + DEF2-UNIVERSAL-JKFIT
	 Reference Energy          =    -642.0069036401617950 [Eh]
	 Singles Energy            =      -0.0000000000000000 [Eh]
	 Same-Spin Energy          =      -0.4675312196275674 [Eh]
	 Opposite-Spin Energy      =      -1.4526302976884053 [Eh]
	 Correlation Energy        =      -1.9201615173159727 [Eh]
	 Total Energy              =    -643.9270651574777276 [Eh]

	 ================> DF-SCS-MP2 Energies <==================
	-----------------------------------------------------------
	 SCS Same-Spin Scale       =       0.3333333333333333 [-]
	 SCS Opposite-Spin Scale   =       1.2000000000000000 [-]
	 SCS Same-Spin Energy      =      -0.1558437398758558 [Eh]
	 SCS Opposite-Spin Energy  =      -1.7431563572260864 [Eh]
	 SCS Correlation Energy    =      -1.8990000971019423 [Eh]
	 SCS Total Energy          =    -643.9059037372637704 [Eh]
	-----------------------------------------------------------

  Dipole Moment: [D]
     X:    -2.1145      Y:    -0.0076      Z:     0.8872     Total:     2.2931

*** Psi4 exiting successfully. Buy a developer a beer!
