                               Psi4 1.4a3.dev225

  ==> Input File <==

--------------------------------------------------------------------------
#psi4
#
memory 32 gb

molecule  {
0 1
  I        2.3447600     0.0000010    -0.2524410
  C       -0.5542210    -0.0000040     0.7369510
  C       -2.5036070    -1.2253050    -0.0650320
  C       -2.5036000     1.2253100    -0.0650260
  C       -1.2095060     1.2097510     0.4687330
  C       -1.2095100    -1.2097530     0.4687280
  C       -3.1346270     0.0000030    -0.3245500
  C        0.8217770    -0.0000070     1.3091860
  C       -3.2172620    -2.5291670    -0.3215690
  C       -3.2172620     2.5291680    -0.3215670
  H       -0.6945570     2.1508370     0.6613300
  H       -0.6945650    -2.1508430     0.6613200
  H       -4.1398900     0.0000070    -0.7462250
  H        1.0275050    -0.8925940     1.8992530
  H        1.0275050     0.8925750     1.8992610
  H       -3.9060370    -2.4424280    -1.1656010
  H       -3.8011950    -2.8333800     0.5532780
  H       -2.5084500    -3.3308180    -0.5430300
  H       -3.8015320     2.8331670     0.5531290
  H       -2.5084330     3.3309140    -0.5426230
  H       -3.7797352     2.4583911    -1.0113480
units angstrom
no_reorient  #important for SAPT in psi4, default
symmetry c1  #important for SAPT in psi4, default
}

set PROPERTIES_ORIGIN ["COM"]
properties('MP2/aug-cc-pvtz', properties = ['dipole'])
--------------------------------------------------------------------------

    Molecular point group: c1
  Charge       = 0
  Multiplicity = 1
  Basis Set: AUG-CC-PVTZ
    Blend: AUG-CC-PVTZ
  Basis Set: (AUG-CC-PVTZ AUX)
    Blend: AUG-CC-PVTZ-JKFIT + DEF2-UNIVERSAL-JKFIT

    Orbital Energies [Eh]
    ---------------------

    Doubly Occupied:

       1A    -11.290000     2A    -11.253583     3A    -11.249070
       4A    -11.247998     5A    -11.232790     6A    -11.232170
       7A    -11.231153     8A    -11.228158     9A    -11.203736
      10A     -7.705930    11A     -5.537373    12A     -5.528098
      13A     -5.528088    14A     -2.266586    15A     -2.262173
      16A     -2.262150    17A     -2.251896    18A     -2.251896
      19A     -1.165190    20A     -1.075021    21A     -1.064552
      22A     -0.977326    23A     -0.947755    24A     -0.935368
      25A     -0.849276    26A     -0.794857    27A     -0.784439
      28A     -0.682744    29A     -0.669357    30A     -0.622419
      31A     -0.602351    32A     -0.586558    33A     -0.577310
      34A     -0.572452    35A     -0.566055    36A     -0.560888
      37A     -0.531289    38A     -0.510871    39A     -0.490435
      40A     -0.484574    41A     -0.444430    42A     -0.359201
      43A     -0.356951    44A     -0.324454    45A     -0.318807

  @DF-RHF Final Energy:  -641.97365669002295

   => Energetics <=

    Nuclear Repulsion Energy =            615.6503076892328181
    One-Electron Energy =               -2206.0123753521775143
    Two-Electron Energy =                 948.3884109729218608
    Total Energy =                       -641.9736566900229491
  Basis Set: (AUG-CC-PVTZ AUX)
    Blend: AUG-CC-PVTZ-RI + DEF2-QZVPP-RI
    Molecular point group: c1

    Geometry (in Angstrom), charge = 0, multiplicity = 1:

       Center              X                  Y                   Z               Mass
    ------------   -----------------  -----------------  -----------------  -----------------
         I            2.048564655514    -0.000064168601    -0.223295416450   126.904471900000
         C           -0.850416344486    -0.000069168601     0.766096583550    12.000000000000
         C           -2.799802344486    -1.225370168601    -0.035886416450    12.000000000000
         C           -2.799795344486     1.225244831399    -0.035880416450    12.000000000000
         C           -1.505701344486     1.209685831399     0.497878583550    12.000000000000
         C           -1.505705344486    -1.209818168601     0.497873583550    12.000000000000
         C           -3.430822344486    -0.000062168601    -0.295404416450    12.000000000000
         C            0.525581655514    -0.000072168601     1.338331583550    12.000000000000
         C           -3.513457344486    -2.529232168601    -0.292423416450    12.000000000000
         C           -3.513457344486     2.529102831399    -0.292421416450    12.000000000000
         H           -0.990752344486     2.150771831399     0.690475583550     1.007825032230
         H           -0.990760344486    -2.150908168601     0.690465583550     1.007825032230
         H           -4.436085344486    -0.000058168601    -0.717079416450     1.007825032230
         H            0.731309655514    -0.892659168601     1.928398583550     1.007825032230
         H            0.731309655514     0.892509831399     1.928406583550     1.007825032230
         H           -4.202232344486    -2.442493168601    -1.136455416450     1.007825032230
         H           -4.097390344486    -2.833445168601     0.582423583550     1.007825032230
         H           -2.804645344486    -3.330883168601    -0.513884416450     1.007825032230
         H           -4.097727344486     2.833101831399     0.582274583550     1.007825032230
         H           -2.804628344486     3.330848831399    -0.513477416450     1.007825032230
         H           -4.075930544486     2.458325931399    -0.982202416450     1.007825032230

  Basis Set: AUG-CC-PVTZ
    Blend: AUG-CC-PVTZ
  Basis Set: (AUG-CC-PVTZ AUX)
    Blend: AUG-CC-PVTZ-JKFIT + DEF2-UNIVERSAL-JKFIT
	 Reference Energy          =    -641.9736566900229491 [Eh]
	 Singles Energy            =      -0.0000000000000000 [Eh]
	 Same-Spin Energy          =      -0.4676288506115628 [Eh]
	 Opposite-Spin Energy      =      -1.4518899012095672 [Eh]
	 Correlation Energy        =      -1.9195187518211301 [Eh]
	 Total Energy              =    -643.8931754418440505 [Eh]

	 ================> DF-SCS-MP2 Energies <==================
	-----------------------------------------------------------
	 SCS Same-Spin Scale       =       0.3333333333333333 [-]
	 SCS Opposite-Spin Scale   =       1.2000000000000000 [-]
	 SCS Same-Spin Energy      =      -0.1558762835371876 [Eh]
	 SCS Opposite-Spin Energy  =      -1.7422678814514805 [Eh]
	 SCS Correlation Energy    =      -1.8981441649886681 [Eh]
	 SCS Total Energy          =    -643.8718008550116565 [Eh]
	-----------------------------------------------------------

  Dipole Moment: [D]
     X:    -2.1621      Y:     0.0342      Z:     0.8397     Total:     2.3197

*** Psi4 exiting successfully. Buy a developer a beer!
