                               Psi4 1.4a3.dev225

  ==> Input File <==

--------------------------------------------------------------------------
#psi4
#
memory 32 gb

molecule  {
0 1
  I        2.3447600     0.0000010    -0.2524410
  C       -0.5542210    -0.0000040     0.7369510
  C       -2.5036070    -1.2253050    -0.0650320
  C       -2.5036000     1.2253100    -0.0650260
  C       -1.2095060     1.2097510     0.4687330
  C       -1.2095100    -1.2097530     0.4687280
  C       -3.1346270     0.0000030    -0.3245500
  C        0.8217770    -0.0000070     1.3091860
  C       -3.2172620    -2.5291670    -0.3215690
  C       -3.2172620     2.5291680    -0.3215670
  H       -0.6945570     2.1508370     0.6613300
  H       -0.6945650    -2.1508430     0.6613200
  H       -4.1398900     0.0000070    -0.7462250
  H        1.0275050    -0.8925940     1.8992530
  H        1.0275050     0.8925750     1.8992610
  H       -3.9060370    -2.4424280    -1.1656010
  H       -3.8118611    -2.8389367     0.5692579
  H       -2.5084500    -3.3308180    -0.5430300
  H       -3.8015320     2.8331670     0.5531290
  H       -2.5084330     3.3309140    -0.5426230
  H       -3.9057300     2.4425370    -1.1658600
units angstrom
no_reorient  #important for SAPT in psi4, default
symmetry c1  #important for SAPT in psi4, default
}

set PROPERTIES_ORIGIN ["COM"]
properties('MP2/aug-cc-pvtz', properties = ['dipole'])
--------------------------------------------------------------------------

    Molecular point group: c1
  Charge       = 0
  Multiplicity = 1
  Basis Set: AUG-CC-PVTZ
    Blend: AUG-CC-PVTZ
  Basis Set: (AUG-CC-PVTZ AUX)
    Blend: AUG-CC-PVTZ-JKFIT + DEF2-UNIVERSAL-JKFIT

    Orbital Energies [Eh]
    ---------------------

    Doubly Occupied:

       1A    -11.290394     2A    -11.254188     3A    -11.249390
       4A    -11.249301     5A    -11.233350     6A    -11.233305
       7A    -11.231355     8A    -11.230695     9A    -11.228342
      10A     -7.706225    11A     -5.537671    12A     -5.528391
      13A     -5.528381    14A     -2.266885    15A     -2.262470
      16A     -2.262447    17A     -2.252187    18A     -2.252187
      19A     -1.165299    20A     -1.073113    21A     -1.060965
      22A     -0.969733    23A     -0.938190    24A     -0.932446
      25A     -0.849169    26A     -0.790710    27A     -0.783060
      28A     -0.682312    29A     -0.667131    30A     -0.617689
      31A     -0.588804    32A     -0.584890    33A     -0.573230
      34A     -0.570953    35A     -0.564299    36A     -0.555857
      37A     -0.526073    38A     -0.511105    39A     -0.489311
      40A     -0.485504    41A     -0.444448    42A     -0.359474
      43A     -0.357241    44A     -0.324866    45A     -0.318966

  @DF-RHF Final Energy:  -642.00742912221165

   => Energetics <=

    Nuclear Repulsion Energy =            614.5465868220412631
    One-Electron Energy =               -2203.9440265730086139
    Two-Electron Energy =                 947.3900106287557037
    Total Energy =                       -642.0074291222116472
  Basis Set: (AUG-CC-PVTZ AUX)
    Blend: AUG-CC-PVTZ-RI + DEF2-QZVPP-RI
    Molecular point group: c1

    Geometry (in Angstrom), charge = 0, multiplicity = 1:

       Center              X                  Y                   Z               Mass
    ------------   -----------------  -----------------  -----------------  -----------------
         I            2.049124556199     0.000023551600    -0.222727849445   126.904471900000
         C           -0.849856443801     0.000018551600     0.766664150555    12.000000000000
         C           -2.799242443801    -1.225282448400    -0.035318849445    12.000000000000
         C           -2.799235443801     1.225332551600    -0.035312849445    12.000000000000
         C           -1.505141443801     1.209773551600     0.498446150555    12.000000000000
         C           -1.505145443801    -1.209730448400     0.498441150555    12.000000000000
         C           -3.430262443801     0.000025551600    -0.294836849445    12.000000000000
         C            0.526141556199     0.000015551600     1.338899150555    12.000000000000
         C           -3.512897443801    -2.529144448400    -0.291855849445    12.000000000000
         C           -3.512897443801     2.529190551600    -0.291853849445    12.000000000000
         H           -0.990192443801     2.150859551600     0.691043150555     1.007825032230
         H           -0.990200443801    -2.150820448400     0.691033150555     1.007825032230
         H           -4.435525443801     0.000029551600    -0.716511849445     1.007825032230
         H            0.731869556199    -0.892571448400     1.928966150555     1.007825032230
         H            0.731869556199     0.892597551600     1.928974150555     1.007825032230
         H           -4.201672443801    -2.442405448400    -1.135887849445     1.007825032230
         H           -4.107496543801    -2.838914148400     0.598971050555     1.007825032230
         H           -2.804085443801    -3.330795448400    -0.513316849445     1.007825032230
         H           -4.097167443801     2.833189551600     0.582842150555     1.007825032230
         H           -2.804068443801     3.330936551600    -0.512909849445     1.007825032230
         H           -4.201365443801     2.442559551600    -1.136146849445     1.007825032230

  Basis Set: AUG-CC-PVTZ
    Blend: AUG-CC-PVTZ
  Basis Set: (AUG-CC-PVTZ AUX)
    Blend: AUG-CC-PVTZ-JKFIT + DEF2-UNIVERSAL-JKFIT
	 Reference Energy          =    -642.0074291222116472 [Eh]
	 Singles Energy            =      -0.0000000000000000 [Eh]
	 Same-Spin Energy          =      -0.4675629828633284 [Eh]
	 Opposite-Spin Energy      =      -1.4526860007911626 [Eh]
	 Correlation Energy        =      -1.9202489836544911 [Eh]
	 Total Energy              =    -643.9276781058661072 [Eh]

	 ================> DF-SCS-MP2 Energies <==================
	-----------------------------------------------------------
	 SCS Same-Spin Scale       =       0.3333333333333333 [-]
	 SCS Opposite-Spin Scale   =       1.2000000000000000 [-]
	 SCS Same-Spin Energy      =      -0.1558543276211095 [Eh]
	 SCS Opposite-Spin Energy  =      -1.7432232009493951 [Eh]
	 SCS Correlation Energy    =      -1.8990775285705046 [Eh]
	 SCS Total Energy          =    -643.9065066507821484 [Eh]
	-----------------------------------------------------------

  Dipole Moment: [D]
     X:    -2.0921      Y:     0.0077      Z:     0.8805     Total:     2.2698

*** Psi4 exiting successfully. Buy a developer a beer!
