                               Psi4 1.4a3.dev225

  ==> Input File <==

--------------------------------------------------------------------------
#psi4
#
memory 32 gb

molecule  {
0 1
  I        2.3447600     0.0000010    -0.2524410
  C       -0.5542210    -0.0000040     0.7369510
  C       -2.5036070    -1.2253050    -0.0650320
  C       -2.5036000     1.2253100    -0.0650260
  C       -1.2095060     1.2097510     0.4687330
  C       -1.2095100    -1.2097530     0.4687280
  C       -3.1346270     0.0000030    -0.3245500
  C        0.8566867    -0.0000068     1.2733905
  C       -3.2172620    -2.5291670    -0.3215690
  C       -3.2172620     2.5291680    -0.3215670
  H       -0.6945570     2.1508370     0.6613300
  H       -0.6945650    -2.1508430     0.6613200
  H       -4.1398900     0.0000070    -0.7462250
  H        1.0275050    -0.8925940     1.8992530
  H        1.0275050     0.8925750     1.8992610
  H       -3.9060370    -2.4424280    -1.1656010
  H       -3.8011950    -2.8333800     0.5532780
  H       -2.5084500    -3.3308180    -0.5430300
  H       -3.8015320     2.8331670     0.5531290
  H       -2.5084330     3.3309140    -0.5426230
  H       -3.9057300     2.4425370    -1.1658600
units angstrom
no_reorient  #important for SAPT in psi4, default
symmetry c1  #important for SAPT in psi4, default
}

set PROPERTIES_ORIGIN ["COM"]
properties('MP2/aug-cc-pvtz', properties = ['dipole'])
--------------------------------------------------------------------------

    Molecular point group: c1
  Charge       = 0
  Multiplicity = 1
  Basis Set: AUG-CC-PVTZ
    Blend: AUG-CC-PVTZ
  Basis Set: (AUG-CC-PVTZ AUX)
    Blend: AUG-CC-PVTZ-JKFIT + DEF2-UNIVERSAL-JKFIT

    Orbital Energies [Eh]
    ---------------------

    Doubly Occupied:

       1A    -11.289016     2A    -11.254059     3A    -11.248385
       4A    -11.248359     5A    -11.231942     6A    -11.231900
       7A    -11.230054     8A    -11.227671     9A    -11.227670
      10A     -7.709625    11A     -5.541250    12A     -5.531751
      13A     -5.531748    14A     -2.270747    15A     -2.266011
      16A     -2.265993    17A     -2.255502    18A     -2.255501
      19A     -1.163445    20A     -1.070065    21A     -1.060259
      22A     -0.971332    23A     -0.938482    24A     -0.931914
      25A     -0.849979    26A     -0.789549    27A     -0.780143
      28A     -0.680903    29A     -0.663871    30A     -0.612275
      31A     -0.585326    32A     -0.582558    33A     -0.572834
      34A     -0.570975    35A     -0.562914    36A     -0.554963
      37A     -0.524721    38A     -0.513853    39A     -0.485810
      40A     -0.484446    41A     -0.451435    42A     -0.360781
      43A     -0.358639    44A     -0.324029    45A     -0.320350

  @DF-RHF Final Energy:  -642.00618073907958

   => Energetics <=

    Nuclear Repulsion Energy =            615.0398112157877222
    One-Electron Energy =               -2204.9259165482030767
    Two-Electron Energy =                 947.8799245933357724
    Total Energy =                       -642.0061807390795821
  Basis Set: (AUG-CC-PVTZ AUX)
    Blend: AUG-CC-PVTZ-RI + DEF2-QZVPP-RI
    Molecular point group: c1

    Geometry (in Angstrom), charge = 0, multiplicity = 1:

       Center              X                  Y                   Z               Mass
    ------------   -----------------  -----------------  -----------------  -----------------
         I            2.047377879477     0.000000776004    -0.220916190630   126.904471900000
         C           -0.851603120523    -0.000004223996     0.768475809370    12.000000000000
         C           -2.800989120523    -1.225305223996    -0.033507190630    12.000000000000
         C           -2.800982120523     1.225309776004    -0.033501190630    12.000000000000
         C           -1.506888120523     1.209750776004     0.500257809370    12.000000000000
         C           -1.506892120523    -1.209753223996     0.500252809370    12.000000000000
         C           -3.432009120523     0.000002776004    -0.293025190630    12.000000000000
         C            0.559304579477    -0.000007023996     1.304915309370    12.000000000000
         C           -3.514644120523    -2.529167223996    -0.290044190630    12.000000000000
         C           -3.514644120523     2.529167776004    -0.290042190630    12.000000000000
         H           -0.991939120523     2.150836776004     0.692854809370     1.007825032230
         H           -0.991947120523    -2.150843223996     0.692844809370     1.007825032230
         H           -4.437272120523     0.000006776004    -0.714700190630     1.007825032230
         H            0.730122879477    -0.892594223996     1.930777809370     1.007825032230
         H            0.730122879477     0.892574776004     1.930785809370     1.007825032230
         H           -4.203419120523    -2.442428223996    -1.134076190630     1.007825032230
         H           -4.098577120523    -2.833380223996     0.584802809370     1.007825032230
         H           -2.805832120523    -3.330818223996    -0.511505190630     1.007825032230
         H           -4.098914120523     2.833166776004     0.584653809370     1.007825032230
         H           -2.805815120523     3.330913776004    -0.511098190630     1.007825032230
         H           -4.203112120523     2.442536776004    -1.134335190630     1.007825032230

  Basis Set: AUG-CC-PVTZ
    Blend: AUG-CC-PVTZ
  Basis Set: (AUG-CC-PVTZ AUX)
    Blend: AUG-CC-PVTZ-JKFIT + DEF2-UNIVERSAL-JKFIT
	 Reference Energy          =    -642.0061807390795821 [Eh]
	 Singles Energy            =      -0.0000000000000000 [Eh]
	 Same-Spin Energy          =      -0.4677585617016447 [Eh]
	 Opposite-Spin Energy      =      -1.4530629832154396 [Eh]
	 Correlation Energy        =      -1.9208215449170842 [Eh]
	 Total Energy              =    -643.9270022839966714 [Eh]

	 ================> DF-SCS-MP2 Energies <==================
	-----------------------------------------------------------
	 SCS Same-Spin Scale       =       0.3333333333333333 [-]
	 SCS Opposite-Spin Scale   =       1.2000000000000000 [-]
	 SCS Same-Spin Energy      =      -0.1559195205672149 [Eh]
	 SCS Opposite-Spin Energy  =      -1.7436755798585275 [Eh]
	 SCS Correlation Energy    =      -1.8995951004257423 [Eh]
	 SCS Total Energy          =    -643.9057758395052815 [Eh]
	-----------------------------------------------------------

  Dipole Moment: [D]
     X:    -1.9342      Y:    -0.0000      Z:     0.8119     Total:     2.0977

*** Psi4 exiting successfully. Buy a developer a beer!
