                               Psi4 1.4a3.dev225

  ==> Input File <==

--------------------------------------------------------------------------
#psi4
#
memory 32 gb

molecule  {
0 1
  I        2.3447600     0.0000010    -0.2524410
  C       -0.5542210    -0.0000040     0.7369510
  C       -2.5036070    -1.2253050    -0.0650320
  C       -2.5036000     1.2253100    -0.0650260
  C       -1.2095060     1.2097510     0.4687330
  C       -1.2095100    -1.2097530     0.4687280
  C       -3.1346270     0.0000030    -0.3245500
  C        0.8217770    -0.0000070     1.3091860
  C       -3.2172620    -2.5291670    -0.3215690
  C       -3.2172620     2.5291680    -0.3215670
  H       -0.7040064     2.1335680     0.6577958
  H       -0.6945650    -2.1508430     0.6613200
  H       -4.1398900     0.0000070    -0.7462250
  H        1.0275050    -0.8925940     1.8992530
  H        1.0275050     0.8925750     1.8992610
  H       -3.9060370    -2.4424280    -1.1656010
  H       -3.8011950    -2.8333800     0.5532780
  H       -2.5084500    -3.3308180    -0.5430300
  H       -3.8015320     2.8331670     0.5531290
  H       -2.5084330     3.3309140    -0.5426230
  H       -3.9057300     2.4425370    -1.1658600
units angstrom
no_reorient  #important for SAPT in psi4, default
symmetry c1  #important for SAPT in psi4, default
}

set PROPERTIES_ORIGIN ["COM"]
properties('MP2/aug-cc-pvtz', properties = ['dipole'])
--------------------------------------------------------------------------

    Molecular point group: c1
  Charge       = 0
  Multiplicity = 1
  Basis Set: AUG-CC-PVTZ
    Blend: AUG-CC-PVTZ
  Basis Set: (AUG-CC-PVTZ AUX)
    Blend: AUG-CC-PVTZ-JKFIT + DEF2-UNIVERSAL-JKFIT

    Orbital Energies [Eh]
    ---------------------

    Doubly Occupied:

       1A    -11.290368     2A    -11.253924     3A    -11.249165
       4A    -11.249039     5A    -11.233083     6A    -11.231104
       7A    -11.230863     8A    -11.228309     9A    -11.228238
      10A     -7.706208    11A     -5.537653    12A     -5.528374
      13A     -5.528363    14A     -2.266866    15A     -2.262452
      16A     -2.262428    17A     -2.252170    18A     -2.252170
      19A     -1.165261    20A     -1.073103    21A     -1.061332
      22A     -0.970033    23A     -0.938711    24A     -0.933622
      25A     -0.849207    26A     -0.791555    27A     -0.783183
      28A     -0.684372    29A     -0.666982    30A     -0.617890
      31A     -0.588820    32A     -0.585930    33A     -0.573654
      34A     -0.573241    35A     -0.565465    36A     -0.555916
      37A     -0.525929    38A     -0.511347    39A     -0.489253
      40A     -0.485784    41A     -0.444542    42A     -0.359451
      43A     -0.357230    44A     -0.324800    45A     -0.318832

  @DF-RHF Final Energy:  -642.00807729690882

   => Energetics <=

    Nuclear Repulsion Energy =            614.7416482554834829
    One-Electron Energy =               -2204.3270059142969330
    Two-Electron Energy =                 947.5772803619045135
    Total Energy =                       -642.0080772969088230
  Basis Set: (AUG-CC-PVTZ AUX)
    Blend: AUG-CC-PVTZ-RI + DEF2-QZVPP-RI
    Molecular point group: c1

    Geometry (in Angstrom), charge = 0, multiplicity = 1:

       Center              X                  Y                   Z               Mass
    ------------   -----------------  -----------------  -----------------  -----------------
         I            2.049119571370     0.000071536977    -0.222647900037   126.904471900000
         C           -0.849861428630     0.000066536977     0.766744099963    12.000000000000
         C           -2.799247428630    -1.225234463023    -0.035238900037    12.000000000000
         C           -2.799240428630     1.225380536977    -0.035232900037    12.000000000000
         C           -1.505146428630     1.209821536977     0.498526099963    12.000000000000
         C           -1.505150428630    -1.209682463023     0.498521099963    12.000000000000
         C           -3.430267428630     0.000073536977    -0.294756900037    12.000000000000
         C            0.526136571370     0.000063536977     1.338979099963    12.000000000000
         C           -3.512902428630    -2.529096463023    -0.291775900037    12.000000000000
         C           -3.512902428630     2.529238536977    -0.291773900037    12.000000000000
         H           -0.999646828630     2.133638536977     0.687588899963     1.007825032230
         H           -0.990205428630    -2.150772463023     0.691113099963     1.007825032230
         H           -4.435530428630     0.000077536977    -0.716431900037     1.007825032230
         H            0.731864571370    -0.892523463023     1.929046099963     1.007825032230
         H            0.731864571370     0.892645536977     1.929054099963     1.007825032230
         H           -4.201677428630    -2.442357463023    -1.135807900037     1.007825032230
         H           -4.096835428630    -2.833309463023     0.583071099963     1.007825032230
         H           -2.804090428630    -3.330747463023    -0.513236900037     1.007825032230
         H           -4.097172428630     2.833237536977     0.582922099963     1.007825032230
         H           -2.804073428630     3.330984536977    -0.512829900037     1.007825032230
         H           -4.201370428630     2.442607536977    -1.136066900037     1.007825032230

  Basis Set: AUG-CC-PVTZ
    Blend: AUG-CC-PVTZ
  Basis Set: (AUG-CC-PVTZ AUX)
    Blend: AUG-CC-PVTZ-JKFIT + DEF2-UNIVERSAL-JKFIT
	 Reference Energy          =    -642.0080772969088230 [Eh]
	 Singles Energy            =      -0.0000000000000000 [Eh]
	 Same-Spin Energy          =      -0.4675111774616120 [Eh]
	 Opposite-Spin Energy      =      -1.4524075058060459 [Eh]
	 Correlation Energy        =      -1.9199186832676580 [Eh]
	 Total Energy              =    -643.9279959801764335 [Eh]

	 ================> DF-SCS-MP2 Energies <==================
	-----------------------------------------------------------
	 SCS Same-Spin Scale       =       0.3333333333333333 [-]
	 SCS Opposite-Spin Scale   =       1.2000000000000000 [-]
	 SCS Same-Spin Energy      =      -0.1558370591538706 [Eh]
	 SCS Opposite-Spin Energy  =      -1.7428890069672551 [Eh]
	 SCS Correlation Energy    =      -1.8987260661211258 [Eh]
	 SCS Total Energy          =    -643.9068033630298942 [Eh]
	-----------------------------------------------------------

  Dipole Moment: [D]
     X:    -2.0960      Y:     0.0061      Z:     0.8875     Total:     2.2762

*** Psi4 exiting successfully. Buy a developer a beer!
