                               Psi4 1.4a3.dev225

  ==> Input File <==

--------------------------------------------------------------------------
#psi4
#
memory 32 gb

molecule  {
0 1
  I        2.3447600     0.0000010    -0.2524410
  C       -0.5542210    -0.0000040     0.7369510
  C       -2.5036070    -1.2253050    -0.0650320
  C       -2.5036000     1.2253100    -0.0650260
  C       -1.2095060     1.2097510     0.4687330
  C       -1.2095100    -1.2097530     0.4687280
  C       -3.1346270     0.0000030    -0.3245500
  C        0.8217770    -0.0000070     1.3091860
  C       -3.2172620    -2.5291670    -0.3215690
  C       -3.2172620     2.5291680    -0.3215670
  H       -0.6945570     2.1508370     0.6613300
  H       -0.6945650    -2.1508430     0.6613200
  H       -3.9554585     0.0000063    -0.6688620
  H        1.0275050    -0.8925940     1.8992530
  H        1.0275050     0.8925750     1.8992610
  H       -3.9060370    -2.4424280    -1.1656010
  H       -3.8011950    -2.8333800     0.5532780
  H       -2.5084500    -3.3308180    -0.5430300
  H       -3.8015320     2.8331670     0.5531290
  H       -2.5084330     3.3309140    -0.5426230
  H       -3.9057300     2.4425370    -1.1658600
units angstrom
no_reorient  #important for SAPT in psi4, default
symmetry c1  #important for SAPT in psi4, default
}

set PROPERTIES_ORIGIN ["COM"]
properties('MP2/aug-cc-pvtz', properties = ['dipole'])
--------------------------------------------------------------------------

    Molecular point group: c1
  Charge       = 0
  Multiplicity = 1
  Basis Set: AUG-CC-PVTZ
    Blend: AUG-CC-PVTZ
  Basis Set: (AUG-CC-PVTZ AUX)
    Blend: AUG-CC-PVTZ-JKFIT + DEF2-UNIVERSAL-JKFIT

    Orbital Energies [Eh]
    ---------------------

    Doubly Occupied:

       1A    -11.289922     2A    -11.253562     3A    -11.247688
       4A    -11.247682     5A    -11.231879     6A    -11.231836
       7A    -11.228443     8A    -11.228443     9A    -11.206829
      10A     -7.705865    11A     -5.537308    12A     -5.528032
      13A     -5.528022    14A     -2.266520    15A     -2.262107
      16A     -2.262084    17A     -2.251830    18A     -2.251829
      19A     -1.165971    20A     -1.076744    21A     -1.060436
      22A     -0.971167    23A     -0.949131    24A     -0.932537
      25A     -0.853432    26A     -0.791358    27A     -0.789859
      28A     -0.704767    29A     -0.666395    30A     -0.622942
      31A     -0.588381    32A     -0.586024    33A     -0.578439
      34A     -0.573595    35A     -0.563403    36A     -0.563339
      37A     -0.525759    38A     -0.513338    39A     -0.491984
      40A     -0.484287    41A     -0.443993    42A     -0.359096
      43A     -0.356861    44A     -0.323804    45A     -0.318409

  @DF-RHF Final Energy:  -641.97409129666062

   => Energetics <=

    Nuclear Repulsion Energy =            615.8522893469950077
    One-Electron Energy =               -2206.4220946973896389
    Two-Electron Energy =                 948.5957140537341274
    Total Energy =                       -641.9740912966606174
  Basis Set: (AUG-CC-PVTZ AUX)
    Blend: AUG-CC-PVTZ-RI + DEF2-QZVPP-RI
    Molecular point group: c1

    Geometry (in Angstrom), charge = 0, multiplicity = 1:

       Center              X                  Y                   Z               Mass
    ------------   -----------------  -----------------  -----------------  -----------------
         I            2.048325239936     0.000000788628    -0.222979336445   126.904471900000
         C           -0.850655760064    -0.000004211372     0.766412663555    12.000000000000
         C           -2.800041760064    -1.225305211372    -0.035570336445    12.000000000000
         C           -2.800034760064     1.225309788628    -0.035564336445    12.000000000000
         C           -1.505940760064     1.209750788628     0.498194663555    12.000000000000
         C           -1.505944760064    -1.209753211372     0.498189663555    12.000000000000
         C           -3.431061760064     0.000002788628    -0.295088336445    12.000000000000
         C            0.525342239936    -0.000007211372     1.338647663555    12.000000000000
         C           -3.513696760064    -2.529167211372    -0.292107336445    12.000000000000
         C           -3.513696760064     2.529167788628    -0.292105336445    12.000000000000
         H           -0.990991760064     2.150836788628     0.690791663555     1.007825032230
         H           -0.990999760064    -2.150843211372     0.690781663555     1.007825032230
         H           -4.251893260064     0.000006088628    -0.639400336445     1.007825032230
         H            0.731070239936    -0.892594211372     1.928714663555     1.007825032230
         H            0.731070239936     0.892574788628     1.928722663555     1.007825032230
         H           -4.202471760064    -2.442428211372    -1.136139336445     1.007825032230
         H           -4.097629760064    -2.833380211372     0.582739663555     1.007825032230
         H           -2.804884760064    -3.330818211372    -0.513568336445     1.007825032230
         H           -4.097966760064     2.833166788628     0.582590663555     1.007825032230
         H           -2.804867760064     3.330913788628    -0.513161336445     1.007825032230
         H           -4.202164760064     2.442536788628    -1.136398336445     1.007825032230

  Basis Set: AUG-CC-PVTZ
    Blend: AUG-CC-PVTZ
  Basis Set: (AUG-CC-PVTZ AUX)
    Blend: AUG-CC-PVTZ-JKFIT + DEF2-UNIVERSAL-JKFIT
	 Reference Energy          =    -641.9740912966606174 [Eh]
	 Singles Energy            =      -0.0000000000000000 [Eh]
	 Same-Spin Energy          =      -0.4672363714860075 [Eh]
	 Opposite-Spin Energy      =      -1.4518275603852484 [Eh]
	 Correlation Energy        =      -1.9190639318712559 [Eh]
	 Total Energy              =    -643.8931552285318958 [Eh]

	 ================> DF-SCS-MP2 Energies <==================
	-----------------------------------------------------------
	 SCS Same-Spin Scale       =       0.3333333333333333 [-]
	 SCS Opposite-Spin Scale   =       1.2000000000000000 [-]
	 SCS Same-Spin Energy      =      -0.1557454571620025 [Eh]
	 SCS Opposite-Spin Energy  =      -1.7421930724622980 [Eh]
	 SCS Correlation Energy    =      -1.8979385296243005 [Eh]
	 SCS Total Energy          =    -643.8720298262849155 [Eh]
	-----------------------------------------------------------

  Dipole Moment: [D]
     X:    -2.1596      Y:    -0.0000      Z:     0.8634     Total:     2.3258

*** Psi4 exiting successfully. Buy a developer a beer!
