                               Psi4 1.4a3.dev225

  ==> Input File <==

--------------------------------------------------------------------------
#psi4
#
memory 32 gb

molecule  {
0 1
  I        2.3447600     0.0000010    -0.2524410
  C       -0.5542210    -0.0000040     0.7369510
  C       -2.5036070    -1.2253050    -0.0650320
  C       -2.5036000     1.2253100    -0.0650260
  C       -1.2095060     1.2097510     0.4687330
  C       -1.2095100    -1.2097530     0.4687280
  C       -3.1346270     0.0000030    -0.3245500
  C        0.8217770    -0.0000070     1.3091860
  C       -3.2172620    -2.5291670    -0.3215690
  C       -3.2172620     2.5291680    -0.3215670
  H       -0.6945570     2.1508370     0.6613300
  H       -0.6945650    -2.1508430     0.6613200
  H       -4.1398900     0.0000070    -0.7462250
  H        1.0376349    -0.8702415     1.9283079
  H        1.0275050     0.8925750     1.8992610
  H       -3.9060370    -2.4424280    -1.1656010
  H       -3.8011950    -2.8333800     0.5532780
  H       -2.5084500    -3.3308180    -0.5430300
  H       -3.8015320     2.8331670     0.5531290
  H       -2.5084330     3.3309140    -0.5426230
  H       -3.9057300     2.4425370    -1.1658600
units angstrom
no_reorient  #important for SAPT in psi4, default
symmetry c1  #important for SAPT in psi4, default
}

set PROPERTIES_ORIGIN ["COM"]
properties('MP2/aug-cc-pvtz', properties = ['dipole'])
--------------------------------------------------------------------------

    Molecular point group: c1
  Charge       = 0
  Multiplicity = 1
  Basis Set: AUG-CC-PVTZ
    Blend: AUG-CC-PVTZ
  Basis Set: (AUG-CC-PVTZ AUX)
    Blend: AUG-CC-PVTZ-JKFIT + DEF2-UNIVERSAL-JKFIT

    Orbital Energies [Eh]
    ---------------------

    Doubly Occupied:

       1A    -11.290038     2A    -11.254289     3A    -11.249206
       4A    -11.249142     5A    -11.233309     6A    -11.233137
       7A    -11.231256     8A    -11.228284     9A    -11.228236
      10A     -7.706404    11A     -5.537862    12A     -5.528560
      13A     -5.528554    14A     -2.267075    15A     -2.262649
      16A     -2.262632    17A     -2.252347    18A     -2.252346
      19A     -1.165157    20A     -1.072854    21A     -1.061113
      22A     -0.969986    23A     -0.938586    24A     -0.932917
      25A     -0.849212    26A     -0.790784    27A     -0.783783
      28A     -0.682368    29A     -0.666150    30A     -0.618786
      31A     -0.586118    32A     -0.585878    33A     -0.573451
      34A     -0.573381    35A     -0.564065    36A     -0.555672
      37A     -0.525650    38A     -0.511562    39A     -0.489304
      40A     -0.485332    41A     -0.444953    42A     -0.359750
      43A     -0.357182    44A     -0.324834    45A     -0.319059

  @DF-RHF Final Energy:  -642.00778970951717

   => Energetics <=

    Nuclear Repulsion Energy =            614.5785949870779632
    One-Electron Energy =               -2204.0063528533446515
    Two-Electron Energy =                 947.4199681567496327
    Total Energy =                       -642.0077897095171693
  Basis Set: (AUG-CC-PVTZ AUX)
    Blend: AUG-CC-PVTZ-RI + DEF2-QZVPP-RI
    Molecular point group: c1

    Geometry (in Angstrom), charge = 0, multiplicity = 1:

       Center              X                  Y                   Z               Mass
    ------------   -----------------  -----------------  -----------------  -----------------
         I            2.049039354838    -0.000090792592    -0.222781417813   126.904471900000
         C           -0.849941645162    -0.000095792592     0.766610582187    12.000000000000
         C           -2.799327645162    -1.225396792592    -0.035372417813    12.000000000000
         C           -2.799320645162     1.225218207408    -0.035366417813    12.000000000000
         C           -1.505226645162     1.209659207408     0.498392582187    12.000000000000
         C           -1.505230645162    -1.209844792592     0.498387582187    12.000000000000
         C           -3.430347645162    -0.000088792592    -0.294890417813    12.000000000000
         C            0.526056354838    -0.000098792592     1.338845582187    12.000000000000
         C           -3.512982645162    -2.529258792592    -0.291909417813    12.000000000000
         C           -3.512982645162     2.529076207408    -0.291907417813    12.000000000000
         H           -0.990277645162     2.150745207408     0.690989582187     1.007825032230
         H           -0.990285645162    -2.150934792592     0.690979582187     1.007825032230
         H           -4.435610645162    -0.000084792592    -0.716565417813     1.007825032230
         H            0.741914254838    -0.870333292592     1.957967482187     1.007825032230
         H            0.731784354838     0.892483207408     1.928920582187     1.007825032230
         H           -4.201757645162    -2.442519792592    -1.135941417813     1.007825032230
         H           -4.096915645162    -2.833471792592     0.582937582187     1.007825032230
         H           -2.804170645162    -3.330909792592    -0.513370417813     1.007825032230
         H           -4.097252645162     2.833075207408     0.582788582187     1.007825032230
         H           -2.804153645162     3.330822207408    -0.512963417813     1.007825032230
         H           -4.201450645162     2.442445207408    -1.136200417813     1.007825032230

  Basis Set: AUG-CC-PVTZ
    Blend: AUG-CC-PVTZ
  Basis Set: (AUG-CC-PVTZ AUX)
    Blend: AUG-CC-PVTZ-JKFIT + DEF2-UNIVERSAL-JKFIT
	 Reference Energy          =    -642.0077897095171693 [Eh]
	 Singles Energy            =      -0.0000000000000000 [Eh]
	 Same-Spin Energy          =      -0.4675397605005470 [Eh]
	 Opposite-Spin Energy      =      -1.4525594953158323 [Eh]
	 Correlation Energy        =      -1.9200992558163792 [Eh]
	 Total Energy              =    -643.9278889653335227 [Eh]

	 ================> DF-SCS-MP2 Energies <==================
	-----------------------------------------------------------
	 SCS Same-Spin Scale       =       0.3333333333333333 [-]
	 SCS Opposite-Spin Scale   =       1.2000000000000000 [-]
	 SCS Same-Spin Energy      =      -0.1558465868335157 [Eh]
	 SCS Opposite-Spin Energy  =      -1.7430713943789986 [Eh]
	 SCS Correlation Energy    =      -1.8989179812125143 [Eh]
	 SCS Total Energy          =    -643.9067076907297178 [Eh]
	-----------------------------------------------------------

  Dipole Moment: [D]
     X:    -2.0895      Y:     0.0055      Z:     0.8897     Total:     2.2710

*** Psi4 exiting successfully. Buy a developer a beer!
