                               Psi4 1.4a3.dev225

  ==> Input File <==

--------------------------------------------------------------------------
#psi4
#
memory 32 gb

molecule  {
0 1
  I        2.3447600     0.0000010    -0.2524410
  C       -0.5542210    -0.0000040     0.7369510
  C       -2.5036070    -1.2253050    -0.0650320
  C       -2.5036000     1.2253100    -0.0650260
  C       -1.2095060     1.2097510     0.4687330
  C       -1.2095100    -1.2097530     0.4687280
  C       -3.1346270     0.0000030    -0.3245500
  C        0.8217770    -0.0000070     1.3091860
  C       -3.2172620    -2.5291670    -0.3215690
  C       -3.2172620     2.5291680    -0.3215670
  H       -0.6945570     2.1508370     0.6613300
  H       -0.6945650    -2.1508430     0.6613200
  H       -4.1398900     0.0000070    -0.7462250
  H        1.0275050    -0.8925940     1.8992530
  H        1.0275050     0.8925750     1.8992610
  H       -3.9060370    -2.4424280    -1.1656010
  H       -3.8011950    -2.8333800     0.5532780
  H       -2.5084500    -3.3308180    -0.5430300
  H       -3.8015320     2.8331670     0.5531290
  H       -2.5084330     3.3309140    -0.5426230
  H       -4.0317248     2.4266829    -1.3203720
units angstrom
no_reorient  #important for SAPT in psi4, default
symmetry c1  #important for SAPT in psi4, default
}

set PROPERTIES_ORIGIN ["COM"]
properties('MP2/aug-cc-pvtz', properties = ['dipole'])
--------------------------------------------------------------------------

    Molecular point group: c1
  Charge       = 0
  Multiplicity = 1
  Basis Set: AUG-CC-PVTZ
    Blend: AUG-CC-PVTZ
  Basis Set: (AUG-CC-PVTZ AUX)
    Blend: AUG-CC-PVTZ-JKFIT + DEF2-UNIVERSAL-JKFIT

    Orbital Energies [Eh]
    ---------------------

    Doubly Occupied:

       1A    -11.291000     2A    -11.255092     3A    -11.251517
       4A    -11.250808     5A    -11.249737     6A    -11.235082
       7A    -11.234193     8A    -11.231838     9A    -11.228639
      10A     -7.706683    11A     -5.538134    12A     -5.528845
      13A     -5.528834    14A     -2.267348    15A     -2.262931
      16A     -2.262906    17A     -2.252637    18A     -2.252637
      19A     -1.166075    20A     -1.073295    21A     -1.060447
      22A     -0.968447    23A     -0.937853    24A     -0.927098
      25A     -0.849404    26A     -0.790376    27A     -0.781747
      28A     -0.682924    29A     -0.666530    30A     -0.617644
      31A     -0.589016    32A     -0.583889    33A     -0.574408
      34A     -0.572927    35A     -0.564991    36A     -0.544903
      37A     -0.512548    38A     -0.509889    39A     -0.487062
      40A     -0.483345    41A     -0.444803    42A     -0.359920
      43A     -0.357699    44A     -0.325844    45A     -0.319363

  @DF-RHF Final Energy:  -641.98782521445514

   => Energetics <=

    Nuclear Repulsion Energy =            613.8375087083448989
    One-Electron Energy =               -2202.4880446401493828
    Two-Electron Energy =                 946.6627107173492277
    Total Energy =                       -641.9878252144551425
  Basis Set: (AUG-CC-PVTZ AUX)
    Blend: AUG-CC-PVTZ-RI + DEF2-QZVPP-RI
    Molecular point group: c1

    Geometry (in Angstrom), charge = 0, multiplicity = 1:

       Center              X                  Y                   Z               Mass
    ------------   -----------------  -----------------  -----------------  -----------------
         I            2.049597058708     0.000065740121    -0.222029342911   126.904471900000
         C           -0.849383941292     0.000060740121     0.767362657089    12.000000000000
         C           -2.798769941292    -1.225240259879    -0.034620342911    12.000000000000
         C           -2.798762941292     1.225374740121    -0.034614342911    12.000000000000
         C           -1.504668941292     1.209815740121     0.499144657089    12.000000000000
         C           -1.504672941292    -1.209688259879     0.499139657089    12.000000000000
         C           -3.429789941292     0.000067740121    -0.294138342911    12.000000000000
         C            0.526614058708     0.000057740121     1.339597657089    12.000000000000
         C           -3.512424941292    -2.529102259879    -0.291157342911    12.000000000000
         C           -3.512424941292     2.529232740121    -0.291155342911    12.000000000000
         H           -0.989719941292     2.150901740121     0.691741657089     1.007825032230
         H           -0.989727941292    -2.150778259879     0.691731657089     1.007825032230
         H           -4.435052941292     0.000071740121    -0.715813342911     1.007825032230
         H            0.732342058708    -0.892529259879     1.929664657089     1.007825032230
         H            0.732342058708     0.892639740121     1.929672657089     1.007825032230
         H           -4.201199941292    -2.442363259879    -1.135189342911     1.007825032230
         H           -4.096357941292    -2.833315259879     0.583689657089     1.007825032230
         H           -2.803612941292    -3.330753259879    -0.512618342911     1.007825032230
         H           -4.096694941292     2.833231740121     0.583540657089     1.007825032230
         H           -2.803595941292     3.330978740121    -0.512211342911     1.007825032230
         H           -4.326887741292     2.426747640121    -1.289960342911     1.007825032230

  Basis Set: AUG-CC-PVTZ
    Blend: AUG-CC-PVTZ
  Basis Set: (AUG-CC-PVTZ AUX)
    Blend: AUG-CC-PVTZ-JKFIT + DEF2-UNIVERSAL-JKFIT
	 Reference Energy          =    -641.9878252144551425 [Eh]
	 Singles Energy            =      -0.0000000000000000 [Eh]
	 Same-Spin Energy          =      -0.4676204215092047 [Eh]
	 Opposite-Spin Energy      =      -1.4542496551755906 [Eh]
	 Correlation Energy        =      -1.9218700766847951 [Eh]
	 Total Energy              =    -643.9096952911398830 [Eh]

	 ================> DF-SCS-MP2 Energies <==================
	-----------------------------------------------------------
	 SCS Same-Spin Scale       =       0.3333333333333333 [-]
	 SCS Opposite-Spin Scale   =       1.2000000000000000 [-]
	 SCS Same-Spin Energy      =      -0.1558734738364015 [Eh]
	 SCS Opposite-Spin Energy  =      -1.7450995862107086 [Eh]
	 SCS Correlation Energy    =      -1.9009730600471102 [Eh]
	 SCS Total Energy          =    -643.8887982745022782 [Eh]
	-----------------------------------------------------------

  Dipole Moment: [D]
     X:    -1.9896      Y:    -0.0571      Z:     0.9739     Total:     2.2159

*** Psi4 exiting successfully. Buy a developer a beer!
