                               Psi4 1.4a3.dev225

  ==> Input File <==

--------------------------------------------------------------------------
#psi4
#
memory 32 gb

molecule  {
0 1
  I        2.3447600     0.0000010    -0.2524410
  C       -0.5542210    -0.0000040     0.7369510
  C       -2.5036070    -1.2253050    -0.0650320
  C       -2.5036000     1.2253100    -0.0650260
  C       -1.2095060     1.2097510     0.4687330
  C       -1.2095100    -1.2097530     0.4687280
  C       -3.1346270     0.0000030    -0.3245500
  C        0.8217770    -0.0000070     1.3091860
  C       -3.2172620    -2.5291670    -0.3215690
  C       -3.2172620     2.5291680    -0.3215670
  H       -0.6945570     2.1508370     0.6613300
  H       -0.6945650    -2.1508430     0.6613200
  H       -4.1398900     0.0000070    -0.7462250
  H        1.0275050    -0.8925940     1.8992530
  H        1.0275050     0.8925750     1.8992610
  H       -3.9060370    -2.4424280    -1.1656010
  H       -3.8011950    -2.8333800     0.5532780
  H       -2.4435851    -3.4041788    -0.5632964
  H       -3.8015320     2.8331670     0.5531290
  H       -2.5084330     3.3309140    -0.5426230
  H       -3.9057300     2.4425370    -1.1658600
units angstrom
no_reorient  #important for SAPT in psi4, default
symmetry c1  #important for SAPT in psi4, default
}

set PROPERTIES_ORIGIN ["COM"]
properties('MP2/aug-cc-pvtz', properties = ['dipole'])
--------------------------------------------------------------------------

    Molecular point group: c1
  Charge       = 0
  Multiplicity = 1
  Basis Set: AUG-CC-PVTZ
    Blend: AUG-CC-PVTZ
  Basis Set: (AUG-CC-PVTZ AUX)
    Blend: AUG-CC-PVTZ-JKFIT + DEF2-UNIVERSAL-JKFIT

    Orbital Energies [Eh]
    ---------------------

    Doubly Occupied:

       1A    -11.290472     2A    -11.254332     3A    -11.250191
       4A    -11.249685     5A    -11.240033     6A    -11.233619
       7A    -11.233459     8A    -11.232085     9A    -11.228622
      10A     -7.706282    11A     -5.537730    12A     -5.528446
      13A     -5.528436    14A     -2.266944    15A     -2.262528
      16A     -2.262505    17A     -2.252240    18A     -2.252240
      19A     -1.165550    20A     -1.073238    21A     -1.060325
      22A     -0.969118    23A     -0.937146    24A     -0.930110
      25A     -0.849305    26A     -0.789265    27A     -0.783272
      28A     -0.682510    29A     -0.666298    30A     -0.617910
      31A     -0.588841    32A     -0.585024    33A     -0.574311
      34A     -0.571246    35A     -0.563722    36A     -0.549266
      37A     -0.520058    38A     -0.510224    39A     -0.489766
      40A     -0.484844    41A     -0.444632    42A     -0.359555
      43A     -0.357287    44A     -0.325073    45A     -0.319332

  @DF-RHF Final Energy:  -642.00139371867283

   => Energetics <=

    Nuclear Repulsion Energy =            614.2379013246638806
    One-Electron Energy =               -2203.3244288756113747
    Two-Electron Energy =                 947.0851338322746642
    Total Energy =                       -642.0013937186728299
  Basis Set: (AUG-CC-PVTZ AUX)
    Blend: AUG-CC-PVTZ-RI + DEF2-QZVPP-RI
    Molecular point group: c1

    Geometry (in Angstrom), charge = 0, multiplicity = 1:

       Center              X                  Y                   Z               Mass
    ------------   -----------------  -----------------  -----------------  -----------------
         I            2.048815105151     0.000301345482    -0.222579348094   126.904471900000
         C           -0.850165894849     0.000296345482     0.766812651906    12.000000000000
         C           -2.799551894849    -1.225004654518    -0.035170348094    12.000000000000
         C           -2.799544894849     1.225610345482    -0.035164348094    12.000000000000
         C           -1.505450894849     1.210051345482     0.498594651906    12.000000000000
         C           -1.505454894849    -1.209452654518     0.498589651906    12.000000000000
         C           -3.430571894849     0.000303345482    -0.294688348094    12.000000000000
         C            0.525832105151     0.000293345482     1.339047651906    12.000000000000
         C           -3.513206894849    -2.528866654518    -0.291707348094    12.000000000000
         C           -3.513206894849     2.529468345482    -0.291705348094    12.000000000000
         H           -0.990501894849     2.151137345482     0.691191651906     1.007825032230
         H           -0.990509894849    -2.150542654518     0.691181651906     1.007825032230
         H           -4.435834894849     0.000307345482    -0.716363348094     1.007825032230
         H            0.731560105151    -0.892293654518     1.929114651906     1.007825032230
         H            0.731560105151     0.892875345482     1.929122651906     1.007825032230
         H           -4.201981894849    -2.442127654518    -1.135739348094     1.007825032230
         H           -4.097139894849    -2.833079654518     0.583139651906     1.007825032230
         H           -2.739529994849    -3.403878454518    -0.533434748094     1.007825032230
         H           -4.097476894849     2.833467345482     0.582990651906     1.007825032230
         H           -2.804377894849     3.331214345482    -0.512761348094     1.007825032230
         H           -4.201674894849     2.442837345482    -1.135998348094     1.007825032230

  Basis Set: AUG-CC-PVTZ
    Blend: AUG-CC-PVTZ
  Basis Set: (AUG-CC-PVTZ AUX)
    Blend: AUG-CC-PVTZ-JKFIT + DEF2-UNIVERSAL-JKFIT
	 Reference Energy          =    -642.0013937186728299 [Eh]
	 Singles Energy            =      -0.0000000000000000 [Eh]
	 Same-Spin Energy          =      -0.4675947705073733 [Eh]
	 Opposite-Spin Energy      =      -1.4533308816423218 [Eh]
	 Correlation Energy        =      -1.9209256521496951 [Eh]
	 Total Energy              =    -643.9223193708224926 [Eh]

	 ================> DF-SCS-MP2 Energies <==================
	-----------------------------------------------------------
	 SCS Same-Spin Scale       =       0.3333333333333333 [-]
	 SCS Opposite-Spin Scale   =       1.2000000000000000 [-]
	 SCS Same-Spin Energy      =      -0.1558649235024578 [Eh]
	 SCS Opposite-Spin Energy  =      -1.7439970579707862 [Eh]
	 SCS Correlation Energy    =      -1.8998619814732440 [Eh]
	 SCS Total Energy          =    -643.9012557001460664 [Eh]
	-----------------------------------------------------------

  Dipole Moment: [D]
     X:    -2.1096      Y:     0.0619      Z:     0.8983     Total:     2.2937

*** Psi4 exiting successfully. Buy a developer a beer!
