                               Psi4 1.4a3.dev225

  ==> Input File <==

--------------------------------------------------------------------------
#psi4
#
memory 32 gb

molecule  {
0 1
  I        2.3447600     0.0000010    -0.2524410
  C       -0.5542210    -0.0000040     0.7369510
  C       -2.5036070    -1.2253050    -0.0650320
  C       -2.5036000     1.2253100    -0.0650260
  C       -1.2095060     1.2097510     0.4687330
  C       -1.2095100    -1.2097530     0.4687280
  C       -3.1346270     0.0000030    -0.3245500
  C        0.8217770    -0.0000070     1.3091860
  C       -3.2172620    -2.5291670    -0.3215690
  C       -3.2172620     2.5291680    -0.3215670
  H       -0.6945570     2.1508370     0.6613300
  H       -0.6945650    -2.1508430     0.6613200
  H       -4.1214469     0.0000069    -0.7384887
  H        1.0275050    -0.8925940     1.8992530
  H        1.0275050     0.8925750     1.8992610
  H       -3.9060370    -2.4424280    -1.1656010
  H       -3.8011950    -2.8333800     0.5532780
  H       -2.5084500    -3.3308180    -0.5430300
  H       -3.8015320     2.8331670     0.5531290
  H       -2.5084330     3.3309140    -0.5426230
  H       -3.9057300     2.4425370    -1.1658600
units angstrom
no_reorient  #important for SAPT in psi4, default
symmetry c1  #important for SAPT in psi4, default
}

set PROPERTIES_ORIGIN ["COM"]
properties('MP2/aug-cc-pvtz', properties = ['dipole'])
--------------------------------------------------------------------------

    Molecular point group: c1
  Charge       = 0
  Multiplicity = 1
  Basis Set: AUG-CC-PVTZ
    Blend: AUG-CC-PVTZ
  Basis Set: (AUG-CC-PVTZ AUX)
    Blend: AUG-CC-PVTZ-JKFIT + DEF2-UNIVERSAL-JKFIT

    Orbital Energies [Eh]
    ---------------------

    Doubly Occupied:

       1A    -11.290294     2A    -11.254043     3A    -11.249047
       4A    -11.249024     5A    -11.233095     6A    -11.233052
       7A    -11.228873     8A    -11.228313     9A    -11.228311
      10A     -7.706141    11A     -5.537587    12A     -5.528308
      13A     -5.528297    14A     -2.266800    15A     -2.262386
      16A     -2.262362    17A     -2.252104    18A     -2.252104
      19A     -1.165232    20A     -1.073337    21A     -1.061073
      22A     -0.970038    23A     -0.939320    24A     -0.932951
      25A     -0.849424    26A     -0.790838    27A     -0.783686
      28A     -0.684249    29A     -0.666952    30A     -0.618233
      31A     -0.588691    32A     -0.585968    33A     -0.573502
      34A     -0.573490    35A     -0.564101    36A     -0.556885
      37A     -0.525919    38A     -0.511645    39A     -0.489684
      40A     -0.485301    41A     -0.444505    42A     -0.359391
      43A     -0.357159    44A     -0.324773    45A     -0.318843

  @DF-RHF Final Energy:  -642.00807338310744

   => Energetics <=

    Nuclear Repulsion Energy =            614.7447980691988505
    One-Electron Energy =               -2204.3350838274091075
    Two-Electron Energy =                 947.5822123751028130
    Total Energy =                       -642.0080733831074440
  Basis Set: (AUG-CC-PVTZ AUX)
    Blend: AUG-CC-PVTZ-RI + DEF2-QZVPP-RI
    Molecular point group: c1

    Geometry (in Angstrom), charge = 0, multiplicity = 1:

       Center              X                  Y                   Z               Mass
    ------------   -----------------  -----------------  -----------------  -----------------
         I            2.049005295598     0.000000786170    -0.222694075357   126.904471900000
         C           -0.849975704402    -0.000004213830     0.766697924643    12.000000000000
         C           -2.799361704402    -1.225305213830    -0.035285075357    12.000000000000
         C           -2.799354704402     1.225309786170    -0.035279075357    12.000000000000
         C           -1.505260704402     1.209750786170     0.498479924643    12.000000000000
         C           -1.505264704402    -1.209753213830     0.498474924643    12.000000000000
         C           -3.430381704402     0.000002786170    -0.294803075357    12.000000000000
         C            0.526022295598    -0.000007213830     1.338932924643    12.000000000000
         C           -3.513016704402    -2.529167213830    -0.291822075357    12.000000000000
         C           -3.513016704402     2.529167786170    -0.291820075357    12.000000000000
         H           -0.990311704402     2.150836786170     0.691076924643     1.007825032230
         H           -0.990319704402    -2.150843213830     0.691066924643     1.007825032230
         H           -4.417201604402     0.000006686170    -0.708741775357     1.007825032230
         H            0.731750295598    -0.892594213830     1.928999924643     1.007825032230
         H            0.731750295598     0.892574786170     1.929007924643     1.007825032230
         H           -4.201791704402    -2.442428213830    -1.135854075357     1.007825032230
         H           -4.096949704402    -2.833380213830     0.583024924643     1.007825032230
         H           -2.804204704402    -3.330818213830    -0.513283075357     1.007825032230
         H           -4.097286704402     2.833166786170     0.582875924643     1.007825032230
         H           -2.804187704402     3.330913786170    -0.512876075357     1.007825032230
         H           -4.201484704402     2.442536786170    -1.136113075357     1.007825032230

  Basis Set: AUG-CC-PVTZ
    Blend: AUG-CC-PVTZ
  Basis Set: (AUG-CC-PVTZ AUX)
    Blend: AUG-CC-PVTZ-JKFIT + DEF2-UNIVERSAL-JKFIT
	 Reference Energy          =    -642.0080733831074440 [Eh]
	 Singles Energy            =      -0.0000000000000000 [Eh]
	 Same-Spin Energy          =      -0.4675152555185894 [Eh]
	 Opposite-Spin Energy      =      -1.4524108060206240 [Eh]
	 Correlation Energy        =      -1.9199260615392135 [Eh]
	 Total Energy              =    -643.9279994446466162 [Eh]

	 ================> DF-SCS-MP2 Energies <==================
	-----------------------------------------------------------
	 SCS Same-Spin Scale       =       0.3333333333333333 [-]
	 SCS Opposite-Spin Scale   =       1.2000000000000000 [-]
	 SCS Same-Spin Energy      =      -0.1558384185061965 [Eh]
	 SCS Opposite-Spin Energy  =      -1.7428929672247488 [Eh]
	 SCS Correlation Energy    =      -1.8987313857309454 [Eh]
	 SCS Total Energy          =    -643.9068047688383558 [Eh]
	-----------------------------------------------------------

  Dipole Moment: [D]
     X:    -2.1087      Y:    -0.0000      Z:     0.8823     Total:     2.2858

*** Psi4 exiting successfully. Buy a developer a beer!
