                               Psi4 1.4a3.dev225

  ==> Input File <==

--------------------------------------------------------------------------
#psi4
#
memory 32 gb

molecule  {
0 1
  I        2.3447600     0.0000010    -0.2524410
  C       -0.5542210    -0.0000040     0.7369510
  C       -2.5036070    -1.2253050    -0.0650320
  C       -2.5036000     1.2253100    -0.0650260
  C       -1.2095060     1.2097510     0.4687330
  C       -1.2095100    -1.2097530     0.4687280
  C       -3.1256283    -0.0174706    -0.3208491
  C        0.8217770    -0.0000070     1.3091860
  C       -3.2172620    -2.5291670    -0.3215690
  C       -3.2172620     2.5291680    -0.3215670
  H       -0.6945570     2.1508370     0.6613300
  H       -0.6945650    -2.1508430     0.6613200
  H       -4.1398900     0.0000070    -0.7462250
  H        1.0275050    -0.8925940     1.8992530
  H        1.0275050     0.8925750     1.8992610
  H       -3.9060370    -2.4424280    -1.1656010
  H       -3.8011950    -2.8333800     0.5532780
  H       -2.5084500    -3.3308180    -0.5430300
  H       -3.8015320     2.8331670     0.5531290
  H       -2.5084330     3.3309140    -0.5426230
  H       -3.9057300     2.4425370    -1.1658600
units angstrom
no_reorient  #important for SAPT in psi4, default
symmetry c1  #important for SAPT in psi4, default
}

set PROPERTIES_ORIGIN ["COM"]
properties('MP2/aug-cc-pvtz', properties = ['dipole'])
--------------------------------------------------------------------------

    Molecular point group: c1
  Charge       = 0
  Multiplicity = 1
  Basis Set: AUG-CC-PVTZ
    Blend: AUG-CC-PVTZ
  Basis Set: (AUG-CC-PVTZ AUX)
    Blend: AUG-CC-PVTZ-JKFIT + DEF2-UNIVERSAL-JKFIT

    Orbital Energies [Eh]
    ---------------------

    Doubly Occupied:

       1A    -11.290302     2A    -11.253892     3A    -11.250444
       4A    -11.246823     5A    -11.233405     6A    -11.233171
       7A    -11.231154     8A    -11.229018     9A    -11.228002
      10A     -7.706108    11A     -5.537550    12A     -5.528276
      13A     -5.528265    14A     -2.266763    15A     -2.262351
      16A     -2.262327    17A     -2.252075    18A     -2.252074
      19A     -1.166078    20A     -1.073522    21A     -1.061410
      22A     -0.970000    23A     -0.938945    24A     -0.933079
      25A     -0.848884    26A     -0.792175    27A     -0.782624
      28A     -0.681369    29A     -0.667474    30A     -0.617173
      31A     -0.588789    32A     -0.586274    33A     -0.573652
      34A     -0.573135    35A     -0.564318    36A     -0.554851
      37A     -0.526230    38A     -0.511031    39A     -0.489652
      40A     -0.485059    41A     -0.445023    42A     -0.359462
      43A     -0.357147    44A     -0.325591    45A     -0.318846

  @DF-RHF Final Energy:  -642.00752543416138

   => Energetics <=

    Nuclear Repulsion Energy =            614.8197123131823219
    One-Electron Energy =               -2204.4868872738115897
    Two-Electron Energy =                 947.6596495264680016
    Total Energy =                       -642.0075254341613800
  Basis Set: (AUG-CC-PVTZ AUX)
    Blend: AUG-CC-PVTZ-RI + DEF2-QZVPP-RI
    Molecular point group: c1

    Geometry (in Angstrom), charge = 0, multiplicity = 1:

       Center              X                  Y                   Z               Mass
    ------------   -----------------  -----------------  -----------------  -----------------
         I            2.048641879267     0.000853189246    -0.222842918325   126.904471900000
         C           -0.850339120733     0.000848189246     0.766549081675    12.000000000000
         C           -2.799725120733    -1.224452810754    -0.035433918325    12.000000000000
         C           -2.799718120733     1.226162189246    -0.035427918325    12.000000000000
         C           -1.505624120733     1.210603189246     0.498331081675    12.000000000000
         C           -1.505628120733    -1.208900810754     0.498326081675    12.000000000000
         C           -3.421746420733    -0.016618410754    -0.291251018325    12.000000000000
         C            0.525658879267     0.000845189246     1.338784081675    12.000000000000
         C           -3.513380120733    -2.528314810754    -0.291970918325    12.000000000000
         C           -3.513380120733     2.530020189246    -0.291968918325    12.000000000000
         H           -0.990675120733     2.151689189246     0.690928081675     1.007825032230
         H           -0.990683120733    -2.149990810754     0.690918081675     1.007825032230
         H           -4.436008120733     0.000859189246    -0.716626918325     1.007825032230
         H            0.731386879267    -0.891741810754     1.928851081675     1.007825032230
         H            0.731386879267     0.893427189246     1.928859081675     1.007825032230
         H           -4.202155120733    -2.441575810754    -1.136002918325     1.007825032230
         H           -4.097313120733    -2.832527810754     0.582876081675     1.007825032230
         H           -2.804568120733    -3.329965810754    -0.513431918325     1.007825032230
         H           -4.097650120733     2.834019189246     0.582727081675     1.007825032230
         H           -2.804551120733     3.331766189246    -0.513024918325     1.007825032230
         H           -4.201848120733     2.443389189246    -1.136261918325     1.007825032230

  Basis Set: AUG-CC-PVTZ
    Blend: AUG-CC-PVTZ
  Basis Set: (AUG-CC-PVTZ AUX)
    Blend: AUG-CC-PVTZ-JKFIT + DEF2-UNIVERSAL-JKFIT
	 Reference Energy          =    -642.0075254341613800 [Eh]
	 Singles Energy            =      -0.0000000000000000 [Eh]
	 Same-Spin Energy          =      -0.4675799484098323 [Eh]
	 Opposite-Spin Energy      =      -1.4525696499541381 [Eh]
	 Correlation Energy        =      -1.9201495983639703 [Eh]
	 Total Energy              =    -643.9276750325253715 [Eh]

	 ================> DF-SCS-MP2 Energies <==================
	-----------------------------------------------------------
	 SCS Same-Spin Scale       =       0.3333333333333333 [-]
	 SCS Opposite-Spin Scale   =       1.2000000000000000 [-]
	 SCS Same-Spin Energy      =      -0.1558599828032774 [Eh]
	 SCS Opposite-Spin Energy  =      -1.7430835799449655 [Eh]
	 SCS Correlation Energy    =      -1.8989435627482429 [Eh]
	 SCS Total Energy          =    -643.9064689969096662 [Eh]
	-----------------------------------------------------------

  Dipole Moment: [D]
     X:    -2.0986      Y:     0.0171      Z:     0.8870     Total:     2.2784

*** Psi4 exiting successfully. Buy a developer a beer!
