                               Psi4 1.4a3.dev225

  ==> Input File <==

--------------------------------------------------------------------------
#psi4
#
memory 32 gb

molecule  {
0 1
  I        2.3447600     0.0000010    -0.2524410
  C       -0.5542210    -0.0000040     0.7369510
  C       -2.5036070    -1.2253050    -0.0650320
  C       -2.5036000     1.2253100    -0.0650260
  C       -1.2095060     1.2097510     0.4687330
  C       -1.2095100    -1.2097530     0.4687280
  C       -3.1346270     0.0000030    -0.3245500
  C        0.8217770    -0.0000070     1.3091860
  C       -3.2172620    -2.5291670    -0.3215690
  C       -3.2172620     2.5291680    -0.3215670
  H       -0.6945570     2.1508370     0.6613300
  H       -0.6945650    -2.1508430     0.6613200
  H       -4.1398900     0.0000070    -0.7462250
  H        1.0275050    -0.8925940     1.8992530
  H        1.0275050     0.8925750     1.8992610
  H       -3.9690625    -2.4344911    -1.2428331
  H       -3.8011950    -2.8333800     0.5532780
  H       -2.5084500    -3.3308180    -0.5430300
  H       -3.8015320     2.8331670     0.5531290
  H       -2.5084330     3.3309140    -0.5426230
  H       -3.9057300     2.4425370    -1.1658600
units angstrom
no_reorient  #important for SAPT in psi4, default
symmetry c1  #important for SAPT in psi4, default
}

set PROPERTIES_ORIGIN ["COM"]
properties('MP2/aug-cc-pvtz', properties = ['dipole'])
--------------------------------------------------------------------------

    Molecular point group: c1
  Charge       = 0
  Multiplicity = 1
  Basis Set: AUG-CC-PVTZ
    Blend: AUG-CC-PVTZ
  Basis Set: (AUG-CC-PVTZ AUX)
    Blend: AUG-CC-PVTZ-JKFIT + DEF2-UNIVERSAL-JKFIT

    Orbital Energies [Eh]
    ---------------------

    Doubly Occupied:

       1A    -11.290639     2A    -11.254558     3A    -11.250183
       4A    -11.249448     5A    -11.240049     6A    -11.234063
       7A    -11.233646     8A    -11.231484     9A    -11.228443
      10A     -7.706405    11A     -5.537854    12A     -5.528570
      13A     -5.528559    14A     -2.267067    15A     -2.262652
      16A     -2.262628    17A     -2.252364    18A     -2.252364
      19A     -1.165575    20A     -1.073084    21A     -1.060526
      22A     -0.968873    23A     -0.937761    24A     -0.929729
      25A     -0.849217    26A     -0.790386    27A     -0.782315
      28A     -0.682520    29A     -0.666610    30A     -0.617440
      31A     -0.588364    32A     -0.584487    33A     -0.573686
      34A     -0.572643    35A     -0.564325    36A     -0.549214
      37A     -0.519143    38A     -0.511806    39A     -0.487587
      40A     -0.486144    41A     -0.444720    42A     -0.359651
      43A     -0.357424    44A     -0.325316    45A     -0.319111

  @DF-RHF Final Energy:  -642.00140248260982

   => Energetics <=

    Nuclear Repulsion Energy =            614.2158839695488268
    One-Electron Energy =               -2203.2773055692887283
    Two-Electron Energy =                 947.0600191171299684
    Total Energy =                       -642.0014024826098193
  Basis Set: (AUG-CC-PVTZ AUX)
    Blend: AUG-CC-PVTZ-RI + DEF2-QZVPP-RI
    Molecular point group: c1

    Geometry (in Angstrom), charge = 0, multiplicity = 1:

       Center              X                  Y                   Z               Mass
    ------------   -----------------  -----------------  -----------------  -----------------
         I            2.049339073035    -0.000031731776    -0.222345959214   126.904471900000
         C           -0.849641926965    -0.000036731776     0.767046040786    12.000000000000
         C           -2.799027926965    -1.225337731776    -0.034936959214    12.000000000000
         C           -2.799020926965     1.225277268224    -0.034930959214    12.000000000000
         C           -1.504926926965     1.209718268224     0.498828040786    12.000000000000
         C           -1.504930926965    -1.209785731776     0.498823040786    12.000000000000
         C           -3.430047926965    -0.000029731776    -0.294454959214    12.000000000000
         C            0.526356073035    -0.000039731776     1.339281040786    12.000000000000
         C           -3.512682926965    -2.529199731776    -0.291473959214    12.000000000000
         C           -3.512682926965     2.529135268224    -0.291471959214    12.000000000000
         H           -0.989977926965     2.150804268224     0.691425040786     1.007825032230
         H           -0.989985926965    -2.150875731776     0.691415040786     1.007825032230
         H           -4.435310926965    -0.000025731776    -0.716129959214     1.007825032230
         H            0.732084073035    -0.892626731776     1.929348040786     1.007825032230
         H            0.732084073035     0.892542268224     1.929356040786     1.007825032230
         H           -4.264483426965    -2.434523831776    -1.212738059214     1.007825032230
         H           -4.096615926965    -2.833412731776     0.583373040786     1.007825032230
         H           -2.803870926965    -3.330850731776    -0.512934959214     1.007825032230
         H           -4.096952926965     2.833134268224     0.583224040786     1.007825032230
         H           -2.803853926965     3.330881268224    -0.512527959214     1.007825032230
         H           -4.201150926965     2.442504268224    -1.135764959214     1.007825032230

  Basis Set: AUG-CC-PVTZ
    Blend: AUG-CC-PVTZ
  Basis Set: (AUG-CC-PVTZ AUX)
    Blend: AUG-CC-PVTZ-JKFIT + DEF2-UNIVERSAL-JKFIT
	 Reference Energy          =    -642.0014024826098193 [Eh]
	 Singles Energy            =      -0.0000000000000000 [Eh]
	 Same-Spin Energy          =      -0.4675927146044810 [Eh]
	 Opposite-Spin Energy      =      -1.4533263130229641 [Eh]
	 Correlation Energy        =      -1.9209190276274453 [Eh]
	 Total Energy              =    -643.9223215102372251 [Eh]

	 ================> DF-SCS-MP2 Energies <==================
	-----------------------------------------------------------
	 SCS Same-Spin Scale       =       0.3333333333333333 [-]
	 SCS Opposite-Spin Scale   =       1.2000000000000000 [-]
	 SCS Same-Spin Energy      =      -0.1558642382014937 [Eh]
	 SCS Opposite-Spin Energy  =      -1.7439915756275568 [Eh]
	 SCS Correlation Energy    =      -1.8998558138290504 [Eh]
	 SCS Total Energy          =    -643.9012582964388685 [Eh]
	-----------------------------------------------------------

  Dipole Moment: [D]
     X:    -2.0505      Y:     0.0256      Z:     0.9246     Total:     2.2495

*** Psi4 exiting successfully. Buy a developer a beer!
