                               Psi4 1.4a3.dev225

  ==> Input File <==

--------------------------------------------------------------------------
#psi4
#
memory 32 gb

molecule  {
0 1
  I        2.3447600     0.0000010    -0.2524410
  C       -0.5542210    -0.0000040     0.7369510
  C       -2.5036070    -1.2253050    -0.0650320
  C       -2.4907466     1.2365531    -0.0449905
  C       -1.2095060     1.2097510     0.4687330
  C       -1.2095100    -1.2097530     0.4687280
  C       -3.1346270     0.0000030    -0.3245500
  C        0.8217770    -0.0000070     1.3091860
  C       -3.2172620    -2.5291670    -0.3215690
  C       -3.2172620     2.5291680    -0.3215670
  H       -0.6945570     2.1508370     0.6613300
  H       -0.6945650    -2.1508430     0.6613200
  H       -4.1398900     0.0000070    -0.7462250
  H        1.0275050    -0.8925940     1.8992530
  H        1.0275050     0.8925750     1.8992610
  H       -3.9060370    -2.4424280    -1.1656010
  H       -3.8011950    -2.8333800     0.5532780
  H       -2.5084500    -3.3308180    -0.5430300
  H       -3.8015320     2.8331670     0.5531290
  H       -2.5084330     3.3309140    -0.5426230
  H       -3.9057300     2.4425370    -1.1658600
units angstrom
no_reorient  #important for SAPT in psi4, default
symmetry c1  #important for SAPT in psi4, default
}

set PROPERTIES_ORIGIN ["COM"]
properties('MP2/aug-cc-pvtz', properties = ['dipole'])
--------------------------------------------------------------------------

    Molecular point group: c1
  Charge       = 0
  Multiplicity = 1
  Basis Set: AUG-CC-PVTZ
    Blend: AUG-CC-PVTZ
  Basis Set: (AUG-CC-PVTZ AUX)
    Blend: AUG-CC-PVTZ-JKFIT + DEF2-UNIVERSAL-JKFIT

    Orbital Energies [Eh]
    ---------------------

    Doubly Occupied:

       1A    -11.290450     2A    -11.254341     3A    -11.249157
       4A    -11.248921     5A    -11.233507     6A    -11.232973
       7A    -11.231344     8A    -11.228323     9A    -11.228176
      10A     -7.706203    11A     -5.537648    12A     -5.528370
      13A     -5.528359    14A     -2.266861    15A     -2.262447
      16A     -2.262424    17A     -2.252167    18A     -2.252167
      19A     -1.165412    20A     -1.072079    21A     -1.062361
      22A     -0.970337    23A     -0.936738    24A     -0.934329
      25A     -0.849651    26A     -0.789309    27A     -0.784468
      28A     -0.682389    29A     -0.666886    30A     -0.618005
      31A     -0.588911    32A     -0.585970    33A     -0.573565
      34A     -0.570793    35A     -0.565739    36A     -0.555713
      37A     -0.526542    38A     -0.511955    39A     -0.491952
      40A     -0.481991    41A     -0.444262    42A     -0.359301
      43A     -0.357306    44A     -0.327404    45A     -0.316757

  @DF-RHF Final Energy:  -642.00726925683261

   => Energetics <=

    Nuclear Repulsion Energy =            614.6668489331993896
    One-Electron Energy =               -2204.1803096462776921
    Two-Electron Energy =                 947.5061914562456877
    Total Energy =                       -642.0072692568326147
  Basis Set: (AUG-CC-PVTZ AUX)
    Blend: AUG-CC-PVTZ-RI + DEF2-QZVPP-RI
    Molecular point group: c1

    Geometry (in Angstrom), charge = 0, multiplicity = 1:

       Center              X                  Y                   Z               Mass
    ------------   -----------------  -----------------  -----------------  -----------------
         I            2.048453837895    -0.000547679218    -0.223639758700   126.904471900000
         C           -0.850527162105    -0.000552679218     0.765752241300    12.000000000000
         C           -2.799913162105    -1.225853679218    -0.036230758700    12.000000000000
         C           -2.787052762105     1.236004420782    -0.016189258700    12.000000000000
         C           -1.505812162105     1.209202320782     0.497534241300    12.000000000000
         C           -1.505816162105    -1.210301679218     0.497529241300    12.000000000000
         C           -3.430933162105    -0.000545679218    -0.295748758700    12.000000000000
         C            0.525470837895    -0.000555679218     1.337987241300    12.000000000000
         C           -3.513568162105    -2.529715679218    -0.292767758700    12.000000000000
         C           -3.513568162105     2.528619320782    -0.292765758700    12.000000000000
         H           -0.990863162105     2.150288320782     0.690131241300     1.007825032230
         H           -0.990871162105    -2.151391679218     0.690121241300     1.007825032230
         H           -4.436196162105    -0.000541679218    -0.717423758700     1.007825032230
         H            0.731198837895    -0.893142679218     1.928054241300     1.007825032230
         H            0.731198837895     0.892026320782     1.928062241300     1.007825032230
         H           -4.202343162105    -2.442976679218    -1.136799758700     1.007825032230
         H           -4.097501162105    -2.833928679218     0.582079241300     1.007825032230
         H           -2.804756162105    -3.331366679218    -0.514228758700     1.007825032230
         H           -4.097838162105     2.832618320782     0.581930241300     1.007825032230
         H           -2.804739162105     3.330365320782    -0.513821758700     1.007825032230
         H           -4.202036162105     2.441988320782    -1.137058758700     1.007825032230

  Basis Set: AUG-CC-PVTZ
    Blend: AUG-CC-PVTZ
  Basis Set: (AUG-CC-PVTZ AUX)
    Blend: AUG-CC-PVTZ-JKFIT + DEF2-UNIVERSAL-JKFIT
	 Reference Energy          =    -642.0072692568326147 [Eh]
	 Singles Energy            =      -0.0000000000000000 [Eh]
	 Same-Spin Energy          =      -0.4675606281960377 [Eh]
	 Opposite-Spin Energy      =      -1.4526008250912612 [Eh]
	 Correlation Energy        =      -1.9201614532872988 [Eh]
	 Total Energy              =    -643.9274307101198929 [Eh]

	 ================> DF-SCS-MP2 Energies <==================
	-----------------------------------------------------------
	 SCS Same-Spin Scale       =       0.3333333333333333 [-]
	 SCS Opposite-Spin Scale   =       1.2000000000000000 [-]
	 SCS Same-Spin Energy      =      -0.1558535427320125 [Eh]
	 SCS Opposite-Spin Energy  =      -1.7431209901095135 [Eh]
	 SCS Correlation Energy    =      -1.8989745328415260 [Eh]
	 SCS Total Energy          =    -643.9062437896741358 [Eh]
	-----------------------------------------------------------

  Dipole Moment: [D]
     X:    -2.1089      Y:    -0.0021      Z:     0.8789     Total:     2.2847

*** Psi4 exiting successfully. Buy a developer a beer!
