                               Psi4 1.4a3.dev225

  ==> Input File <==

--------------------------------------------------------------------------
#psi4
#
memory 32 gb

molecule  {
0 1
  I        2.3447600     0.0000010    -0.2524410
  C       -0.5542210    -0.0000040     0.7369510
  C       -2.5036070    -1.2253050    -0.0650320
  C       -2.5036000     1.2253100    -0.0650260
  C       -1.2095060     1.2097510     0.4687330
  C       -1.2095100    -1.2097530     0.4687280
  C       -3.1346270     0.0000030    -0.3245500
  C        0.8217770    -0.0000070     1.3091860
  C       -3.2172620    -2.5291670    -0.3215690
  C       -3.2172620     2.5291680    -0.3215670
  H       -0.6945570     2.1508370     0.6613300
  H       -0.6945650    -2.1508430     0.6613200
  H       -4.1398900     0.0000070    -0.7462250
  H        1.0275050    -0.8925940     1.8992530
  H        1.0275050     0.8925750     1.8992610
  H       -3.9060370    -2.4424280    -1.1656010
  H       -3.8011950    -2.8333800     0.5532780
  H       -2.3787201    -3.4775397    -0.5835628
  H       -3.8015320     2.8331670     0.5531290
  H       -2.5084330     3.3309140    -0.5426230
  H       -3.9057300     2.4425370    -1.1658600
units angstrom
no_reorient  #important for SAPT in psi4, default
symmetry c1  #important for SAPT in psi4, default
}

set PROPERTIES_ORIGIN ["COM"]
properties('MP2/aug-cc-pvtz', properties = ['dipole'])
--------------------------------------------------------------------------

    Molecular point group: c1
  Charge       = 0
  Multiplicity = 1
  Basis Set: AUG-CC-PVTZ
    Blend: AUG-CC-PVTZ
  Basis Set: (AUG-CC-PVTZ AUX)
    Blend: AUG-CC-PVTZ-JKFIT + DEF2-UNIVERSAL-JKFIT

    Orbital Energies [Eh]
    ---------------------

    Doubly Occupied:

       1A    -11.290634     2A    -11.254618     3A    -11.251519
       4A    -11.250790     5A    -11.250230     6A    -11.234124
       7A    -11.233810     8A    -11.233100     9A    -11.229026
      10A     -7.706406    11A     -5.537858    12A     -5.528567
      13A     -5.528557    14A     -2.267072    15A     -2.262653
      16A     -2.262630    17A     -2.252359    18A     -2.252359
      19A     -1.166019    20A     -1.073567    21A     -1.060083
      22A     -0.968849    23A     -0.937069    24A     -0.927489
      25A     -0.849529    26A     -0.788257    27A     -0.783546
      28A     -0.682894    29A     -0.665973    30A     -0.618379
      31A     -0.589350    32A     -0.585131    33A     -0.575514
      34A     -0.570893    35A     -0.564180    36A     -0.544809
      37A     -0.515631    38A     -0.504550    39A     -0.490438
      40A     -0.482480    41A     -0.444560    42A     -0.359703
      43A     -0.357394    44A     -0.325334    45A     -0.319821

  @DF-RHF Final Energy:  -641.98779896698693

   => Energetics <=

    Nuclear Repulsion Energy =            613.8808206940105947
    One-Electron Energy =               -2202.5817273631187163
    Two-Electron Energy =                 946.7131077021210785
    Total Energy =                       -641.9877989669869294
  Basis Set: (AUG-CC-PVTZ AUX)
    Blend: AUG-CC-PVTZ-RI + DEF2-QZVPP-RI
    Molecular point group: c1

    Geometry (in Angstrom), charge = 0, multiplicity = 1:

       Center              X                  Y                   Z               Mass
    ------------   -----------------  -----------------  -----------------  -----------------
         I            2.048549352782     0.000601905615    -0.222496316508   126.904471900000
         C           -0.850431647218     0.000596905615     0.766895683492    12.000000000000
         C           -2.799817647218    -1.224704094385    -0.035087316508    12.000000000000
         C           -2.799810647218     1.225910905615    -0.035081316508    12.000000000000
         C           -1.505716647218     1.210351905615     0.498677683492    12.000000000000
         C           -1.505720647218    -1.209152094385     0.498672683492    12.000000000000
         C           -3.430837647218     0.000603905615    -0.294605316508    12.000000000000
         C            0.525566352782     0.000593905615     1.339130683492    12.000000000000
         C           -3.513472647218    -2.528566094385    -0.291624316508    12.000000000000
         C           -3.513472647218     2.529768905615    -0.291622316508    12.000000000000
         H           -0.990767647218     2.151437905615     0.691274683492     1.007825032230
         H           -0.990775647218    -2.150242094385     0.691264683492     1.007825032230
         H           -4.436100647218     0.000607905615    -0.716280316508     1.007825032230
         H            0.731294352782    -0.891993094385     1.929197683492     1.007825032230
         H            0.731294352782     0.893175905615     1.929205683492     1.007825032230
         H           -4.202247647218    -2.441827094385    -1.135656316508     1.007825032230
         H           -4.097405647218    -2.832779094385     0.583222683492     1.007825032230
         H           -2.674930747218    -3.476938794385    -0.553618116508     1.007825032230
         H           -4.097742647218     2.833767905615     0.583073683492     1.007825032230
         H           -2.804643647218     3.331514905615    -0.512678316508     1.007825032230
         H           -4.201940647218     2.443137905615    -1.135915316508     1.007825032230

  Basis Set: AUG-CC-PVTZ
    Blend: AUG-CC-PVTZ
  Basis Set: (AUG-CC-PVTZ AUX)
    Blend: AUG-CC-PVTZ-JKFIT + DEF2-UNIVERSAL-JKFIT
	 Reference Energy          =    -641.9877989669869294 [Eh]
	 Singles Energy            =      -0.0000000000000000 [Eh]
	 Same-Spin Energy          =      -0.4676252781066385 [Eh]
	 Opposite-Spin Energy      =      -1.4542608993080997 [Eh]
	 Correlation Energy        =      -1.9218861774147382 [Eh]
	 Total Energy              =    -643.9096851444016920 [Eh]

	 ================> DF-SCS-MP2 Energies <==================
	-----------------------------------------------------------
	 SCS Same-Spin Scale       =       0.3333333333333333 [-]
	 SCS Opposite-Spin Scale   =       1.2000000000000000 [-]
	 SCS Same-Spin Energy      =      -0.1558750927022128 [Eh]
	 SCS Opposite-Spin Energy  =      -1.7451130791697196 [Eh]
	 SCS Correlation Energy    =      -1.9009881718719324 [Eh]
	 SCS Total Energy          =    -643.8887871388589019 [Eh]
	-----------------------------------------------------------

  Dipole Moment: [D]
     X:    -2.1221      Y:     0.1382      Z:     0.9147     Total:     2.3149

*** Psi4 exiting successfully. Buy a developer a beer!
