                               Psi4 1.4a3.dev225

  ==> Input File <==

--------------------------------------------------------------------------
#psi4
#
memory 32 gb

molecule  {
0 1
  I        2.3447600     0.0000010    -0.2524410
  C       -0.5542210    -0.0000040     0.7369510
  C       -2.5036070    -1.2253050    -0.0650320
  C       -2.5036000     1.2253100    -0.0650260
  C       -1.2102951     1.2585967     0.4698333
  C       -1.2095100    -1.2097530     0.4687280
  C       -3.1346270     0.0000030    -0.3245500
  C        0.8217770    -0.0000070     1.3091860
  C       -3.2172620    -2.5291670    -0.3215690
  C       -3.2172620     2.5291680    -0.3215670
  H       -0.6945570     2.1508370     0.6613300
  H       -0.6945650    -2.1508430     0.6613200
  H       -4.1398900     0.0000070    -0.7462250
  H        1.0275050    -0.8925940     1.8992530
  H        1.0275050     0.8925750     1.8992610
  H       -3.9060370    -2.4424280    -1.1656010
  H       -3.8011950    -2.8333800     0.5532780
  H       -2.5084500    -3.3308180    -0.5430300
  H       -3.8015320     2.8331670     0.5531290
  H       -2.5084330     3.3309140    -0.5426230
  H       -3.9057300     2.4425370    -1.1658600
units angstrom
no_reorient  #important for SAPT in psi4, default
symmetry c1  #important for SAPT in psi4, default
}

set PROPERTIES_ORIGIN ["COM"]
properties('MP2/aug-cc-pvtz', properties = ['dipole'])
--------------------------------------------------------------------------

    Molecular point group: c1
  Charge       = 0
  Multiplicity = 1
  Basis Set: AUG-CC-PVTZ
    Blend: AUG-CC-PVTZ
  Basis Set: (AUG-CC-PVTZ AUX)
    Blend: AUG-CC-PVTZ-JKFIT + DEF2-UNIVERSAL-JKFIT

    Orbital Energies [Eh]
    ---------------------

    Doubly Occupied:

       1A    -11.290132     2A    -11.258887     3A    -11.250542
       4A    -11.249657     5A    -11.233743     6A    -11.233702
       7A    -11.231297     8A    -11.228840     9A    -11.226744
      10A     -7.706161    11A     -5.537607    12A     -5.528328
      13A     -5.528314    14A     -2.266820    15A     -2.262409
      16A     -2.262380    17A     -2.252123    18A     -2.252123
      19A     -1.161830    20A     -1.071177    21A     -1.062171
      22A     -0.967967    23A     -0.938997    24A     -0.932979
      25A     -0.849379    26A     -0.792256    27A     -0.779735
      28A     -0.687230    29A     -0.665750    30A     -0.618452
      31A     -0.588851    32A     -0.585573    33A     -0.574670
      34A     -0.572604    35A     -0.568585    36A     -0.556115
      37A     -0.524100    38A     -0.509883    39A     -0.491709
      40A     -0.481459    41A     -0.444014    42A     -0.359295
      43A     -0.357238    44A     -0.325921    45A     -0.315768

  @DF-RHF Final Energy:  -642.00425327945993

   => Energetics <=

    Nuclear Repulsion Energy =            613.8714015229621737
    One-Electron Energy =               -2202.5842759417455454
    Two-Electron Energy =                 946.7086211393235544
    Total Energy =                       -642.0042532794599310
  Basis Set: (AUG-CC-PVTZ AUX)
    Blend: AUG-CC-PVTZ-RI + DEF2-QZVPP-RI
    Molecular point group: c1

    Geometry (in Angstrom), charge = 0, multiplicity = 1:

       Center              X                  Y                   Z               Mass
    ------------   -----------------  -----------------  -----------------  -----------------
         I            2.049119351273    -0.002382022875    -0.222716054913   126.904471900000
         C           -0.849861648727    -0.002387022875     0.766675945087    12.000000000000
         C           -2.799247648727    -1.227688022875    -0.035307054913    12.000000000000
         C           -2.799240648727     1.222926977125    -0.035301054913    12.000000000000
         C           -1.505935748727     1.256213677125     0.499558245087    12.000000000000
         C           -1.505150648727    -1.212136022875     0.498452945087    12.000000000000
         C           -3.430267648727    -0.002380022875    -0.294825054913    12.000000000000
         C            0.526136351273    -0.002390022875     1.338910945087    12.000000000000
         C           -3.512902648727    -2.531550022875    -0.291844054913    12.000000000000
         C           -3.512902648727     2.526784977125    -0.291842054913    12.000000000000
         H           -0.990197648727     2.148453977125     0.691054945087     1.007825032230
         H           -0.990205648727    -2.153226022875     0.691044945087     1.007825032230
         H           -4.435530648727    -0.002376022875    -0.716500054913     1.007825032230
         H            0.731864351273    -0.894977022875     1.928977945087     1.007825032230
         H            0.731864351273     0.890191977125     1.928985945087     1.007825032230
         H           -4.201677648727    -2.444811022875    -1.135876054913     1.007825032230
         H           -4.096835648727    -2.835763022875     0.583002945087     1.007825032230
         H           -2.804090648727    -3.333201022875    -0.513305054913     1.007825032230
         H           -4.097172648727     2.830783977125     0.582853945087     1.007825032230
         H           -2.804073648727     3.328530977125    -0.512898054913     1.007825032230
         H           -4.201370648727     2.440153977125    -1.136135054913     1.007825032230

  Basis Set: AUG-CC-PVTZ
    Blend: AUG-CC-PVTZ
  Basis Set: (AUG-CC-PVTZ AUX)
    Blend: AUG-CC-PVTZ-JKFIT + DEF2-UNIVERSAL-JKFIT
	 Reference Energy          =    -642.0042532794599310 [Eh]
	 Singles Energy            =      -0.0000000000000000 [Eh]
	 Same-Spin Energy          =      -0.4675538316417946 [Eh]
	 Opposite-Spin Energy      =      -1.4528321922855452 [Eh]
	 Correlation Energy        =      -1.9203860239273398 [Eh]
	 Total Energy              =    -643.9246393033872664 [Eh]

	 ================> DF-SCS-MP2 Energies <==================
	-----------------------------------------------------------
	 SCS Same-Spin Scale       =       0.3333333333333333 [-]
	 SCS Opposite-Spin Scale   =       1.2000000000000000 [-]
	 SCS Same-Spin Energy      =      -0.1558512772139315 [Eh]
	 SCS Opposite-Spin Energy  =      -1.7433986307426541 [Eh]
	 SCS Correlation Energy    =      -1.8992499079565857 [Eh]
	 SCS Total Energy          =    -643.9035031874165043 [Eh]
	-----------------------------------------------------------

  Dipole Moment: [D]
     X:    -2.1018      Y:    -0.0193      Z:     0.8940     Total:     2.2841

*** Psi4 exiting successfully. Buy a developer a beer!
