                               Psi4 1.4a3.dev225

  ==> Input File <==

--------------------------------------------------------------------------
#psi4
#
memory 32 gb

molecule  {
0 1
  I        2.3447600     0.0000010    -0.2524410
  C       -0.5542210    -0.0000040     0.7369510
  C       -2.5036070    -1.2253050    -0.0650320
  C       -2.5036000     1.2253100    -0.0650260
  C       -1.2095060     1.2097510     0.4687330
  C       -1.2095100    -1.2097530     0.4687280
  C       -3.1346270     0.0000030    -0.3245500
  C        0.8217770    -0.0000070     1.3091860
  C       -3.2172620    -2.5291670    -0.3215690
  C       -3.2172620     2.5291680    -0.3215670
  H       -0.6945570     2.1508370     0.6613300
  H       -0.6945650    -2.1508430     0.6613200
  H       -4.1398900     0.0000070    -0.7462250
  H        1.0275050    -0.8925940     1.8992530
  H        1.0275050     0.8925750     1.8992610
  H       -3.8745243    -2.4463965    -1.1269850
  H       -3.8011950    -2.8333800     0.5532780
  H       -2.5084500    -3.3308180    -0.5430300
  H       -3.8015320     2.8331670     0.5531290
  H       -2.5084330     3.3309140    -0.5426230
  H       -3.9057300     2.4425370    -1.1658600
units angstrom
no_reorient  #important for SAPT in psi4, default
symmetry c1  #important for SAPT in psi4, default
}

set PROPERTIES_ORIGIN ["COM"]
properties('MP2/aug-cc-pvtz', properties = ['dipole'])
--------------------------------------------------------------------------

    Molecular point group: c1
  Charge       = 0
  Multiplicity = 1
  Basis Set: AUG-CC-PVTZ
    Blend: AUG-CC-PVTZ
  Basis Set: (AUG-CC-PVTZ AUX)
    Blend: AUG-CC-PVTZ-JKFIT + DEF2-UNIVERSAL-JKFIT

    Orbital Energies [Eh]
    ---------------------

    Doubly Occupied:

       1A    -11.290240     2A    -11.253958     3A    -11.249179
       4A    -11.248857     5A    -11.233086     6A    -11.232898
       7A    -11.231197     8A    -11.228250     9A    -11.222186
      10A     -7.706105    11A     -5.537550    12A     -5.528271
      13A     -5.528261    14A     -2.266763    15A     -2.262349
      16A     -2.262326    17A     -2.252068    18A     -2.252068
      19A     -1.165158    20A     -1.073294    21A     -1.061743
      22A     -0.971008    23A     -0.939990    24A     -0.934245
      25A     -0.849139    26A     -0.791582    27A     -0.783504
      28A     -0.682295    29A     -0.667423    30A     -0.618160
      31A     -0.590545    32A     -0.586475    33A     -0.574436
      34A     -0.572880    35A     -0.564517    36A     -0.558356
      37A     -0.528035    38A     -0.511215    39A     -0.489688
      40A     -0.485165    41A     -0.444531    42A     -0.359363
      43A     -0.357124    44A     -0.324748    45A     -0.318882

  @DF-RHF Final Energy:  -642.00691961574819

   => Energetics <=

    Nuclear Repulsion Energy =            614.8646647078459182
    One-Electron Energy =               -2204.5649420744352938
    Two-Electron Energy =                 947.6933577508413009
    Total Energy =                       -642.0069196157481883
  Basis Set: (AUG-CC-PVTZ AUX)
    Blend: AUG-CC-PVTZ-RI + DEF2-QZVPP-RI
    Molecular point group: c1

    Geometry (in Angstrom), charge = 0, multiplicity = 1:

       Center              X                  Y                   Z               Mass
    ------------   -----------------  -----------------  -----------------  -----------------
         I            2.048951749353     0.000017044733    -0.222820589708   126.904471900000
         C           -0.850029250647     0.000012044733     0.766571410292    12.000000000000
         C           -2.799415250647    -1.225288955267    -0.035411589708    12.000000000000
         C           -2.799408250647     1.225326044733    -0.035405589708    12.000000000000
         C           -1.505314250647     1.209767044733     0.498353410292    12.000000000000
         C           -1.505318250647    -1.209736955267     0.498348410292    12.000000000000
         C           -3.430435250647     0.000019044733    -0.294929589708    12.000000000000
         C            0.525968749353     0.000009044733     1.338806410292    12.000000000000
         C           -3.513070250647    -2.529150955267    -0.291948589708    12.000000000000
         C           -3.513070250647     2.529184044733    -0.291946589708    12.000000000000
         H           -0.990365250647     2.150853044733     0.690950410292     1.007825032230
         H           -0.990373250647    -2.150826955267     0.690940410292     1.007825032230
         H           -4.435698250647     0.000023044733    -0.716604589708     1.007825032230
         H            0.731696749353    -0.892577955267     1.928873410292     1.007825032230
         H            0.731696749353     0.892591044733     1.928881410292     1.007825032230
         H           -4.170332550647    -2.446380455267    -1.097364589708     1.007825032230
         H           -4.097003250647    -2.833363955267     0.582898410292     1.007825032230
         H           -2.804258250647    -3.330801955267    -0.513409589708     1.007825032230
         H           -4.097340250647     2.833183044733     0.582749410292     1.007825032230
         H           -2.804241250647     3.330930044733    -0.513002589708     1.007825032230
         H           -4.201538250647     2.442553044733    -1.136239589708     1.007825032230

  Basis Set: AUG-CC-PVTZ
    Blend: AUG-CC-PVTZ
  Basis Set: (AUG-CC-PVTZ AUX)
    Blend: AUG-CC-PVTZ-JKFIT + DEF2-UNIVERSAL-JKFIT
	 Reference Energy          =    -642.0069196157481883 [Eh]
	 Singles Energy            =      -0.0000000000000000 [Eh]
	 Same-Spin Energy          =      -0.4675599469938099 [Eh]
	 Opposite-Spin Energy      =      -1.4522678647179976 [Eh]
	 Correlation Energy        =      -1.9198278117118075 [Eh]
	 Total Energy              =    -643.9267474274599863 [Eh]

	 ================> DF-SCS-MP2 Energies <==================
	-----------------------------------------------------------
	 SCS Same-Spin Scale       =       0.3333333333333333 [-]
	 SCS Opposite-Spin Scale   =       1.2000000000000000 [-]
	 SCS Same-Spin Energy      =      -0.1558533156646033 [Eh]
	 SCS Opposite-Spin Energy  =      -1.7427214376615972 [Eh]
	 SCS Correlation Energy    =      -1.8985747533262005 [Eh]
	 SCS Total Energy          =    -643.9054943690744039 [Eh]
	-----------------------------------------------------------

  Dipole Moment: [D]
     X:    -2.1199      Y:    -0.0106      Z:     0.8699     Total:     2.2915

*** Psi4 exiting successfully. Buy a developer a beer!
