                               Psi4 1.4a3.dev225

  ==> Input File <==

--------------------------------------------------------------------------
#psi4
#
memory 32 gb

molecule  {
0 1
  I        2.3447600     0.0000010    -0.2524410
  C       -0.5542210    -0.0000040     0.7369510
  C       -2.5036070    -1.2253050    -0.0650320
  C       -2.5036000     1.2253100    -0.0650260
  C       -1.2557258     1.2103067     0.4496693
  C       -1.2095100    -1.2097530     0.4687280
  C       -3.1346270     0.0000030    -0.3245500
  C        0.8217770    -0.0000070     1.3091860
  C       -3.2172620    -2.5291670    -0.3215690
  C       -3.2172620     2.5291680    -0.3215670
  H       -0.6945570     2.1508370     0.6613300
  H       -0.6945650    -2.1508430     0.6613200
  H       -4.1398900     0.0000070    -0.7462250
  H        1.0275050    -0.8925940     1.8992530
  H        1.0275050     0.8925750     1.8992610
  H       -3.9060370    -2.4424280    -1.1656010
  H       -3.8011950    -2.8333800     0.5532780
  H       -2.5084500    -3.3308180    -0.5430300
  H       -3.8015320     2.8331670     0.5531290
  H       -2.5084330     3.3309140    -0.5426230
  H       -3.9057300     2.4425370    -1.1658600
units angstrom
no_reorient  #important for SAPT in psi4, default
symmetry c1  #important for SAPT in psi4, default
}

set PROPERTIES_ORIGIN ["COM"]
properties('MP2/aug-cc-pvtz', properties = ['dipole'])
--------------------------------------------------------------------------

    Molecular point group: c1
  Charge       = 0
  Multiplicity = 1
  Basis Set: AUG-CC-PVTZ
    Blend: AUG-CC-PVTZ
  Basis Set: (AUG-CC-PVTZ AUX)
    Blend: AUG-CC-PVTZ-JKFIT + DEF2-UNIVERSAL-JKFIT

    Orbital Energies [Eh]
    ---------------------

    Doubly Occupied:

       1A    -11.291735     2A    -11.256497     3A    -11.248553
       4A    -11.242691     5A    -11.234038     6A    -11.232486
       7A    -11.231428     8A    -11.228114     9A    -11.227437
      10A     -7.706771    11A     -5.538237    12A     -5.528924
      13A     -5.528911    14A     -2.267454    15A     -2.263025
      16A     -2.263002    17A     -2.252707    18A     -2.252706
      19A     -1.167293    20A     -1.072451    21A     -1.064160
      22A     -0.970250    23A     -0.938327    24A     -0.932605
      25A     -0.850712    26A     -0.789398    27A     -0.785399
      28A     -0.679763    29A     -0.668036    30A     -0.618027
      31A     -0.589246    32A     -0.586433    33A     -0.573729
      34A     -0.571706    35A     -0.563471    36A     -0.553954
      37A     -0.525393    38A     -0.511859    39A     -0.493153
      40A     -0.478755    41A     -0.446641    42A     -0.359887
      43A     -0.357767    44A     -0.330641    45A     -0.315508

  @DF-RHF Final Energy:  -642.00487527556299

   => Energetics <=

    Nuclear Repulsion Energy =            614.8582468845467019
    One-Electron Energy =               -2204.5476847261588773
    Two-Electron Energy =                 947.6845625660492942
    Total Energy =                       -642.0048752755629948
  Basis Set: (AUG-CC-PVTZ AUX)
    Blend: AUG-CC-PVTZ-RI + DEF2-QZVPP-RI
    Molecular point group: c1

    Geometry (in Angstrom), charge = 0, multiplicity = 1:

       Center              X                  Y                   Z               Mass
    ------------   -----------------  -----------------  -----------------  -----------------
         I            2.051335568140    -0.000026322599    -0.221732407360   126.904471900000
         C           -0.847645431860    -0.000031322599     0.767659592640    12.000000000000
         C           -2.797031431860    -1.225332322599    -0.034323407360    12.000000000000
         C           -2.797024431860     1.225282677401    -0.034317407360    12.000000000000
         C           -1.549150231860     1.210279377401     0.480377892640    12.000000000000
         C           -1.502934431860    -1.209780322599     0.499436592640    12.000000000000
         C           -3.428051431860    -0.000024322599    -0.293841407360    12.000000000000
         C            0.528352568140    -0.000034322599     1.339894592640    12.000000000000
         C           -3.510686431860    -2.529194322599    -0.290860407360    12.000000000000
         C           -3.510686431860     2.529140677401    -0.290858407360    12.000000000000
         H           -0.987981431860     2.150809677401     0.692038592640     1.007825032230
         H           -0.987989431860    -2.150870322599     0.692028592640     1.007825032230
         H           -4.433314431860    -0.000020322599    -0.715516407360     1.007825032230
         H            0.734080568140    -0.892621322599     1.929961592640     1.007825032230
         H            0.734080568140     0.892547677401     1.929969592640     1.007825032230
         H           -4.199461431860    -2.442455322599    -1.134892407360     1.007825032230
         H           -4.094619431860    -2.833407322599     0.583986592640     1.007825032230
         H           -2.801874431860    -3.330845322599    -0.512321407360     1.007825032230
         H           -4.094956431860     2.833139677401     0.583837592640     1.007825032230
         H           -2.801857431860     3.330886677401    -0.511914407360     1.007825032230
         H           -4.199154431860     2.442509677401    -1.135151407360     1.007825032230

  Basis Set: AUG-CC-PVTZ
    Blend: AUG-CC-PVTZ
  Basis Set: (AUG-CC-PVTZ AUX)
    Blend: AUG-CC-PVTZ-JKFIT + DEF2-UNIVERSAL-JKFIT
	 Reference Energy          =    -642.0048752755629948 [Eh]
	 Singles Energy            =      -0.0000000000000000 [Eh]
	 Same-Spin Energy          =      -0.4675977451984532 [Eh]
	 Opposite-Spin Energy      =      -1.4526828274412305 [Eh]
	 Correlation Energy        =      -1.9202805726396837 [Eh]
	 Total Energy              =    -643.9251558482027349 [Eh]

	 ================> DF-SCS-MP2 Energies <==================
	-----------------------------------------------------------
	 SCS Same-Spin Scale       =       0.3333333333333333 [-]
	 SCS Opposite-Spin Scale   =       1.2000000000000000 [-]
	 SCS Same-Spin Energy      =      -0.1558659150661511 [Eh]
	 SCS Opposite-Spin Energy  =      -1.7432193929294766 [Eh]
	 SCS Correlation Energy    =      -1.8990853079956276 [Eh]
	 SCS Total Energy          =    -643.9039605835586144 [Eh]
	-----------------------------------------------------------

  Dipole Moment: [D]
     X:    -2.0672      Y:    -0.0333      Z:     0.8871     Total:     2.2498

*** Psi4 exiting successfully. Buy a developer a beer!
