                               Psi4 1.4a3.dev225

  ==> Input File <==

--------------------------------------------------------------------------
#psi4
#
memory 32 gb

molecule  {
0 1
  I        2.3447600     0.0000010    -0.2524410
  C       -0.5542210    -0.0000040     0.7369510
  C       -2.5036070    -1.2253050    -0.0650320
  C       -2.5036000     1.2253100    -0.0650260
  C       -1.2095060     1.2097510     0.4687330
  C       -1.2095100    -1.2097530     0.4687280
  C       -3.1346270     0.0000030    -0.3245500
  C        0.8217770    -0.0000070     1.3091860
  C       -3.2172620    -2.5291670    -0.3215690
  C       -3.2172620     2.5291680    -0.3215670
  H       -0.6945570     2.1508370     0.6613300
  H       -0.6945650    -2.1508430     0.6613200
  H       -4.1398900     0.0000070    -0.7462250
  H        1.0275050    -0.8925940     1.8992530
  H        1.0275050     0.8925750     1.8992610
  H       -3.9186421    -2.4408406    -1.1810474
  H       -3.8011950    -2.8333800     0.5532780
  H       -2.5084500    -3.3308180    -0.5430300
  H       -3.8015320     2.8331670     0.5531290
  H       -2.5084330     3.3309140    -0.5426230
  H       -3.9057300     2.4425370    -1.1658600
units angstrom
no_reorient  #important for SAPT in psi4, default
symmetry c1  #important for SAPT in psi4, default
}

set PROPERTIES_ORIGIN ["COM"]
properties('MP2/aug-cc-pvtz', properties = ['dipole'])
--------------------------------------------------------------------------

    Molecular point group: c1
  Charge       = 0
  Multiplicity = 1
  Basis Set: AUG-CC-PVTZ
    Blend: AUG-CC-PVTZ
  Basis Set: (AUG-CC-PVTZ AUX)
    Blend: AUG-CC-PVTZ-JKFIT + DEF2-UNIVERSAL-JKFIT

    Orbital Energies [Eh]
    ---------------------

    Doubly Occupied:

       1A    -11.290405     2A    -11.254209     3A    -11.249420
       4A    -11.249280     5A    -11.233393     6A    -11.233304
       7A    -11.231297     8A    -11.230708     9A    -11.228326
      10A     -7.706229    11A     -5.537675    12A     -5.528394
      13A     -5.528384    14A     -2.266888    15A     -2.262473
      16A     -2.262450    17A     -2.252190    18A     -2.252189
      19A     -1.165301    20A     -1.073094    21A     -1.060988
      22A     -0.969703    23A     -0.938275    24A     -0.932384
      25A     -0.849146    26A     -0.790802    27A     -0.782936
      28A     -0.682336    29A     -0.666926    30A     -0.617610
      31A     -0.588449    32A     -0.585654    33A     -0.573306
      34A     -0.573083    35A     -0.564156    36A     -0.554419
      37A     -0.524886    38A     -0.511464    39A     -0.489014
      40A     -0.485580    41A     -0.444614    42A     -0.359481
      43A     -0.357247    44A     -0.324978    45A     -0.318968

  @DF-RHF Final Energy:  -642.00740867032232

   => Energetics <=

    Nuclear Repulsion Energy =            614.5479986586584573
    One-Electron Energy =               -2203.9467826531831633
    Two-Electron Energy =                 947.3913753242024995
    Total Energy =                       -642.0074086703223202
  Basis Set: (AUG-CC-PVTZ AUX)
    Blend: AUG-CC-PVTZ-RI + DEF2-QZVPP-RI
    Molecular point group: c1

    Geometry (in Angstrom), charge = 0, multiplicity = 1:

       Center              X                  Y                   Z               Mass
    ------------   -----------------  -----------------  -----------------  -----------------
         I            2.049132500296    -0.000005717829    -0.222599095669   126.904471900000
         C           -0.849848499704    -0.000010717829     0.766792904331    12.000000000000
         C           -2.799234499704    -1.225311717829    -0.035190095669    12.000000000000
         C           -2.799227499704     1.225303282171    -0.035184095669    12.000000000000
         C           -1.505133499704     1.209744282171     0.498574904331    12.000000000000
         C           -1.505137499704    -1.209759717829     0.498569904331    12.000000000000
         C           -3.430254499704    -0.000003717829    -0.294708095669    12.000000000000
         C            0.526149500296    -0.000013717829     1.339027904331    12.000000000000
         C           -3.512889499704    -2.529173717829    -0.291727095669    12.000000000000
         C           -3.512889499704     2.529161282171    -0.291725095669    12.000000000000
         H           -0.990184499704     2.150830282171     0.691171904331     1.007825032230
         H           -0.990192499704    -2.150849717829     0.691161904331     1.007825032230
         H           -4.435517499704     0.000000282171    -0.716383095669     1.007825032230
         H            0.731877500296    -0.892600717829     1.929094904331     1.007825032230
         H            0.731877500296     0.892568282171     1.929102904331     1.007825032230
         H           -4.214269599704    -2.440847317829    -1.151205495669     1.007825032230
         H           -4.096822499704    -2.833386717829     0.583119904331     1.007825032230
         H           -2.804077499704    -3.330824717829    -0.513188095669     1.007825032230
         H           -4.097159499704     2.833160282171     0.582970904331     1.007825032230
         H           -2.804060499704     3.330907282171    -0.512781095669     1.007825032230
         H           -4.201357499704     2.442530282171    -1.136018095669     1.007825032230

  Basis Set: AUG-CC-PVTZ
    Blend: AUG-CC-PVTZ
  Basis Set: (AUG-CC-PVTZ AUX)
    Blend: AUG-CC-PVTZ-JKFIT + DEF2-UNIVERSAL-JKFIT
	 Reference Energy          =    -642.0074086703223202 [Eh]
	 Singles Energy            =      -0.0000000000000000 [Eh]
	 Same-Spin Energy          =      -0.4675698064643197 [Eh]
	 Opposite-Spin Energy      =      -1.4526998292485875 [Eh]
	 Correlation Energy        =      -1.9202696357129072 [Eh]
	 Total Energy              =    -643.9276783060352045 [Eh]

	 ================> DF-SCS-MP2 Energies <==================
	-----------------------------------------------------------
	 SCS Same-Spin Scale       =       0.3333333333333333 [-]
	 SCS Opposite-Spin Scale   =       1.2000000000000000 [-]
	 SCS Same-Spin Energy      =      -0.1558566021547732 [Eh]
	 SCS Opposite-Spin Energy  =      -1.7432397950983050 [Eh]
	 SCS Correlation Energy    =      -1.8990963972530781 [Eh]
	 SCS Total Energy          =    -643.9065050675753810 [Eh]
	-----------------------------------------------------------

  Dipole Moment: [D]
     X:    -2.0909      Y:     0.0046      Z:     0.8925     Total:     2.2734

*** Psi4 exiting successfully. Buy a developer a beer!
