                               Psi4 1.4a3.dev225

  ==> Input File <==

--------------------------------------------------------------------------
#psi4
#
memory 32 gb

molecule  {
0 1
  I        2.3447600     0.0000010    -0.2524410
  C       -0.5542210    -0.0000040     0.7369510
  C       -2.5036070    -1.2253050    -0.0650320
  C       -2.5036000     1.2253100    -0.0650260
  C       -1.2095060     1.2097510     0.4687330
  C       -1.2095100    -1.2097530     0.4687280
  C       -3.1346270     0.0000030    -0.3245500
  C        0.8217770    -0.0000070     1.3091860
  C       -3.2172620    -2.5291670    -0.3215690
  C       -3.2172620     2.5291680    -0.3215670
  H       -0.6945570     2.1508370     0.6613300
  H       -0.6945650    -2.1508430     0.6613200
  H       -4.1398900     0.0000070    -0.7462250
  H        1.0326021    -0.8815520     1.9138725
  H        1.0275050     0.8925750     1.8992610
  H       -3.9060370    -2.4424280    -1.1656010
  H       -3.8011950    -2.8333800     0.5532780
  H       -2.5084500    -3.3308180    -0.5430300
  H       -3.8015320     2.8331670     0.5531290
  H       -2.5084330     3.3309140    -0.5426230
  H       -3.9057300     2.4425370    -1.1658600
units angstrom
no_reorient  #important for SAPT in psi4, default
symmetry c1  #important for SAPT in psi4, default
}

set PROPERTIES_ORIGIN ["COM"]
properties('MP2/aug-cc-pvtz', properties = ['dipole'])
--------------------------------------------------------------------------

    Molecular point group: c1
  Charge       = 0
  Multiplicity = 1
  Basis Set: AUG-CC-PVTZ
    Blend: AUG-CC-PVTZ
  Basis Set: (AUG-CC-PVTZ AUX)
    Blend: AUG-CC-PVTZ-JKFIT + DEF2-UNIVERSAL-JKFIT

    Orbital Energies [Eh]
    ---------------------

    Doubly Occupied:

       1A    -11.290197     2A    -11.254209     3A    -11.249230
       4A    -11.249191     5A    -11.233278     6A    -11.233183
       7A    -11.231259     8A    -11.228293     9A    -11.228268
      10A     -7.706297    11A     -5.537749    12A     -5.528458
      13A     -5.528450    14A     -2.266962    15A     -2.262542
      16A     -2.262522    17A     -2.252250    18A     -2.252249
      19A     -1.165203    20A     -1.072989    21A     -1.061140
      22A     -0.969995    23A     -0.938591    24A     -0.932964
      25A     -0.849175    26A     -0.790880    27A     -0.783439
      28A     -0.682338    29A     -0.666591    30A     -0.618247
      31A     -0.587411    32A     -0.585959    33A     -0.573473
      34A     -0.573236    35A     -0.564135    36A     -0.555692
      37A     -0.525804    38A     -0.511476    39A     -0.489274
      40A     -0.485393    41A     -0.444773    42A     -0.359596
      43A     -0.357199    44A     -0.324870    45A     -0.318999

  @DF-RHF Final Energy:  -642.00789145106853

   => Energetics <=

    Nuclear Repulsion Energy =            614.6068735882283818
    One-Electron Energy =               -2204.0626737675556797
    Two-Electron Energy =                 947.4479087282587670
    Total Energy =                       -642.0078914510685308
  Basis Set: (AUG-CC-PVTZ AUX)
    Blend: AUG-CC-PVTZ-RI + DEF2-QZVPP-RI
    Molecular point group: c1

    Geometry (in Angstrom), charge = 0, multiplicity = 1:

       Center              X                  Y                   Z               Mass
    ------------   -----------------  -----------------  -----------------  -----------------
         I            2.049059974255    -0.000044453393    -0.222722275876   126.904471900000
         C           -0.849921025745    -0.000049453393     0.766669724124    12.000000000000
         C           -2.799307025745    -1.225350453393    -0.035313275876    12.000000000000
         C           -2.799300025745     1.225264546607    -0.035307275876    12.000000000000
         C           -1.505206025745     1.209705546607     0.498451724124    12.000000000000
         C           -1.505210025745    -1.209798453393     0.498446724124    12.000000000000
         C           -3.430327025745    -0.000042453393    -0.294831275876    12.000000000000
         C            0.526076974255    -0.000052453393     1.338904724124    12.000000000000
         C           -3.512962025745    -2.529212453393    -0.291850275876    12.000000000000
         C           -3.512962025745     2.529122546607    -0.291848275876    12.000000000000
         H           -0.990257025745     2.150791546607     0.691048724124     1.007825032230
         H           -0.990265025745    -2.150888453393     0.691038724124     1.007825032230
         H           -4.435590025745    -0.000038453393    -0.716506275876     1.007825032230
         H            0.736902074255    -0.881597453393     1.943591224124     1.007825032230
         H            0.731804974255     0.892529546607     1.928979724124     1.007825032230
         H           -4.201737025745    -2.442473453393    -1.135882275876     1.007825032230
         H           -4.096895025745    -2.833425453393     0.582996724124     1.007825032230
         H           -2.804150025745    -3.330863453393    -0.513311275876     1.007825032230
         H           -4.097232025745     2.833121546607     0.582847724124     1.007825032230
         H           -2.804133025745     3.330868546607    -0.512904275876     1.007825032230
         H           -4.201430025745     2.442491546607    -1.136141275876     1.007825032230

  Basis Set: AUG-CC-PVTZ
    Blend: AUG-CC-PVTZ
  Basis Set: (AUG-CC-PVTZ AUX)
    Blend: AUG-CC-PVTZ-JKFIT + DEF2-UNIVERSAL-JKFIT
	 Reference Energy          =    -642.0078914510685308 [Eh]
	 Singles Energy            =      -0.0000000000000000 [Eh]
	 Same-Spin Energy          =      -0.4675507270368705 [Eh]
	 Opposite-Spin Energy      =      -1.4525585639844765 [Eh]
	 Correlation Energy        =      -1.9201092910213469 [Eh]
	 Total Energy              =    -643.9280007420899210 [Eh]

	 ================> DF-SCS-MP2 Energies <==================
	-----------------------------------------------------------
	 SCS Same-Spin Scale       =       0.3333333333333333 [-]
	 SCS Opposite-Spin Scale   =       1.2000000000000000 [-]
	 SCS Same-Spin Energy      =      -0.1558502423456235 [Eh]
	 SCS Opposite-Spin Energy  =      -1.7430702767813717 [Eh]
	 SCS Correlation Energy    =      -1.8989205191269951 [Eh]
	 SCS Total Energy          =    -643.9068119701955766 [Eh]
	-----------------------------------------------------------

  Dipole Moment: [D]
     X:    -2.0946      Y:     0.0026      Z:     0.8876     Total:     2.2749

*** Psi4 exiting successfully. Buy a developer a beer!
