                               Psi4 1.4a3.dev225

  ==> Input File <==

--------------------------------------------------------------------------
#psi4
#
memory 32 gb

molecule  {
0 1
  I        2.3447600     0.0000010    -0.2524410
  C       -0.5542210    -0.0000040     0.7369510
  C       -2.5036070    -1.2253050    -0.0650320
  C       -2.4535295     1.2726307     0.0145862
  C       -1.2095060     1.2097510     0.4687330
  C       -1.2095100    -1.2097530     0.4687280
  C       -3.1346270     0.0000030    -0.3245500
  C        0.8217770    -0.0000070     1.3091860
  C       -3.2172620    -2.5291670    -0.3215690
  C       -3.2172620     2.5291680    -0.3215670
  H       -0.6945570     2.1508370     0.6613300
  H       -0.6945650    -2.1508430     0.6613200
  H       -4.1398900     0.0000070    -0.7462250
  H        1.0275050    -0.8925940     1.8992530
  H        1.0275050     0.8925750     1.8992610
  H       -3.9060370    -2.4424280    -1.1656010
  H       -3.8011950    -2.8333800     0.5532780
  H       -2.5084500    -3.3308180    -0.5430300
  H       -3.8015320     2.8331670     0.5531290
  H       -2.5084330     3.3309140    -0.5426230
  H       -3.9057300     2.4425370    -1.1658600
units angstrom
no_reorient  #important for SAPT in psi4, default
symmetry c1  #important for SAPT in psi4, default
}

set PROPERTIES_ORIGIN ["COM"]
properties('MP2/aug-cc-pvtz', properties = ['dipole'])
--------------------------------------------------------------------------

    Molecular point group: c1
  Charge       = 0
  Multiplicity = 1
  Basis Set: AUG-CC-PVTZ
    Blend: AUG-CC-PVTZ
  Basis Set: (AUG-CC-PVTZ AUX)
    Blend: AUG-CC-PVTZ-JKFIT + DEF2-UNIVERSAL-JKFIT

    Orbital Energies [Eh]
    ---------------------

    Doubly Occupied:

       1A    -11.290702     2A    -11.254848     3A    -11.248418
       4A    -11.247868     5A    -11.237682     6A    -11.234625
       7A    -11.228718     8A    -11.227785     9A    -11.225500
      10A     -7.706185    11A     -5.537622    12A     -5.528360
      13A     -5.528338    14A     -2.266835    15A     -2.262428
      16A     -2.262399    17A     -2.252158    18A     -2.252158
      19A     -1.166328    20A     -1.069525    21A     -1.066249
      22A     -0.971394    23A     -0.938582    24A     -0.930925
      25A     -0.851211    26A     -0.791128    27A     -0.781397
      28A     -0.682756    29A     -0.665551    30A     -0.619211
      31A     -0.589675    32A     -0.586094    33A     -0.573831
      34A     -0.570690    35A     -0.564364    36A     -0.555509
      37A     -0.529191    38A     -0.513365    39A     -0.498149
      40A     -0.469058    41A     -0.443483    42A     -0.358950
      43A     -0.357677    44A     -0.335781    45A     -0.310284

  @DF-RHF Final Energy:  -641.99718700465121

   => Energetics <=

    Nuclear Repulsion Energy =            614.7267883921493876
    One-Electron Energy =               -2204.2819718180508062
    Two-Electron Energy =                 947.5579964212500954
    Total Energy =                       -641.9971870046512095
  Basis Set: (AUG-CC-PVTZ AUX)
    Blend: AUG-CC-PVTZ-RI + DEF2-QZVPP-RI
    Molecular point group: c1

    Geometry (in Angstrom), charge = 0, multiplicity = 1:

       Center              X                  Y                   Z               Mass
    ------------   -----------------  -----------------  -----------------  -----------------
         I            2.046638299839    -0.002307629772    -0.226546050864   126.904471900000
         C           -0.852342700161    -0.002312629772     0.762845949136    12.000000000000
         C           -2.801728700161    -1.227613629772    -0.039137050864    12.000000000000
         C           -2.751651200161     1.270322070228     0.040481149136    12.000000000000
         C           -1.507627700161     1.207442370228     0.494627949136    12.000000000000
         C           -1.507631700161    -1.212061629772     0.494622949136    12.000000000000
         C           -3.432748700161    -0.002305629772    -0.298655050864    12.000000000000
         C            0.523655299839    -0.002315629772     1.335080949136    12.000000000000
         C           -3.515383700161    -2.531475629772    -0.295674050864    12.000000000000
         C           -3.515383700161     2.526859370228    -0.295672050864    12.000000000000
         H           -0.992678700161     2.148528370228     0.687224949136     1.007825032230
         H           -0.992686700161    -2.153151629772     0.687214949136     1.007825032230
         H           -4.438011700161    -0.002301629772    -0.720330050864     1.007825032230
         H            0.729383299839    -0.894902629772     1.925147949136     1.007825032230
         H            0.729383299839     0.890266370228     1.925155949136     1.007825032230
         H           -4.204158700161    -2.444736629772    -1.139706050864     1.007825032230
         H           -4.099316700161    -2.835688629772     0.579172949136     1.007825032230
         H           -2.806571700161    -3.333126629772    -0.517135050864     1.007825032230
         H           -4.099653700161     2.830858370228     0.579023949136     1.007825032230
         H           -2.806554700161     3.328605370228    -0.516728050864     1.007825032230
         H           -4.203851700161     2.440228370228    -1.139965050864     1.007825032230

  Basis Set: AUG-CC-PVTZ
    Blend: AUG-CC-PVTZ
  Basis Set: (AUG-CC-PVTZ AUX)
    Blend: AUG-CC-PVTZ-JKFIT + DEF2-UNIVERSAL-JKFIT
	 Reference Energy          =    -641.9971870046512095 [Eh]
	 Singles Energy            =      -0.0000000000000000 [Eh]
	 Same-Spin Energy          =      -0.4674117347916401 [Eh]
	 Opposite-Spin Energy      =      -1.4531280355945597 [Eh]
	 Correlation Energy        =      -1.9205397703861999 [Eh]
	 Total Energy              =    -643.9177267750374085 [Eh]

	 ================> DF-SCS-MP2 Energies <==================
	-----------------------------------------------------------
	 SCS Same-Spin Scale       =       0.3333333333333333 [-]
	 SCS Opposite-Spin Scale   =       1.2000000000000000 [-]
	 SCS Same-Spin Energy      =      -0.1558039115972134 [Eh]
	 SCS Opposite-Spin Energy  =      -1.7437536427134717 [Eh]
	 SCS Correlation Energy    =      -1.8995575543106851 [Eh]
	 SCS Total Energy          =    -643.8967445589619274 [Eh]
	-----------------------------------------------------------

  Dipole Moment: [D]
     X:    -2.1340      Y:    -0.0067      Z:     0.8602     Total:     2.3009

*** Psi4 exiting successfully. Buy a developer a beer!
