                               Psi4 1.4a3.dev225

  ==> Input File <==

--------------------------------------------------------------------------
#psi4
#
memory 32 gb

molecule  {
0 1
  I        2.3447600     0.0000010    -0.2524410
  C       -0.5542210    -0.0000040     0.7369510
  C       -2.5036070    -1.2253050    -0.0650320
  C       -2.5036000     1.2253100    -0.0650260
  C       -1.2095060     1.2097510     0.4687330
  C       -1.2095100    -1.2097530     0.4687280
  C       -3.1346270     0.0000030    -0.3245500
  C        0.8217770    -0.0000070     1.3091860
  C       -3.2172620    -2.5291670    -0.3215690
  C       -3.2172620     2.5291680    -0.3215670
  H       -0.6945570     2.1508370     0.6613300
  H       -0.6945650    -2.1508430     0.6613200
  H       -4.1583331     0.0000071    -0.7539613
  H        1.0275050    -0.8925940     1.8992530
  H        1.0275050     0.8925750     1.8992610
  H       -3.9060370    -2.4424280    -1.1656010
  H       -3.8011950    -2.8333800     0.5532780
  H       -2.5084500    -3.3308180    -0.5430300
  H       -3.8015320     2.8331670     0.5531290
  H       -2.5084330     3.3309140    -0.5426230
  H       -3.9057300     2.4425370    -1.1658600
units angstrom
no_reorient  #important for SAPT in psi4, default
symmetry c1  #important for SAPT in psi4, default
}

set PROPERTIES_ORIGIN ["COM"]
properties('MP2/aug-cc-pvtz', properties = ['dipole'])
--------------------------------------------------------------------------

    Molecular point group: c1
  Charge       = 0
  Multiplicity = 1
  Basis Set: AUG-CC-PVTZ
    Blend: AUG-CC-PVTZ
  Basis Set: (AUG-CC-PVTZ AUX)
    Blend: AUG-CC-PVTZ-JKFIT + DEF2-UNIVERSAL-JKFIT

    Orbital Energies [Eh]
    ---------------------

    Doubly Occupied:

       1A    -11.290419     2A    -11.254228     3A    -11.249489
       4A    -11.249457     5A    -11.233627     6A    -11.233432
       7A    -11.233382     8A    -11.228293     9A    -11.228293
      10A     -7.706243    11A     -5.537689    12A     -5.528408
      13A     -5.528398    14A     -2.266903    15A     -2.262488
      16A     -2.262464    17A     -2.252204    18A     -2.252204
      19A     -1.165287    20A     -1.072949    21A     -1.061268
      22A     -0.969990    23A     -0.937938    24A     -0.933078
      25A     -0.848881    26A     -0.791129    27A     -0.782564
      28A     -0.680475    29A     -0.667145    30A     -0.617218
      31A     -0.588796    32A     -0.585993    33A     -0.573490
      34A     -0.572706    35A     -0.564304    36A     -0.554462
      37A     -0.525983    38A     -0.511114    39A     -0.488745
      40A     -0.485612    41A     -0.444678    42A     -0.359501
      43A     -0.357263    44A     -0.325046    45A     -0.319046

  @DF-RHF Final Energy:  -642.00726561970350

   => Energetics <=

    Nuclear Repulsion Energy =            614.5290866441749813
    One-Electron Energy =               -2203.9081493131247953
    Two-Electron Energy =                 947.3717970492461973
    Total Energy =                       -642.0072656197035030
  Basis Set: (AUG-CC-PVTZ AUX)
    Blend: AUG-CC-PVTZ-RI + DEF2-QZVPP-RI
    Molecular point group: c1

    Geometry (in Angstrom), charge = 0, multiplicity = 1:

       Center              X                  Y                   Z               Mass
    ------------   -----------------  -----------------  -----------------  -----------------
         I            2.049156418623     0.000000785350    -0.222630684004   126.904471900000
         C           -0.849824581377    -0.000004214650     0.766761315996    12.000000000000
         C           -2.799210581377    -1.225305214650    -0.035221684004    12.000000000000
         C           -2.799203581377     1.225309785350    -0.035215684004    12.000000000000
         C           -1.505109581377     1.209750785350     0.498543315996    12.000000000000
         C           -1.505113581377    -1.209753214650     0.498538315996    12.000000000000
         C           -3.430230581377     0.000002785350    -0.294739684004    12.000000000000
         C            0.526173418623    -0.000007214650     1.338996315996    12.000000000000
         C           -3.512865581377    -2.529167214650    -0.291758684004    12.000000000000
         C           -3.512865581377     2.529167785350    -0.291756684004    12.000000000000
         H           -0.990160581377     2.150836785350     0.691140315996     1.007825032230
         H           -0.990168581377    -2.150843214650     0.691130315996     1.007825032230
         H           -4.453936681377     0.000006885350    -0.724150984004     1.007825032230
         H            0.731901418623    -0.892594214650     1.929063315996     1.007825032230
         H            0.731901418623     0.892574785350     1.929071315996     1.007825032230
         H           -4.201640581377    -2.442428214650    -1.135790684004     1.007825032230
         H           -4.096798581377    -2.833380214650     0.583088315996     1.007825032230
         H           -2.804053581377    -3.330818214650    -0.513219684004     1.007825032230
         H           -4.097135581377     2.833166785350     0.582939315996     1.007825032230
         H           -2.804036581377     3.330913785350    -0.512812684004     1.007825032230
         H           -4.201333581377     2.442536785350    -1.136049684004     1.007825032230

  Basis Set: AUG-CC-PVTZ
    Blend: AUG-CC-PVTZ
  Basis Set: (AUG-CC-PVTZ AUX)
    Blend: AUG-CC-PVTZ-JKFIT + DEF2-UNIVERSAL-JKFIT
	 Reference Energy          =    -642.0072656197035030 [Eh]
	 Singles Energy            =      -0.0000000000000000 [Eh]
	 Same-Spin Energy          =      -0.4676184757790091 [Eh]
	 Opposite-Spin Energy      =      -1.4527320905230812 [Eh]
	 Correlation Energy        =      -1.9203505663020901 [Eh]
	 Total Energy              =    -643.9276161860055936 [Eh]

	 ================> DF-SCS-MP2 Energies <==================
	-----------------------------------------------------------
	 SCS Same-Spin Scale       =       0.3333333333333333 [-]
	 SCS Opposite-Spin Scale   =       1.2000000000000000 [-]
	 SCS Same-Spin Energy      =      -0.1558728252596697 [Eh]
	 SCS Opposite-Spin Energy  =      -1.7432785086276974 [Eh]
	 SCS Correlation Energy    =      -1.8991513338873671 [Eh]
	 SCS Total Energy          =    -643.9064169535909059 [Eh]
	-----------------------------------------------------------

  Dipole Moment: [D]
     X:    -2.0904      Y:    -0.0000      Z:     0.8889     Total:     2.2715

*** Psi4 exiting successfully. Buy a developer a beer!
