                               Psi4 1.4a3.dev225

  ==> Input File <==

--------------------------------------------------------------------------
#psi4
#
memory 32 gb

molecule  {
0 1
  I        2.3447600     0.0000010    -0.2524410
  C       -0.5542210    -0.0000040     0.7369510
  C       -2.5036070    -1.2253050    -0.0650320
  C       -2.5036000     1.2253100    -0.0650260
  C       -1.2095060     1.2097510     0.4687330
  C       -1.2480629    -1.1843057     0.4526048
  C       -3.1346270     0.0000030    -0.3245500
  C        0.8217770    -0.0000070     1.3091860
  C       -3.2172620    -2.5291670    -0.3215690
  C       -3.2172620     2.5291680    -0.3215670
  H       -0.6945570     2.1508370     0.6613300
  H       -0.6945650    -2.1508430     0.6613200
  H       -4.1398900     0.0000070    -0.7462250
  H        1.0275050    -0.8925940     1.8992530
  H        1.0275050     0.8925750     1.8992610
  H       -3.9060370    -2.4424280    -1.1656010
  H       -3.8011950    -2.8333800     0.5532780
  H       -2.5084500    -3.3308180    -0.5430300
  H       -3.8015320     2.8331670     0.5531290
  H       -2.5084330     3.3309140    -0.5426230
  H       -3.9057300     2.4425370    -1.1658600
units angstrom
no_reorient  #important for SAPT in psi4, default
symmetry c1  #important for SAPT in psi4, default
}

set PROPERTIES_ORIGIN ["COM"]
properties('MP2/aug-cc-pvtz', properties = ['dipole'])
--------------------------------------------------------------------------

    Molecular point group: c1
  Charge       = 0
  Multiplicity = 1
  Basis Set: AUG-CC-PVTZ
    Blend: AUG-CC-PVTZ
  Basis Set: (AUG-CC-PVTZ AUX)
    Blend: AUG-CC-PVTZ-JKFIT + DEF2-UNIVERSAL-JKFIT

    Orbital Energies [Eh]
    ---------------------

    Doubly Occupied:

       1A    -11.291657     2A    -11.253793     3A    -11.248050
       4A    -11.243903     5A    -11.233746     6A    -11.232589
       7A    -11.231482     8A    -11.228440     9A    -11.227912
      10A     -7.706714    11A     -5.538179    12A     -5.528867
      13A     -5.528858    14A     -2.267395    15A     -2.262966
      16A     -2.262947    17A     -2.252652    18A     -2.252651
      19A     -1.168895    20A     -1.073390    21A     -1.063337
      22A     -0.971455    23A     -0.938437    24A     -0.932532
      25A     -0.850411    26A     -0.791334    27A     -0.785038
      28A     -0.678175    29A     -0.668460    30A     -0.617910
      31A     -0.589321    32A     -0.586667    33A     -0.573847
      34A     -0.572294    35A     -0.561119    36A     -0.552964
      37A     -0.526617    38A     -0.512632    39A     -0.493425
      40A     -0.478858    41A     -0.446608    42A     -0.359888
      43A     -0.357665    44A     -0.329101    45A     -0.317738

  @DF-RHF Final Energy:  -642.00518825956897

   => Energetics <=

    Nuclear Repulsion Energy =            615.2213991426452822
    One-Electron Energy =               -2205.2713421609150828
    Two-Electron Energy =                 948.0447547587009467
    Total Energy =                       -642.0051882595689676
  Basis Set: (AUG-CC-PVTZ AUX)
    Blend: AUG-CC-PVTZ-RI + DEF2-QZVPP-RI
    Molecular point group: c1

    Geometry (in Angstrom), charge = 0, multiplicity = 1:

       Center              X                  Y                   Z               Mass
    ------------   -----------------  -----------------  -----------------  -----------------
         I            2.050961558646    -0.001240593648    -0.221875851896   126.904471900000
         C           -0.848019441354    -0.001245593648     0.767516148104    12.000000000000
         C           -2.797405441354    -1.226546593648    -0.034466851896    12.000000000000
         C           -2.797398441354     1.224068406352    -0.034460851896    12.000000000000
         C           -1.503304441354     1.208509406352     0.499298148104    12.000000000000
         C           -1.541861341354    -1.185547293648     0.483169948104    12.000000000000
         C           -3.428425441354    -0.001238593648    -0.293984851896    12.000000000000
         C            0.527978558646    -0.001248593648     1.339751148104    12.000000000000
         C           -3.511060441354    -2.530408593648    -0.291003851896    12.000000000000
         C           -3.511060441354     2.527926406352    -0.291001851896    12.000000000000
         H           -0.988355441354     2.149595406352     0.691895148104     1.007825032230
         H           -0.988363441354    -2.152084593648     0.691885148104     1.007825032230
         H           -4.433688441354    -0.001234593648    -0.715659851896     1.007825032230
         H            0.733706558646    -0.893835593648     1.929818148104     1.007825032230
         H            0.733706558646     0.891333406352     1.929826148104     1.007825032230
         H           -4.199835441354    -2.443669593648    -1.135035851896     1.007825032230
         H           -4.094993441354    -2.834621593648     0.583843148104     1.007825032230
         H           -2.802248441354    -3.332059593648    -0.512464851896     1.007825032230
         H           -4.095330441354     2.831925406352     0.583694148104     1.007825032230
         H           -2.802231441354     3.329672406352    -0.512057851896     1.007825032230
         H           -4.199528441354     2.441295406352    -1.135294851896     1.007825032230

  Basis Set: AUG-CC-PVTZ
    Blend: AUG-CC-PVTZ
  Basis Set: (AUG-CC-PVTZ AUX)
    Blend: AUG-CC-PVTZ-JKFIT + DEF2-UNIVERSAL-JKFIT
	 Reference Energy          =    -642.0051882595689676 [Eh]
	 Singles Energy            =      -0.0000000000000000 [Eh]
	 Same-Spin Energy          =      -0.4676847498239859 [Eh]
	 Opposite-Spin Energy      =      -1.4526841589119657 [Eh]
	 Correlation Energy        =      -1.9203689087359517 [Eh]
	 Total Energy              =    -643.9255571683048629 [Eh]

	 ================> DF-SCS-MP2 Energies <==================
	-----------------------------------------------------------
	 SCS Same-Spin Scale       =       0.3333333333333333 [-]
	 SCS Opposite-Spin Scale   =       1.2000000000000000 [-]
	 SCS Same-Spin Energy      =      -0.1558949166079953 [Eh]
	 SCS Opposite-Spin Energy  =      -1.7432209906943588 [Eh]
	 SCS Correlation Energy    =      -1.8991159073023540 [Eh]
	 SCS Total Energy          =    -643.9043041668712704 [Eh]
	-----------------------------------------------------------

  Dipole Moment: [D]
     X:    -2.0748      Y:     0.0232      Z:     0.8802     Total:     2.2539

*** Psi4 exiting successfully. Buy a developer a beer!
