                               Psi4 1.4a3.dev225

  ==> Input File <==

--------------------------------------------------------------------------
#psi4
#
memory 32 gb

molecule  {
0 1
  I        2.3447600     0.0000010    -0.2524410
  C       -0.5542210    -0.0000040     0.7369510
  C       -2.5036070    -1.2253050    -0.0650320
  C       -2.5036000     1.2253100    -0.0650260
  C       -1.2095060     1.2097510     0.4687330
  C       -1.2095100    -1.2097530     0.4687280
  C       -3.1346270     0.0000030    -0.3245500
  C        0.8217770    -0.0000070     1.3091860
  C       -3.2172620    -2.5291670    -0.3215690
  C       -3.2172620     2.5291680    -0.3215670
  H       -0.6945570     2.1508370     0.6613300
  H       -0.6945650    -2.1508430     0.6613200
  H       -4.1398900     0.0000070    -0.7462250
  H        1.0570938    -0.8223842     1.9841203
  H        1.0275050     0.8925750     1.8992610
  H       -3.9060370    -2.4424280    -1.1656010
  H       -3.8011950    -2.8333800     0.5532780
  H       -2.5084500    -3.3308180    -0.5430300
  H       -3.8015320     2.8331670     0.5531290
  H       -2.5084330     3.3309140    -0.5426230
  H       -3.9057300     2.4425370    -1.1658600
units angstrom
no_reorient  #important for SAPT in psi4, default
symmetry c1  #important for SAPT in psi4, default
}

set PROPERTIES_ORIGIN ["COM"]
properties('MP2/aug-cc-pvtz', properties = ['dipole'])
--------------------------------------------------------------------------

    Molecular point group: c1
  Charge       = 0
  Multiplicity = 1
  Basis Set: AUG-CC-PVTZ
    Blend: AUG-CC-PVTZ
  Basis Set: (AUG-CC-PVTZ AUX)
    Blend: AUG-CC-PVTZ-JKFIT + DEF2-UNIVERSAL-JKFIT

    Orbital Energies [Eh]
    ---------------------

    Doubly Occupied:

       1A    -11.289387     2A    -11.254618     3A    -11.249114
       4A    -11.248948     5A    -11.233437     6A    -11.232958
       7A    -11.231259     8A    -11.228252     9A    -11.228110
      10A     -7.706830    11A     -5.538314    12A     -5.528973
      13A     -5.528959    14A     -2.267527    15A     -2.263079
      16A     -2.263071    17A     -2.252732    18A     -2.252731
      19A     -1.164988    20A     -1.072367    21A     -1.061013
      22A     -0.970000    23A     -0.938580    24A     -0.932741
      25A     -0.849381    26A     -0.790440    27A     -0.785200
      28A     -0.682513    29A     -0.664517    30A     -0.621019
      31A     -0.585894    32A     -0.580520    33A     -0.573778
      34A     -0.573366    35A     -0.563723    36A     -0.555594
      37A     -0.524926    38A     -0.511870    39A     -0.489429
      40A     -0.485069    41A     -0.445642    42A     -0.360371
      43A     -0.357053    44A     -0.324693    45A     -0.319301

  @DF-RHF Final Energy:  -642.00668292926832

   => Energetics <=

    Nuclear Repulsion Energy =            614.4718243097734103
    One-Electron Energy =               -2203.7924428700553108
    Two-Electron Energy =                 947.3139356310135781
    Total Energy =                       -642.0066829292683224
  Basis Set: (AUG-CC-PVTZ AUX)
    Blend: AUG-CC-PVTZ-RI + DEF2-QZVPP-RI
    Molecular point group: c1

    Geometry (in Angstrom), charge = 0, multiplicity = 1:

       Center              X                  Y                   Z               Mass
    ------------   -----------------  -----------------  -----------------  -----------------
         I            2.048959631585    -0.000286864293    -0.223010081615   126.904471900000
         C           -0.850021368415    -0.000291864293     0.766381918385    12.000000000000
         C           -2.799407368415    -1.225592864293    -0.035601081615    12.000000000000
         C           -2.799400368415     1.225022135707    -0.035595081615    12.000000000000
         C           -1.505306368415     1.209463135707     0.498163918385    12.000000000000
         C           -1.505310368415    -1.210040864293     0.498158918385    12.000000000000
         C           -3.430427368415    -0.000284864293    -0.295119081615    12.000000000000
         C            0.525976631585    -0.000294864293     1.338616918385    12.000000000000
         C           -3.513062368415    -2.529454864293    -0.292138081615    12.000000000000
         C           -3.513062368415     2.528880135707    -0.292136081615    12.000000000000
         H           -0.990357368415     2.150549135707     0.690760918385     1.007825032230
         H           -0.990365368415    -2.151130864293     0.690750918385     1.007825032230
         H           -4.435690368415    -0.000280864293    -0.716794081615     1.007825032230
         H            0.761293431585    -0.822672064293     2.013551218385     1.007825032230
         H            0.731704631585     0.892287135707     1.928691918385     1.007825032230
         H           -4.201837368415    -2.442715864293    -1.136170081615     1.007825032230
         H           -4.096995368415    -2.833667864293     0.582708918385     1.007825032230
         H           -2.804250368415    -3.331105864293    -0.513599081615     1.007825032230
         H           -4.097332368415     2.832879135707     0.582559918385     1.007825032230
         H           -2.804233368415     3.330626135707    -0.513192081615     1.007825032230
         H           -4.201530368415     2.442249135707    -1.136429081615     1.007825032230

  Basis Set: AUG-CC-PVTZ
    Blend: AUG-CC-PVTZ
  Basis Set: (AUG-CC-PVTZ AUX)
    Blend: AUG-CC-PVTZ-JKFIT + DEF2-UNIVERSAL-JKFIT
	 Reference Energy          =    -642.0066829292683224 [Eh]
	 Singles Energy            =      -0.0000000000000000 [Eh]
	 Same-Spin Energy          =      -0.4675337957285580 [Eh]
	 Opposite-Spin Energy      =      -1.4526233421017434 [Eh]
	 Correlation Energy        =      -1.9201571378303015 [Eh]
	 Total Energy              =    -643.9268400670986239 [Eh]

	 ================> DF-SCS-MP2 Energies <==================
	-----------------------------------------------------------
	 SCS Same-Spin Scale       =       0.3333333333333333 [-]
	 SCS Opposite-Spin Scale   =       1.2000000000000000 [-]
	 SCS Same-Spin Energy      =      -0.1558445985761860 [Eh]
	 SCS Opposite-Spin Energy  =      -1.7431480105220920 [Eh]
	 SCS Correlation Energy    =      -1.8989926090982781 [Eh]
	 SCS Total Energy          =    -643.9056755383666086 [Eh]
	-----------------------------------------------------------

  Dipole Moment: [D]
     X:    -2.0700      Y:     0.0196      Z:     0.8977     Total:     2.2564

*** Psi4 exiting successfully. Buy a developer a beer!
