                               Psi4 1.4a3.dev225

  ==> Input File <==

--------------------------------------------------------------------------
#psi4
#
memory 32 gb

molecule  {
0 1
  I        2.3447600     0.0000010    -0.2524410
  C       -0.5542210    -0.0000040     0.7369510
  C       -2.5036070    -1.2253050    -0.0650320
  C       -2.5036000     1.2253100    -0.0650260
  C       -1.2095060     1.2097510     0.4687330
  C       -1.2095100    -1.2097530     0.4687280
  C       -3.1346270     0.0000030    -0.3245500
  C        0.8217770    -0.0000070     1.3091860
  C       -3.2172620    -2.5291670    -0.3215690
  C       -3.2645755     2.6156097    -0.3385749
  H       -0.6945570     2.1508370     0.6613300
  H       -0.6945650    -2.1508430     0.6613200
  H       -4.1398900     0.0000070    -0.7462250
  H        1.0275050    -0.8925940     1.8992530
  H        1.0275050     0.8925750     1.8992610
  H       -3.9060370    -2.4424280    -1.1656010
  H       -3.8011950    -2.8333800     0.5532780
  H       -2.5084500    -3.3308180    -0.5430300
  H       -3.8015320     2.8331670     0.5531290
  H       -2.5084330     3.3309140    -0.5426230
  H       -3.9057300     2.4425370    -1.1658600
units angstrom
no_reorient  #important for SAPT in psi4, default
symmetry c1  #important for SAPT in psi4, default
}

set PROPERTIES_ORIGIN ["COM"]
properties('MP2/aug-cc-pvtz', properties = ['dipole'])
--------------------------------------------------------------------------

    Molecular point group: c1
  Charge       = 0
  Multiplicity = 1
  Basis Set: AUG-CC-PVTZ
    Blend: AUG-CC-PVTZ
  Basis Set: (AUG-CC-PVTZ AUX)
    Blend: AUG-CC-PVTZ-JKFIT + DEF2-UNIVERSAL-JKFIT

    Orbital Energies [Eh]
    ---------------------

    Doubly Occupied:

       1A    -11.290164     2A    -11.253835     3A    -11.252757
       4A    -11.248955     5A    -11.233168     6A    -11.232936
       7A    -11.231204     8A    -11.228089     9A    -11.226803
      10A     -7.706006    11A     -5.537448    12A     -5.528175
      13A     -5.528164    14A     -2.266661    15A     -2.262250
      16A     -2.262225    17A     -2.251973    18A     -2.251973
      19A     -1.163038    20A     -1.071415    21A     -1.053365
      22A     -0.969300    23A     -0.940166    24A     -0.933870
      25A     -0.848765    26A     -0.790800    27A     -0.782223
      28A     -0.681791    29A     -0.665399    30A     -0.612461
      31A     -0.593042    32A     -0.590011    33A     -0.577747
      34A     -0.571712    35A     -0.564092    36A     -0.554861
      37A     -0.532194    38A     -0.512438    39A     -0.489828
      40A     -0.470308    41A     -0.445681    42A     -0.359318
      43A     -0.357074    44A     -0.325868    45A     -0.318831

  @DF-RHF Final Energy:  -642.00057410846944

   => Energetics <=

    Nuclear Repulsion Energy =            612.8621239699385796
    One-Electron Energy =               -2200.5886277761937890
    Two-Electron Energy =                 945.7259296977856593
    Total Energy =                       -642.0005741084694364
  Basis Set: (AUG-CC-PVTZ AUX)
    Blend: AUG-CC-PVTZ-RI + DEF2-QZVPP-RI
    Molecular point group: c1

    Geometry (in Angstrom), charge = 0, multiplicity = 1:

       Center              X                  Y                   Z               Mass
    ------------   -----------------  -----------------  -----------------  -----------------
         I            2.051388921410    -0.004216044568    -0.221832694140   126.904471900000
         C           -0.847592078590    -0.004221044568     0.767559305860    12.000000000000
         C           -2.796978078590    -1.229522044568    -0.034423694140    12.000000000000
         C           -2.796971078590     1.221092955432    -0.034417694140    12.000000000000
         C           -1.502877078590     1.205533955432     0.499341305860    12.000000000000
         C           -1.502881078590    -1.213970044568     0.499336305860    12.000000000000
         C           -3.427998078590    -0.004214044568    -0.293941694140    12.000000000000
         C            0.528405921410    -0.004224044568     1.339794305860    12.000000000000
         C           -3.510633078590    -2.533384044568    -0.290960694140    12.000000000000
         C           -3.557946578590     2.611392655432    -0.307966594140    12.000000000000
         H           -0.987928078590     2.146619955432     0.691938305860     1.007825032230
         H           -0.987936078590    -2.155060044568     0.691928305860     1.007825032230
         H           -4.433261078590    -0.004210044568    -0.715616694140     1.007825032230
         H            0.734133921410    -0.896811044568     1.929861305860     1.007825032230
         H            0.734133921410     0.888357955432     1.929869305860     1.007825032230
         H           -4.199408078590    -2.446645044568    -1.134992694140     1.007825032230
         H           -4.094566078590    -2.837597044568     0.583886305860     1.007825032230
         H           -2.801821078590    -3.335035044568    -0.512421694140     1.007825032230
         H           -4.094903078590     2.828949955432     0.583737305860     1.007825032230
         H           -2.801804078590     3.326696955432    -0.512014694140     1.007825032230
         H           -4.199101078590     2.438319955432    -1.135251694140     1.007825032230

  Basis Set: AUG-CC-PVTZ
    Blend: AUG-CC-PVTZ
  Basis Set: (AUG-CC-PVTZ AUX)
    Blend: AUG-CC-PVTZ-JKFIT + DEF2-UNIVERSAL-JKFIT
	 Reference Energy          =    -642.0005741084694364 [Eh]
	 Singles Energy            =      -0.0000000000000000 [Eh]
	 Same-Spin Energy          =      -0.4671308184841801 [Eh]
	 Opposite-Spin Energy      =      -1.4525046971381359 [Eh]
	 Correlation Energy        =      -1.9196355156223159 [Eh]
	 Total Energy              =    -643.9202096240917399 [Eh]

	 ================> DF-SCS-MP2 Energies <==================
	-----------------------------------------------------------
	 SCS Same-Spin Scale       =       0.3333333333333333 [-]
	 SCS Opposite-Spin Scale   =       1.2000000000000000 [-]
	 SCS Same-Spin Energy      =      -0.1557102728280600 [Eh]
	 SCS Opposite-Spin Energy  =      -1.7430056365657631 [Eh]
	 SCS Correlation Energy    =      -1.8987159093938231 [Eh]
	 SCS Total Energy          =    -643.8992900178632226 [Eh]
	-----------------------------------------------------------

  Dipole Moment: [D]
     X:    -2.0916      Y:    -0.0172      Z:     0.8868     Total:     2.2719

*** Psi4 exiting successfully. Buy a developer a beer!
