                               Psi4 1.4a3.dev225

  ==> Input File <==

--------------------------------------------------------------------------
#psi4
#
memory 32 gb

molecule  {
0 1
  I        2.3447600     0.0000010    -0.2524410
  C       -0.5542210    -0.0000040     0.7369510
  C       -2.5036070    -1.2253050    -0.0650320
  C       -2.5036000     1.2253100    -0.0650260
  C       -1.2095060     1.2097510     0.4687330
  C       -1.2095100    -1.2097530     0.4687280
  C       -3.1346270     0.0000030    -0.3245500
  C        0.8217770    -0.0000070     1.3091860
  C       -3.2172620    -2.5291670    -0.3215690
  C       -3.2172620     2.5291680    -0.3215670
  H       -0.6945570     2.1508370     0.6613300
  H       -0.6945650    -2.1508430     0.6613200
  H       -4.1398900     0.0000070    -0.7462250
  H        1.0275050    -0.8925940     1.8992530
  H        1.0275050     0.8925750     1.8992610
  H       -3.9060370    -2.4424280    -1.1656010
  H       -3.7745298    -2.8194882     0.5133282
  H       -2.5084500    -3.3308180    -0.5430300
  H       -3.8015320     2.8331670     0.5531290
  H       -2.5084330     3.3309140    -0.5426230
  H       -3.9057300     2.4425370    -1.1658600
units angstrom
no_reorient  #important for SAPT in psi4, default
symmetry c1  #important for SAPT in psi4, default
}

set PROPERTIES_ORIGIN ["COM"]
properties('MP2/aug-cc-pvtz', properties = ['dipole'])
--------------------------------------------------------------------------

    Molecular point group: c1
  Charge       = 0
  Multiplicity = 1
  Basis Set: AUG-CC-PVTZ
    Blend: AUG-CC-PVTZ
  Basis Set: (AUG-CC-PVTZ AUX)
    Blend: AUG-CC-PVTZ-JKFIT + DEF2-UNIVERSAL-JKFIT

    Orbital Energies [Eh]
    ---------------------

    Doubly Occupied:

       1A    -11.290271     2A    -11.254010     3A    -11.249131
       4A    -11.248926     5A    -11.233082     6A    -11.233029
       7A    -11.231070     8A    -11.228218     9A    -11.222208
      10A     -7.706115    11A     -5.537561    12A     -5.528281
      13A     -5.528271    14A     -2.266774    15A     -2.262360
      16A     -2.262336    17A     -2.252078    18A     -2.252077
      19A     -1.165169    20A     -1.073248    21A     -1.061807
      22A     -0.970925    23A     -0.940239    24A     -0.934068
      25A     -0.849083    26A     -0.791806    27A     -0.783211
      28A     -0.682370    29A     -0.666861    30A     -0.617959
      31A     -0.591065    32A     -0.588516    33A     -0.577472
      34A     -0.572905    35A     -0.563985    36A     -0.555396
      37A     -0.525676    38A     -0.511978    39A     -0.489105
      40A     -0.485327    41A     -0.444907    42A     -0.359381
      43A     -0.357142    44A     -0.325026    45A     -0.318886

  @DF-RHF Final Energy:  -642.00690695374306

   => Energetics <=

    Nuclear Repulsion Energy =            614.8682229487976656
    One-Electron Energy =               -2204.5716325094572312
    Two-Electron Energy =                 947.6965026069165106
    Total Energy =                       -642.0069069537430551
  Basis Set: (AUG-CC-PVTZ AUX)
    Blend: AUG-CC-PVTZ-RI + DEF2-QZVPP-RI
    Molecular point group: c1

    Geometry (in Angstrom), charge = 0, multiplicity = 1:

       Center              X                  Y                   Z               Mass
    ------------   -----------------  -----------------  -----------------  -----------------
         I            2.048971609595    -0.000056129044    -0.222498705064   126.904471900000
         C           -0.850009390405    -0.000061129044     0.766893294936    12.000000000000
         C           -2.799395390405    -1.225362129044    -0.035089705064    12.000000000000
         C           -2.799388390405     1.225252870956    -0.035083705064    12.000000000000
         C           -1.505294390405     1.209693870956     0.498675294936    12.000000000000
         C           -1.505298390405    -1.209810129044     0.498670294936    12.000000000000
         C           -3.430415390405    -0.000054129044    -0.294607705064    12.000000000000
         C            0.525988609595    -0.000064129044     1.339128294936    12.000000000000
         C           -3.513050390405    -2.529224129044    -0.291626705064    12.000000000000
         C           -3.513050390405     2.529110870956    -0.291624705064    12.000000000000
         H           -0.990345390405     2.150779870956     0.691272294936     1.007825032230
         H           -0.990353390405    -2.150900129044     0.691262294936     1.007825032230
         H           -4.435678390405    -0.000050129044    -0.716282705064     1.007825032230
         H            0.731716609595    -0.892651129044     1.929195294936     1.007825032230
         H            0.731716609595     0.892517870956     1.929203294936     1.007825032230
         H           -4.201825390405    -2.442485129044    -1.135658705064     1.007825032230
         H           -4.070318190405    -2.819545329044     0.543270494936     1.007825032230
         H           -2.804238390405    -3.330875129044    -0.513087705064     1.007825032230
         H           -4.097320390405     2.833109870956     0.583071294936     1.007825032230
         H           -2.804221390405     3.330856870956    -0.512680705064     1.007825032230
         H           -4.201518390405     2.442479870956    -1.135917705064     1.007825032230

  Basis Set: AUG-CC-PVTZ
    Blend: AUG-CC-PVTZ
  Basis Set: (AUG-CC-PVTZ AUX)
    Blend: AUG-CC-PVTZ-JKFIT + DEF2-UNIVERSAL-JKFIT
	 Reference Energy          =    -642.0069069537430551 [Eh]
	 Singles Energy            =      -0.0000000000000000 [Eh]
	 Same-Spin Energy          =      -0.4675764645317144 [Eh]
	 Opposite-Spin Energy      =      -1.4522977370870549 [Eh]
	 Correlation Energy        =      -1.9198742016187693 [Eh]
	 Total Energy              =    -643.9267811553618230 [Eh]

	 ================> DF-SCS-MP2 Energies <==================
	-----------------------------------------------------------
	 SCS Same-Spin Scale       =       0.3333333333333333 [-]
	 SCS Opposite-Spin Scale   =       1.2000000000000000 [-]
	 SCS Same-Spin Energy      =      -0.1558588215105715 [Eh]
	 SCS Opposite-Spin Energy  =      -1.7427572845044659 [Eh]
	 SCS Correlation Energy    =      -1.8986161060150373 [Eh]
	 SCS Total Energy          =    -643.9055230597581385 [Eh]
	-----------------------------------------------------------

  Dipole Moment: [D]
     X:    -2.1165      Y:    -0.0168      Z:     0.8962     Total:     2.2985

*** Psi4 exiting successfully. Buy a developer a beer!
