                               Psi4 1.4a3.dev225

  ==> Input File <==

--------------------------------------------------------------------------
#psi4
#
memory 32 gb

molecule  {
0 1
  I        2.3447600     0.0000010    -0.2524410
  C       -0.5542210    -0.0000040     0.7369510
  C       -2.5036070    -1.2253050    -0.0650320
  C       -2.5036000     1.2253100    -0.0650260
  C       -1.2095060     1.2097510     0.4687330
  C       -1.2095100    -1.2097530     0.4687280
  C       -3.1346270     0.0000030    -0.3245500
  C        0.8217770    -0.0000070     1.3091860
  C       -3.2172620    -2.5291670    -0.3215690
  C       -3.2172620     2.5291680    -0.3215670
  H       -0.6945570     2.1508370     0.6613300
  H       -0.6945650    -2.1508430     0.6613200
  H       -4.1398900     0.0000070    -0.7462250
  H        1.0275050    -0.8925940     1.8992530
  H        1.0275050     0.8925750     1.8992610
  H       -3.9060370    -2.4424280    -1.1656010
  H       -3.8545254    -2.8611637     0.6331775
  H       -2.5084500    -3.3308180    -0.5430300
  H       -3.8015320     2.8331670     0.5531290
  H       -2.5084330     3.3309140    -0.5426230
  H       -3.9057300     2.4425370    -1.1658600
units angstrom
no_reorient  #important for SAPT in psi4, default
symmetry c1  #important for SAPT in psi4, default
}

set PROPERTIES_ORIGIN ["COM"]
properties('MP2/aug-cc-pvtz', properties = ['dipole'])
--------------------------------------------------------------------------

    Molecular point group: c1
  Charge       = 0
  Multiplicity = 1
  Basis Set: AUG-CC-PVTZ
    Blend: AUG-CC-PVTZ
  Basis Set: (AUG-CC-PVTZ AUX)
    Blend: AUG-CC-PVTZ-JKFIT + DEF2-UNIVERSAL-JKFIT

    Orbital Energies [Eh]
    ---------------------

    Doubly Occupied:

       1A    -11.290588     2A    -11.254464     3A    -11.250016
       4A    -11.249572     5A    -11.239959     6A    -11.233815
       7A    -11.233734     8A    -11.231816     9A    -11.228538
      10A     -7.706398    11A     -5.537844    12A     -5.528563
      13A     -5.528552    14A     -2.267058    15A     -2.262643
      16A     -2.262619    17A     -2.252358    18A     -2.252358
      19A     -1.165581    20A     -1.073181    21A     -1.060427
      22A     -0.969016    23A     -0.937504    24A     -0.929895
      25A     -0.849337    26A     -0.789953    27A     -0.782936
      28A     -0.682439    29A     -0.667541    30A     -0.617801
      31A     -0.589146    32A     -0.583197    33A     -0.573699
      34A     -0.564788    35A     -0.559040    36A     -0.556420
      37A     -0.526645    38A     -0.509592    39A     -0.489641
      40A     -0.485667    41A     -0.443780    42A     -0.359627
      43A     -0.357399    44A     -0.324742    45A     -0.319105

  @DF-RHF Final Energy:  -642.00157910568237

   => Energetics <=

    Nuclear Repulsion Energy =            614.2089292650848620
    One-Electron Energy =               -2203.2630247659785709
    Two-Electron Energy =                 947.0525163952113417
    Total Energy =                       -642.0015791056823673
  Basis Set: (AUG-CC-PVTZ AUX)
    Blend: AUG-CC-PVTZ-RI + DEF2-QZVPP-RI
    Molecular point group: c1

    Geometry (in Angstrom), charge = 0, multiplicity = 1:

       Center              X                  Y                   Z               Mass
    ------------   -----------------  -----------------  -----------------  -----------------
         I            2.049299352141     0.000114615778    -0.222989728503   126.904471900000
         C           -0.849681647859     0.000109615778     0.766402271497    12.000000000000
         C           -2.799067647859    -1.225191384222    -0.035580728503    12.000000000000
         C           -2.799060647859     1.225423615778    -0.035574728503    12.000000000000
         C           -1.504966647859     1.209864615778     0.498184271497    12.000000000000
         C           -1.504970647859    -1.209639384222     0.498179271497    12.000000000000
         C           -3.430087647859     0.000116615778    -0.295098728503    12.000000000000
         C            0.526316352141     0.000106615778     1.338637271497    12.000000000000
         C           -3.512722647859    -2.529053384222    -0.292117728503    12.000000000000
         C           -3.512722647859     2.529281615778    -0.292115728503    12.000000000000
         H           -0.990017647859     2.150950615778     0.690781271497     1.007825032230
         H           -0.990025647859    -2.150729384222     0.690771271497     1.007825032230
         H           -4.435350647859     0.000120615778    -0.716773728503     1.007825032230
         H            0.732044352141    -0.892480384222     1.928704271497     1.007825032230
         H            0.732044352141     0.892688615778     1.928712271497     1.007825032230
         H           -4.201497647859    -2.442314384222    -1.136149728503     1.007825032230
         H           -4.149986047859    -2.861050084222     0.662628771497     1.007825032230
         H           -2.803910647859    -3.330704384222    -0.513578728503     1.007825032230
         H           -4.096992647859     2.833280615778     0.582580271497     1.007825032230
         H           -2.803893647859     3.331027615778    -0.513171728503     1.007825032230
         H           -4.201190647859     2.442650615778    -1.136408728503     1.007825032230

  Basis Set: AUG-CC-PVTZ
    Blend: AUG-CC-PVTZ
  Basis Set: (AUG-CC-PVTZ AUX)
    Blend: AUG-CC-PVTZ-JKFIT + DEF2-UNIVERSAL-JKFIT
	 Reference Energy          =    -642.0015791056823673 [Eh]
	 Singles Energy            =      -0.0000000000000000 [Eh]
	 Same-Spin Energy          =      -0.4675574910258912 [Eh]
	 Opposite-Spin Energy      =      -1.4532476423535181 [Eh]
	 Correlation Energy        =      -1.9208051333794094 [Eh]
	 Total Energy              =    -643.9223842390617847 [Eh]

	 ================> DF-SCS-MP2 Energies <==================
	-----------------------------------------------------------
	 SCS Same-Spin Scale       =       0.3333333333333333 [-]
	 SCS Opposite-Spin Scale   =       1.2000000000000000 [-]
	 SCS Same-Spin Energy      =      -0.1558524970086304 [Eh]
	 SCS Opposite-Spin Energy  =      -1.7438971708242217 [Eh]
	 SCS Correlation Energy    =      -1.8997496678328520 [Eh]
	 SCS Total Energy          =    -643.9013287735152744 [Eh]
	-----------------------------------------------------------

  Dipole Moment: [D]
     X:    -2.0546      Y:     0.0452      Z:     0.8567     Total:     2.2265

*** Psi4 exiting successfully. Buy a developer a beer!
