                               Psi4 1.4a3.dev225

  ==> Input File <==

--------------------------------------------------------------------------
#psi4
#
memory 32 gb

molecule  {
0 1
  I        2.3447600     0.0000010    -0.2524410
  C       -0.5542210    -0.0000040     0.7369510
  C       -2.5036070    -1.2253050    -0.0650320
  C       -2.5036000     1.2253100    -0.0650260
  C       -1.2095060     1.2097510     0.4687330
  C       -1.2095100    -1.2097530     0.4687280
  C       -3.1346270     0.0000030    -0.3245500
  C        0.8217770    -0.0000070     1.3091860
  C       -3.2172620    -2.5291670    -0.3215690
  C       -3.2172620     2.5291680    -0.3215670
  H       -0.6945570     2.1508370     0.6613300
  H       -0.6945650    -2.1508430     0.6613200
  H       -4.1398900     0.0000070    -0.7462250
  H        1.0275050    -0.8925940     1.8992530
  H        1.0275050     0.8925750     1.8992610
  H       -3.9060370    -2.4424280    -1.1656010
  H       -3.8011950    -2.8333800     0.5532780
  H       -2.5084500    -3.3308180    -0.5430300
  H       -3.7366594     2.8320371     0.5935158
  H       -2.5084330     3.3309140    -0.5426230
  H       -3.9057300     2.4425370    -1.1658600
units angstrom
no_reorient  #important for SAPT in psi4, default
symmetry c1  #important for SAPT in psi4, default
}

set PROPERTIES_ORIGIN ["COM"]
properties('MP2/aug-cc-pvtz', properties = ['dipole'])
--------------------------------------------------------------------------

    Molecular point group: c1
  Charge       = 0
  Multiplicity = 1
  Basis Set: AUG-CC-PVTZ
    Blend: AUG-CC-PVTZ
  Basis Set: (AUG-CC-PVTZ AUX)
    Blend: AUG-CC-PVTZ-JKFIT + DEF2-UNIVERSAL-JKFIT

    Orbital Energies [Eh]
    ---------------------

    Doubly Occupied:

       1A    -11.290299     2A    -11.254080     3A    -11.249171
       4A    -11.248991     5A    -11.232953     6A    -11.232910
       7A    -11.230980     8A    -11.228549     9A    -11.228214
      10A     -7.706153    11A     -5.537600    12A     -5.528319
      13A     -5.528309    14A     -2.266813    15A     -2.262398
      16A     -2.262375    17A     -2.252115    18A     -2.252115
      19A     -1.165154    20A     -1.073092    21A     -1.061342
      22A     -0.969964    23A     -0.938680    24A     -0.932786
      25A     -0.849039    26A     -0.790672    27A     -0.782726
      28A     -0.682052    29A     -0.667017    30A     -0.617215
      31A     -0.589854    32A     -0.586543    33A     -0.574940
      34A     -0.573056    35A     -0.564049    36A     -0.555069
      37A     -0.525614    38A     -0.510664    39A     -0.489423
      40A     -0.485059    41A     -0.444370    42A     -0.359387
      43A     -0.357168    44A     -0.324578    45A     -0.318902

  @DF-RHF Final Energy:  -642.00738642123520

   => Energetics <=

    Nuclear Repulsion Energy =            614.7131909073182214
    One-Electron Energy =               -2204.2796372780935599
    Two-Electron Energy =                 947.5590599495401420
    Total Energy =                       -642.0073864212351964
  Basis Set: (AUG-CC-PVTZ AUX)
    Blend: AUG-CC-PVTZ-RI + DEF2-QZVPP-RI
    Molecular point group: c1

    Geometry (in Angstrom), charge = 0, multiplicity = 1:

       Center              X                  Y                   Z               Mass
    ------------   -----------------  -----------------  -----------------  -----------------
         I            2.048815073604     0.000005414968    -0.222827844689   126.904471900000
         C           -0.850165926396     0.000000414968     0.766564155311    12.000000000000
         C           -2.799551926396    -1.225300585032    -0.035418844689    12.000000000000
         C           -2.799544926396     1.225314414968    -0.035412844689    12.000000000000
         C           -1.505450926396     1.209755414968     0.498346155311    12.000000000000
         C           -1.505454926396    -1.209748585032     0.498341155311    12.000000000000
         C           -3.430571926396     0.000007414968    -0.294936844689    12.000000000000
         C            0.525832073604    -0.000002585032     1.338799155311    12.000000000000
         C           -3.513206926396    -2.529162585032    -0.291955844689    12.000000000000
         C           -3.513206926396     2.529172414968    -0.291953844689    12.000000000000
         H           -0.990501926396     2.150841414968     0.690943155311     1.007825032230
         H           -0.990509926396    -2.150838585032     0.690933155311     1.007825032230
         H           -4.435834926396     0.000011414968    -0.716611844689     1.007825032230
         H            0.731560073604    -0.892589585032     1.928866155311     1.007825032230
         H            0.731560073604     0.892579414968     1.928874155311     1.007825032230
         H           -4.201981926396    -2.442423585032    -1.135987844689     1.007825032230
         H           -4.097139926396    -2.833375585032     0.582891155311     1.007825032230
         H           -2.804394926396    -3.330813585032    -0.513416844689     1.007825032230
         H           -4.032604326396     2.832041514968     0.623128955311     1.007825032230
         H           -2.804377926396     3.330918414968    -0.513009844689     1.007825032230
         H           -4.201674926396     2.442541414968    -1.136246844689     1.007825032230

  Basis Set: AUG-CC-PVTZ
    Blend: AUG-CC-PVTZ
  Basis Set: (AUG-CC-PVTZ AUX)
    Blend: AUG-CC-PVTZ-JKFIT + DEF2-UNIVERSAL-JKFIT
	 Reference Energy          =    -642.0073864212351964 [Eh]
	 Singles Energy            =      -0.0000000000000000 [Eh]
	 Same-Spin Energy          =      -0.4675988788694583 [Eh]
	 Opposite-Spin Energy      =      -1.4526267235390637 [Eh]
	 Correlation Energy        =      -1.9202256024085220 [Eh]
	 Total Energy              =    -643.9276120236437464 [Eh]

	 ================> DF-SCS-MP2 Energies <==================
	-----------------------------------------------------------
	 SCS Same-Spin Scale       =       0.3333333333333333 [-]
	 SCS Opposite-Spin Scale   =       1.2000000000000000 [-]
	 SCS Same-Spin Energy      =      -0.1558662929564861 [Eh]
	 SCS Opposite-Spin Energy  =      -1.7431520682468764 [Eh]
	 SCS Correlation Energy    =      -1.8990183612033624 [Eh]
	 SCS Total Energy          =    -643.9064047824385852 [Eh]
	-----------------------------------------------------------

  Dipole Moment: [D]
     X:    -2.0849      Y:     0.0176      Z:     0.8908     Total:     2.2672

*** Psi4 exiting successfully. Buy a developer a beer!
