                               Psi4 1.4a3.dev225

  ==> Input File <==

--------------------------------------------------------------------------
#psi4
#
memory 32 gb

molecule  {
0 1
  I        2.3447600     0.0000010    -0.2524410
  C       -0.5542210    -0.0000040     0.7369510
  C       -2.5036070    -1.2253050    -0.0650320
  C       -2.4781145     1.2481900    -0.0250392
  C       -1.2095060     1.2097510     0.4687330
  C       -1.2095100    -1.2097530     0.4687280
  C       -3.1346270     0.0000030    -0.3245500
  C        0.8217770    -0.0000070     1.3091860
  C       -3.2172620    -2.5291670    -0.3215690
  C       -3.2172620     2.5291680    -0.3215670
  H       -0.6945570     2.1508370     0.6613300
  H       -0.6945650    -2.1508430     0.6613200
  H       -4.1398900     0.0000070    -0.7462250
  H        1.0275050    -0.8925940     1.8992530
  H        1.0275050     0.8925750     1.8992610
  H       -3.9060370    -2.4424280    -1.1656010
  H       -3.8011950    -2.8333800     0.5532780
  H       -2.5084500    -3.3308180    -0.5430300
  H       -3.8015320     2.8331670     0.5531290
  H       -2.5084330     3.3309140    -0.5426230
  H       -3.9057300     2.4425370    -1.1658600
units angstrom
no_reorient  #important for SAPT in psi4, default
symmetry c1  #important for SAPT in psi4, default
}

set PROPERTIES_ORIGIN ["COM"]
properties('MP2/aug-cc-pvtz', properties = ['dipole'])
--------------------------------------------------------------------------

    Molecular point group: c1
  Charge       = 0
  Multiplicity = 1
  Basis Set: AUG-CC-PVTZ
    Blend: AUG-CC-PVTZ
  Basis Set: (AUG-CC-PVTZ AUX)
    Blend: AUG-CC-PVTZ-JKFIT + DEF2-UNIVERSAL-JKFIT

    Orbital Energies [Eh]
    ---------------------

    Doubly Occupied:

       1A    -11.290539     2A    -11.254530     3A    -11.248982
       4A    -11.248582     5A    -11.234624     6A    -11.233827
       7A    -11.229410     8A    -11.228398     9A    -11.228048
      10A     -7.706207    11A     -5.537649    12A     -5.528375
      13A     -5.528362    14A     -2.266862    15A     -2.262450
      16A     -2.262426    17A     -2.252173    18A     -2.252173
      19A     -1.165646    20A     -1.071105    21A     -1.063633
      22A     -0.970678    23A     -0.936038    24A     -0.934496
      25A     -0.850169    26A     -0.788752    27A     -0.784661
      28A     -0.682491    29A     -0.666579    30A     -0.618346
      31A     -0.589118    32A     -0.585984    33A     -0.573650
      34A     -0.568774    35A     -0.567142    36A     -0.555679
      37A     -0.527296    38A     -0.512485    39A     -0.494361
      40A     -0.478051    41A     -0.443968    42A     -0.359174
      43A     -0.357412    44A     -0.330116    45A     -0.314529

  @DF-RHF Final Energy:  -642.00525603556127

   => Energetics <=

    Nuclear Repulsion Energy =            614.6924834734910519
    One-Electron Energy =               -2204.2275808176468672
    Two-Electron Energy =                 947.5298413085946549
    Total Energy =                       -642.0052560355612741
  Basis Set: (AUG-CC-PVTZ AUX)
    Blend: AUG-CC-PVTZ-RI + DEF2-QZVPP-RI
    Molecular point group: c1

    Geometry (in Angstrom), charge = 0, multiplicity = 1:

       Center              X                  Y                   Z               Mass
    ------------   -----------------  -----------------  -----------------  -----------------
         I            2.047837614216    -0.001115354690    -0.224613030245   126.904471900000
         C           -0.851143385784    -0.001120354690     0.764778969755    12.000000000000
         C           -2.800529385784    -1.226421354690    -0.037204030245    12.000000000000
         C           -2.775036885784     1.247073645310     0.002788769755    12.000000000000
         C           -1.506428385784     1.208634645310     0.496560969755    12.000000000000
         C           -1.506432385784    -1.210869354690     0.496555969755    12.000000000000
         C           -3.431549385784    -0.001113354690    -0.296722030245    12.000000000000
         C            0.524854614216    -0.001123354690     1.337013969755    12.000000000000
         C           -3.514184385784    -2.530283354690    -0.293741030245    12.000000000000
         C           -3.514184385784     2.528051645310    -0.293739030245    12.000000000000
         H           -0.991479385784     2.149720645310     0.689157969755     1.007825032230
         H           -0.991487385784    -2.151959354690     0.689147969755     1.007825032230
         H           -4.436812385784    -0.001109354690    -0.718397030245     1.007825032230
         H            0.730582614216    -0.893710354690     1.927080969755     1.007825032230
         H            0.730582614216     0.891458645310     1.927088969755     1.007825032230
         H           -4.202959385784    -2.443544354690    -1.137773030245     1.007825032230
         H           -4.098117385784    -2.834496354690     0.581105969755     1.007825032230
         H           -2.805372385784    -3.331934354690    -0.515202030245     1.007825032230
         H           -4.098454385784     2.832050645310     0.580956969755     1.007825032230
         H           -2.805355385784     3.329797645310    -0.514795030245     1.007825032230
         H           -4.202652385784     2.441420645310    -1.138032030245     1.007825032230

  Basis Set: AUG-CC-PVTZ
    Blend: AUG-CC-PVTZ
  Basis Set: (AUG-CC-PVTZ AUX)
    Blend: AUG-CC-PVTZ-JKFIT + DEF2-UNIVERSAL-JKFIT
	 Reference Energy          =    -642.0052560355612741 [Eh]
	 Singles Energy            =      -0.0000000000000000 [Eh]
	 Same-Spin Energy          =      -0.4675307155376396 [Eh]
	 Opposite-Spin Energy      =      -1.4527081993853870 [Eh]
	 Correlation Energy        =      -1.9202389149230266 [Eh]
	 Total Energy              =    -643.9254949504843353 [Eh]

	 ================> DF-SCS-MP2 Energies <==================
	-----------------------------------------------------------
	 SCS Same-Spin Scale       =       0.3333333333333333 [-]
	 SCS Opposite-Spin Scale   =       1.2000000000000000 [-]
	 SCS Same-Spin Energy      =      -0.1558435718458799 [Eh]
	 SCS Opposite-Spin Energy  =      -1.7432498392624642 [Eh]
	 SCS Correlation Energy    =      -1.8990934111083442 [Eh]
	 SCS Total Energy          =    -643.9043494466695847 [Eh]
	-----------------------------------------------------------

  Dipole Moment: [D]
     X:    -2.1177      Y:    -0.0040      Z:     0.8725     Total:     2.2904

*** Psi4 exiting successfully. Buy a developer a beer!
