                               Psi4 1.4a3.dev225

  ==> Input File <==

--------------------------------------------------------------------------
#psi4
#
memory 32 gb

molecule  {
0 1
  I        2.3447600     0.0000010    -0.2524410
  C       -0.5542210    -0.0000040     0.7369510
  C       -2.5036070    -1.2253050    -0.0650320
  C       -2.5036000     1.2253100    -0.0650260
  C       -1.2095060     1.2097510     0.4687330
  C       -1.2095100    -1.2097530     0.4687280
  C       -3.1346270     0.0000030    -0.3245500
  C        0.8217770    -0.0000070     1.3091860
  C       -3.2172620    -2.5291670    -0.3215690
  C       -3.2172620     2.5291680    -0.3215670
  H       -0.6945570     2.1508370     0.6613300
  H       -0.6945650    -2.1508430     0.6613200
  H       -4.1398900     0.0000070    -0.7462250
  H        1.0275050    -0.8925940     1.8992530
  H        1.0275050     0.8925750     1.8992610
  H       -3.9060370    -2.4424280    -1.1656010
  H       -3.8011950    -2.8333800     0.5532780
  H       -2.5084500    -3.3308180    -0.5430300
  H       -3.7032540     2.8309182     0.6120488
  H       -2.5084330     3.3309140    -0.5426230
  H       -3.9057300     2.4425370    -1.1658600
units angstrom
no_reorient  #important for SAPT in psi4, default
symmetry c1  #important for SAPT in psi4, default
}

set PROPERTIES_ORIGIN ["COM"]
properties('MP2/aug-cc-pvtz', properties = ['dipole'])
--------------------------------------------------------------------------

    Molecular point group: c1
  Charge       = 0
  Multiplicity = 1
  Basis Set: AUG-CC-PVTZ
    Blend: AUG-CC-PVTZ
  Basis Set: (AUG-CC-PVTZ AUX)
    Blend: AUG-CC-PVTZ-JKFIT + DEF2-UNIVERSAL-JKFIT

    Orbital Energies [Eh]
    ---------------------

    Doubly Occupied:

       1A    -11.290272     2A    -11.254060     3A    -11.249134
       4A    -11.248897     5A    -11.232791     6A    -11.232744
       7A    -11.230828     8A    -11.228698     9A    -11.228169
      10A     -7.706135    11A     -5.537582    12A     -5.528301
      13A     -5.528291    14A     -2.266795    15A     -2.262380
      16A     -2.262357    17A     -2.252097    18A     -2.252096
      19A     -1.165110    20A     -1.073081    21A     -1.061454
      22A     -0.969956    23A     -0.938746    24A     -0.932692
      25A     -0.848990    26A     -0.790537    27A     -0.782541
      28A     -0.681922    29A     -0.667041    30A     -0.617030
      31A     -0.591361    32A     -0.586283    33A     -0.575567
      34A     -0.573039    35A     -0.563930    36A     -0.554482
      37A     -0.525428    38A     -0.510192    39A     -0.489496
      40A     -0.484830    41A     -0.444211    42A     -0.359357
      43A     -0.357146    44A     -0.324379    45A     -0.318876

  @DF-RHF Final Energy:  -642.00670697787564

   => Energetics <=

    Nuclear Repulsion Energy =            614.7548486430819139
    One-Electron Energy =               -2204.3645022580908517
    Two-Electron Energy =                 947.6029466371333001
    Total Energy =                       -642.0067069778756377
  Basis Set: (AUG-CC-PVTZ AUX)
    Blend: AUG-CC-PVTZ-RI + DEF2-QZVPP-RI
    Molecular point group: c1

    Geometry (in Angstrom), charge = 0, multiplicity = 1:

       Center              X                  Y                   Z               Mass
    ------------   -----------------  -----------------  -----------------  -----------------
         I            2.048678211441     0.000009999110    -0.222903774522   126.904471900000
         C           -0.850302788559     0.000004999110     0.766488225478    12.000000000000
         C           -2.799688788559    -1.225296000890    -0.035494774522    12.000000000000
         C           -2.799681788559     1.225318999110    -0.035488774522    12.000000000000
         C           -1.505587788559     1.209759999110     0.498270225478    12.000000000000
         C           -1.505591788559    -1.209744000890     0.498265225478    12.000000000000
         C           -3.430708788559     0.000011999110    -0.295012774522    12.000000000000
         C            0.525695211441     0.000001999110     1.338723225478    12.000000000000
         C           -3.513343788559    -2.529158000890    -0.292031774522    12.000000000000
         C           -3.513343788559     2.529176999110    -0.292029774522    12.000000000000
         H           -0.990638788559     2.150845999110     0.690867225478     1.007825032230
         H           -0.990646788559    -2.150834000890     0.690857225478     1.007825032230
         H           -4.435971788559     0.000015999110    -0.716687774522     1.007825032230
         H            0.731423211441    -0.892585000890     1.928790225478     1.007825032230
         H            0.731423211441     0.892583999110     1.928798225478     1.007825032230
         H           -4.202118788559    -2.442419000890    -1.136063774522     1.007825032230
         H           -4.097276788559    -2.833371000890     0.582815225478     1.007825032230
         H           -2.804531788559    -3.330809000890    -0.513492774522     1.007825032230
         H           -3.999335788559     2.830927199110     0.641586025478     1.007825032230
         H           -2.804514788559     3.330922999110    -0.513085774522     1.007825032230
         H           -4.201811788559     2.442545999110    -1.136322774522     1.007825032230

  Basis Set: AUG-CC-PVTZ
    Blend: AUG-CC-PVTZ
  Basis Set: (AUG-CC-PVTZ AUX)
    Blend: AUG-CC-PVTZ-JKFIT + DEF2-UNIVERSAL-JKFIT
	 Reference Energy          =    -642.0067069778756377 [Eh]
	 Singles Energy            =      -0.0000000000000000 [Eh]
	 Same-Spin Energy          =      -0.4676358719334810 [Eh]
	 Opposite-Spin Energy      =      -1.4526837706324267 [Eh]
	 Correlation Energy        =      -1.9203196425659077 [Eh]
	 Total Energy              =    -643.9270266204415520 [Eh]

	 ================> DF-SCS-MP2 Energies <==================
	-----------------------------------------------------------
	 SCS Same-Spin Scale       =       0.3333333333333333 [-]
	 SCS Opposite-Spin Scale   =       1.2000000000000000 [-]
	 SCS Same-Spin Energy      =      -0.1558786239778270 [Eh]
	 SCS Opposite-Spin Energy  =      -1.7432205247589121 [Eh]
	 SCS Correlation Energy    =      -1.8990991487367390 [Eh]
	 SCS Total Energy          =    -643.9058061266123332 [Eh]
	-----------------------------------------------------------

  Dipole Moment: [D]
     X:    -2.0778      Y:     0.0270      Z:     0.8921     Total:     2.2614

*** Psi4 exiting successfully. Buy a developer a beer!
