                               Psi4 1.4a3.dev225

  ==> Input File <==

--------------------------------------------------------------------------
#psi4
#
memory 32 gb

molecule  {
0 1
  I        2.3447600     0.0000010    -0.2524410
  C       -0.5586321     0.0230530     0.7481492
  C       -2.5036070    -1.2253050    -0.0650320
  C       -2.5036000     1.2253100    -0.0650260
  C       -1.2095060     1.2097510     0.4687330
  C       -1.2095100    -1.2097530     0.4687280
  C       -3.1346270     0.0000030    -0.3245500
  C        0.8217770    -0.0000070     1.3091860
  C       -3.2172620    -2.5291670    -0.3215690
  C       -3.2172620     2.5291680    -0.3215670
  H       -0.6945570     2.1508370     0.6613300
  H       -0.6945650    -2.1508430     0.6613200
  H       -4.1398900     0.0000070    -0.7462250
  H        1.0275050    -0.8925940     1.8992530
  H        1.0275050     0.8925750     1.8992610
  H       -3.9060370    -2.4424280    -1.1656010
  H       -3.8011950    -2.8333800     0.5532780
  H       -2.5084500    -3.3308180    -0.5430300
  H       -3.8015320     2.8331670     0.5531290
  H       -2.5084330     3.3309140    -0.5426230
  H       -3.9057300     2.4425370    -1.1658600
units angstrom
no_reorient  #important for SAPT in psi4, default
symmetry c1  #important for SAPT in psi4, default
}

set PROPERTIES_ORIGIN ["COM"]
properties('MP2/aug-cc-pvtz', properties = ['dipole'])
--------------------------------------------------------------------------

    Molecular point group: c1
  Charge       = 0
  Multiplicity = 1
  Basis Set: AUG-CC-PVTZ
    Blend: AUG-CC-PVTZ
  Basis Set: (AUG-CC-PVTZ AUX)
    Blend: AUG-CC-PVTZ-JKFIT + DEF2-UNIVERSAL-JKFIT

    Orbital Energies [Eh]
    ---------------------

    Doubly Occupied:

       1A    -11.290138     2A    -11.253922     3A    -11.249534
       4A    -11.248916     5A    -11.234711     6A    -11.231763
       7A    -11.231365     8A    -11.228473     9A    -11.228132
      10A     -7.706347    11A     -5.537800    12A     -5.528508
      13A     -5.528497    14A     -2.267013    15A     -2.262594
      16A     -2.262570    17A     -2.252296    18A     -2.252296
      19A     -1.165294    20A     -1.073199    21A     -1.061066
      22A     -0.970089    23A     -0.938874    24A     -0.932604
      25A     -0.849370    26A     -0.791534    27A     -0.782383
      28A     -0.682330    29A     -0.666967    30A     -0.617485
      31A     -0.588646    32A     -0.586001    33A     -0.573743
      34A     -0.572804    35A     -0.563912    36A     -0.555717
      37A     -0.525975    38A     -0.511456    39A     -0.490093
      40A     -0.484079    41A     -0.444900    42A     -0.359468
      43A     -0.357232    44A     -0.325909    45A     -0.318219

  @DF-RHF Final Energy:  -642.00725436972061

   => Energetics <=

    Nuclear Repulsion Energy =            614.5727937317565193
    One-Electron Energy =               -2203.9916559111770766
    Two-Electron Energy =                 947.4116078096999445
    Total Energy =                       -642.0072543697206129
  Basis Set: (AUG-CC-PVTZ AUX)
    Blend: AUG-CC-PVTZ-RI + DEF2-QZVPP-RI
    Molecular point group: c1

    Geometry (in Angstrom), charge = 0, multiplicity = 1:

       Center              X                  Y                   Z               Mass
    ------------   -----------------  -----------------  -----------------  -----------------
         I            2.049296040989    -0.001123989168    -0.223208654330   126.904471900000
         C           -0.854096059011     0.021928010832     0.777381545670    12.000000000000
         C           -2.799070959011    -1.226429989168    -0.035799654330    12.000000000000
         C           -2.799063959011     1.224185010832    -0.035793654330    12.000000000000
         C           -1.504969959011     1.208626010832     0.497965345670    12.000000000000
         C           -1.504973959011    -1.210877989168     0.497960345670    12.000000000000
         C           -3.430090959011    -0.001121989168    -0.295317654330    12.000000000000
         C            0.526313040989    -0.001131989168     1.338418345670    12.000000000000
         C           -3.512725959011    -2.530291989168    -0.292336654330    12.000000000000
         C           -3.512725959011     2.528043010832    -0.292334654330    12.000000000000
         H           -0.990020959011     2.149712010832     0.690562345670     1.007825032230
         H           -0.990028959011    -2.151967989168     0.690552345670     1.007825032230
         H           -4.435353959011    -0.001117989168    -0.716992654330     1.007825032230
         H            0.732041040989    -0.893718989168     1.928485345670     1.007825032230
         H            0.732041040989     0.891450010832     1.928493345670     1.007825032230
         H           -4.201500959011    -2.443552989168    -1.136368654330     1.007825032230
         H           -4.096658959011    -2.834504989168     0.582510345670     1.007825032230
         H           -2.803913959011    -3.331942989168    -0.513797654330     1.007825032230
         H           -4.096995959011     2.832042010832     0.582361345670     1.007825032230
         H           -2.803896959011     3.329789010832    -0.513390654330     1.007825032230
         H           -4.201193959011     2.441412010832    -1.136627654330     1.007825032230

  Basis Set: AUG-CC-PVTZ
    Blend: AUG-CC-PVTZ
  Basis Set: (AUG-CC-PVTZ AUX)
    Blend: AUG-CC-PVTZ-JKFIT + DEF2-UNIVERSAL-JKFIT
	 Reference Energy          =    -642.0072543697206129 [Eh]
	 Singles Energy            =      -0.0000000000000000 [Eh]
	 Same-Spin Energy          =      -0.4675336282457331 [Eh]
	 Opposite-Spin Energy      =      -1.4525717895582333 [Eh]
	 Correlation Energy        =      -1.9201054178039665 [Eh]
	 Total Energy              =    -643.9273597875245514 [Eh]

	 ================> DF-SCS-MP2 Energies <==================
	-----------------------------------------------------------
	 SCS Same-Spin Scale       =       0.3333333333333333 [-]
	 SCS Opposite-Spin Scale   =       1.2000000000000000 [-]
	 SCS Same-Spin Energy      =      -0.1558445427485777 [Eh]
	 SCS Opposite-Spin Energy  =      -1.7430861474698800 [Eh]
	 SCS Correlation Energy    =      -1.8989306902184577 [Eh]
	 SCS Total Energy          =    -643.9061850599390482 [Eh]
	-----------------------------------------------------------

  Dipole Moment: [D]
     X:    -2.0978      Y:    -0.0004      Z:     0.8764     Total:     2.2735

*** Psi4 exiting successfully. Buy a developer a beer!
