                               Psi4 1.4a3.dev225

  ==> Input File <==

--------------------------------------------------------------------------
#psi4
#
memory 32 gb

molecule  {
0 1
  I        2.3447600     0.0000010    -0.2524410
  C       -0.5542210    -0.0000040     0.7369510
  C       -2.5036070    -1.2253050    -0.0650320
  C       -2.5571474     1.1843416    -0.1458881
  C       -1.2095060     1.2097510     0.4687330
  C       -1.2095100    -1.2097530     0.4687280
  C       -3.1346270     0.0000030    -0.3245500
  C        0.8217770    -0.0000070     1.3091860
  C       -3.2172620    -2.5291670    -0.3215690
  C       -3.2172620     2.5291680    -0.3215670
  H       -0.6945570     2.1508370     0.6613300
  H       -0.6945650    -2.1508430     0.6613200
  H       -4.1398900     0.0000070    -0.7462250
  H        1.0275050    -0.8925940     1.8992530
  H        1.0275050     0.8925750     1.8992610
  H       -3.9060370    -2.4424280    -1.1656010
  H       -3.8011950    -2.8333800     0.5532780
  H       -2.5084500    -3.3308180    -0.5430300
  H       -3.8015320     2.8331670     0.5531290
  H       -2.5084330     3.3309140    -0.5426230
  H       -3.9057300     2.4425370    -1.1658600
units angstrom
no_reorient  #important for SAPT in psi4, default
symmetry c1  #important for SAPT in psi4, default
}

set PROPERTIES_ORIGIN ["COM"]
properties('MP2/aug-cc-pvtz', properties = ['dipole'])
--------------------------------------------------------------------------

    Molecular point group: c1
  Charge       = 0
  Multiplicity = 1
  Basis Set: AUG-CC-PVTZ
    Blend: AUG-CC-PVTZ
  Basis Set: (AUG-CC-PVTZ AUX)
    Blend: AUG-CC-PVTZ-JKFIT + DEF2-UNIVERSAL-JKFIT

    Orbital Energies [Eh]
    ---------------------

    Doubly Occupied:

       1A    -11.289916     2A    -11.253104     3A    -11.250376
       4A    -11.248825     5A    -11.240046     6A    -11.232768
       7A    -11.228770     8A    -11.228760     9A    -11.224161
      10A     -7.706040    11A     -5.537487    12A     -5.528213
      13A     -5.528187    14A     -2.266700    15A     -2.262292
      16A     -2.262255    17A     -2.251999    18A     -2.251999
      19A     -1.165352    20A     -1.077944    21A     -1.057330
      22A     -0.968807    23A     -0.946241    24A     -0.927612
      25A     -0.847217    26A     -0.798864    27A     -0.775782
      28A     -0.682257    29A     -0.666202    30A     -0.617120
      31A     -0.588498    32A     -0.586186    33A     -0.582840
      34A     -0.573182    35A     -0.558795    36A     -0.555359
      37A     -0.525248    38A     -0.509169    39A     -0.496730
      40A     -0.473009    41A     -0.446158    42A     -0.360279
      43A     -0.356838    44A     -0.329641    45A     -0.314539

  @DF-RHF Final Energy:  -641.99702023085797

   => Energetics <=

    Nuclear Repulsion Energy =            614.4574353722782689
    One-Electron Energy =               -2203.7507172197369982
    Two-Electron Energy =                 947.2962616166007592
    Total Energy =                       -641.9970202308579701
  Basis Set: (AUG-CC-PVTZ AUX)
    Blend: AUG-CC-PVTZ-RI + DEF2-QZVPP-RI
    Molecular point group: c1

    Geometry (in Angstrom), charge = 0, multiplicity = 1:

       Center              X                  Y                   Z               Mass
    ------------   -----------------  -----------------  -----------------  -----------------
         I            2.051693025778     0.001999321092    -0.218717735421   126.904471900000
         C           -0.847287974222     0.001994321092     0.770674264579    12.000000000000
         C           -2.796673974222    -1.223306678908    -0.031308735421    12.000000000000
         C           -2.850214374222     1.186339921092    -0.112164835421    12.000000000000
         C           -1.502572974222     1.211749321092     0.502456264579    12.000000000000
         C           -1.502576974222    -1.207754678908     0.502451264579    12.000000000000
         C           -3.427693974222     0.002001321092    -0.290826735421    12.000000000000
         C            0.528710025778     0.001991321092     1.342909264579    12.000000000000
         C           -3.510328974222    -2.527168678908    -0.287845735421    12.000000000000
         C           -3.510328974222     2.531166321092    -0.287843735421    12.000000000000
         H           -0.987623974222     2.152835321092     0.695053264579     1.007825032230
         H           -0.987631974222    -2.148844678908     0.695043264579     1.007825032230
         H           -4.432956974222     0.002005321092    -0.712501735421     1.007825032230
         H            0.734438025778    -0.890595678908     1.932976264579     1.007825032230
         H            0.734438025778     0.894573321092     1.932984264579     1.007825032230
         H           -4.199103974222    -2.440429678908    -1.131877735421     1.007825032230
         H           -4.094261974222    -2.831381678908     0.587001264579     1.007825032230
         H           -2.801516974222    -3.328819678908    -0.509306735421     1.007825032230
         H           -4.094598974222     2.835165321092     0.586852264579     1.007825032230
         H           -2.801499974222     3.332912321092    -0.508899735421     1.007825032230
         H           -4.198796974222     2.444535321092    -1.132136735421     1.007825032230

  Basis Set: AUG-CC-PVTZ
    Blend: AUG-CC-PVTZ
  Basis Set: (AUG-CC-PVTZ AUX)
    Blend: AUG-CC-PVTZ-JKFIT + DEF2-UNIVERSAL-JKFIT
	 Reference Energy          =    -641.9970202308579701 [Eh]
	 Singles Energy            =      -0.0000000000000000 [Eh]
	 Same-Spin Energy          =      -0.4673464716906067 [Eh]
	 Opposite-Spin Energy      =      -1.4531092854775391 [Eh]
	 Correlation Energy        =      -1.9204557571681458 [Eh]
	 Total Energy              =    -643.9174759880261263 [Eh]

	 ================> DF-SCS-MP2 Energies <==================
	-----------------------------------------------------------
	 SCS Same-Spin Scale       =       0.3333333333333333 [-]
	 SCS Opposite-Spin Scale   =       1.2000000000000000 [-]
	 SCS Same-Spin Energy      =      -0.1557821572302022 [Eh]
	 SCS Opposite-Spin Energy  =      -1.7437311425730468 [Eh]
	 SCS Correlation Energy    =      -1.8995132998032491 [Eh]
	 SCS Total Energy          =    -643.8965335306612587 [Eh]
	-----------------------------------------------------------

  Dipole Moment: [D]
     X:    -2.0670      Y:     0.0092      Z:     0.9105     Total:     2.2587

*** Psi4 exiting successfully. Buy a developer a beer!
