                               Psi4 1.4a3.dev225

  ==> Input File <==

--------------------------------------------------------------------------
#psi4
#
memory 32 gb

molecule  {
0 1
  I        2.3447600     0.0000010    -0.2524410
  C       -0.5542210    -0.0000040     0.7369510
  C       -2.5036070    -1.2253050    -0.0650320
  C       -2.5036000     1.2253100    -0.0650260
  C       -1.2095060     1.2097510     0.4687330
  C       -1.2095100    -1.2097530     0.4687280
  C       -3.1346270     0.0000030    -0.3245500
  C        0.8217770    -0.0000070     1.3091860
  C       -3.2172620    -2.5291670    -0.3215690
  C       -3.2172620     2.5291680    -0.3215670
  H       -0.6945570     2.1508370     0.6613300
  H       -0.6945650    -2.1508430     0.6613200
  H       -4.3243215     0.0000077    -0.8235880
  H        1.0275050    -0.8925940     1.8992530
  H        1.0275050     0.8925750     1.8992610
  H       -3.9060370    -2.4424280    -1.1656010
  H       -3.8011950    -2.8333800     0.5532780
  H       -2.5084500    -3.3308180    -0.5430300
  H       -3.8015320     2.8331670     0.5531290
  H       -2.5084330     3.3309140    -0.5426230
  H       -3.9057300     2.4425370    -1.1658600
units angstrom
no_reorient  #important for SAPT in psi4, default
symmetry c1  #important for SAPT in psi4, default
}

set PROPERTIES_ORIGIN ["COM"]
properties('MP2/aug-cc-pvtz', properties = ['dipole'])
--------------------------------------------------------------------------

    Molecular point group: c1
  Charge       = 0
  Multiplicity = 1
  Basis Set: AUG-CC-PVTZ
    Blend: AUG-CC-PVTZ
  Basis Set: (AUG-CC-PVTZ AUX)
    Blend: AUG-CC-PVTZ-JKFIT + DEF2-UNIVERSAL-JKFIT

    Orbital Energies [Eh]
    ---------------------

    Doubly Occupied:

       1A    -11.291177     2A    -11.255422     3A    -11.253645
       4A    -11.251943     5A    -11.251529     6A    -11.235249
       7A    -11.235204     8A    -11.228281     9A    -11.228280
      10A     -7.706889    11A     -5.538344    12A     -5.529049
      13A     -5.529038    14A     -2.267559    15A     -2.263138
      16A     -2.263115    17A     -2.252838    18A     -2.252838
      19A     -1.166255    20A     -1.072305    21A     -1.062403
      22A     -0.970194    23A     -0.934300    24A     -0.933827
      25A     -0.847573    26A     -0.792748    27A     -0.779525
      28A     -0.668593    29A     -0.668324    30A     -0.613653
      31A     -0.589453    32A     -0.586276    33A     -0.573518
      34A     -0.570757    35A     -0.565435    36A     -0.542287
      37A     -0.526397    38A     -0.508266    39A     -0.487332
      40A     -0.480045    41A     -0.445661    42A     -0.360196
      43A     -0.357909    44A     -0.326542    45A     -0.320425

  @DF-RHF Final Energy:  -641.98595626199233

   => Energetics <=

    Nuclear Repulsion Energy =            613.6575979669112257
    One-Electron Energy =               -2202.1196362320965818
    Two-Electron Energy =                 946.4760820031930280
    Total Energy =                       -641.9859562619923281
  Basis Set: (AUG-CC-PVTZ AUX)
    Blend: AUG-CC-PVTZ-RI + DEF2-QZVPP-RI
    Molecular point group: c1

    Geometry (in Angstrom), charge = 0, multiplicity = 1:

       Center              X                  Y                   Z               Mass
    ------------   -----------------  -----------------  -----------------  -----------------
         I            2.049836474286     0.000000782892    -0.222345422916   126.904471900000
         C           -0.849144525714    -0.000004217108     0.767046577084    12.000000000000
         C           -2.798530525714    -1.225305217108    -0.034936422916    12.000000000000
         C           -2.798523525714     1.225309782892    -0.034930422916    12.000000000000
         C           -1.504429525714     1.209750782892     0.498828577084    12.000000000000
         C           -1.504433525714    -1.209753217108     0.498823577084    12.000000000000
         C           -3.429550525714     0.000002782892    -0.294454422916    12.000000000000
         C            0.526853474286    -0.000007217108     1.339281577084    12.000000000000
         C           -3.512185525714    -2.529167217108    -0.291473422916    12.000000000000
         C           -3.512185525714     2.529167782892    -0.291471422916    12.000000000000
         H           -0.989480525714     2.150836782892     0.691425577084     1.007825032230
         H           -0.989488525714    -2.150843217108     0.691415577084     1.007825032230
         H           -4.619245025714     0.000007482892    -0.793492422916     1.007825032230
         H            0.732581474286    -0.892594217108     1.929348577084     1.007825032230
         H            0.732581474286     0.892574782892     1.929356577084     1.007825032230
         H           -4.200960525714    -2.442428217108    -1.135505422916     1.007825032230
         H           -4.096118525714    -2.833380217108     0.583373577084     1.007825032230
         H           -2.803373525714    -3.330818217108    -0.512934422916     1.007825032230
         H           -4.096455525714     2.833166782892     0.583224577084     1.007825032230
         H           -2.803356525714     3.330913782892    -0.512527422916     1.007825032230
         H           -4.200653525714     2.442536782892    -1.135764422916     1.007825032230

  Basis Set: AUG-CC-PVTZ
    Blend: AUG-CC-PVTZ
  Basis Set: (AUG-CC-PVTZ AUX)
    Blend: AUG-CC-PVTZ-JKFIT + DEF2-UNIVERSAL-JKFIT
	 Reference Energy          =    -641.9859562619923281 [Eh]
	 Singles Energy            =      -0.0000000000000000 [Eh]
	 Same-Spin Energy          =      -0.4681834010238308 [Eh]
	 Opposite-Spin Energy      =      -1.4548252318492634 [Eh]
	 Correlation Energy        =      -1.9230086328730942 [Eh]
	 Total Energy              =    -643.9089648948654485 [Eh]

	 ================> DF-SCS-MP2 Energies <==================
	-----------------------------------------------------------
	 SCS Same-Spin Scale       =       0.3333333333333333 [-]
	 SCS Opposite-Spin Scale   =       1.2000000000000000 [-]
	 SCS Same-Spin Energy      =      -0.1560611336746103 [Eh]
	 SCS Opposite-Spin Energy  =      -1.7457902782191159 [Eh]
	 SCS Correlation Energy    =      -1.9018514118937262 [Eh]
	 SCS Total Energy          =    -643.8878076738860727 [Eh]
	-----------------------------------------------------------

  Dipole Moment: [D]
     X:    -1.9778      Y:    -0.0000      Z:     0.9299     Total:     2.1855

*** Psi4 exiting successfully. Buy a developer a beer!
