                               Psi4 1.4a3.dev225

  ==> Input File <==

--------------------------------------------------------------------------
#psi4
#
memory 32 gb

molecule  {
0 1
  I        2.3447600     0.0000010    -0.2524410
  C       -0.5542210    -0.0000040     0.7369510
  C       -2.5036070    -1.2253050    -0.0650320
  C       -2.5036000     1.2253100    -0.0650260
  C       -1.2095060     1.2097510     0.4687330
  C       -1.2095100    -1.2097530     0.4687280
  C       -3.1346270     0.0000030    -0.3245500
  C        0.8217770    -0.0000070     1.3091860
  C       -3.2172620    -2.5291670    -0.3215690
  C       -3.2172620     2.5291680    -0.3215670
  H       -0.6945570     2.1508370     0.6613300
  H       -0.6945650    -2.1508430     0.6613200
  H       -4.1398900     0.0000070    -0.7462250
  H        1.0275050    -0.8925940     1.8992530
  H        1.0275050     0.8925750     1.8992610
  H       -3.9060370    -2.4424280    -1.1656010
  H       -3.8011950    -2.8333800     0.5532780
  H       -2.5084500    -3.3308180    -0.5430300
  H       -3.8934087     2.8320851     0.4846258
  H       -2.5084330     3.3309140    -0.5426230
  H       -3.9057300     2.4425370    -1.1658600
units angstrom
no_reorient  #important for SAPT in psi4, default
symmetry c1  #important for SAPT in psi4, default
}

set PROPERTIES_ORIGIN ["COM"]
properties('MP2/aug-cc-pvtz', properties = ['dipole'])
--------------------------------------------------------------------------

    Molecular point group: c1
  Charge       = 0
  Multiplicity = 1
  Basis Set: AUG-CC-PVTZ
    Blend: AUG-CC-PVTZ
  Basis Set: (AUG-CC-PVTZ AUX)
    Blend: AUG-CC-PVTZ-JKFIT + DEF2-UNIVERSAL-JKFIT

    Orbital Energies [Eh]
    ---------------------

    Doubly Occupied:

       1A    -11.290432     2A    -11.254227     3A    -11.249795
       4A    -11.249368     5A    -11.233661     6A    -11.233604
       7A    -11.231622     8A    -11.228422     9A    -11.228058
      10A     -7.706242    11A     -5.537688    12A     -5.528408
      13A     -5.528398    14A     -2.266901    15A     -2.262487
      16A     -2.262463    17A     -2.252205    18A     -2.252204
      19A     -1.165404    20A     -1.073212    21A     -1.061018
      22A     -0.970148    23A     -0.938595    24A     -0.933458
      25A     -0.849292    26A     -0.791552    27A     -0.783657
      28A     -0.682698    29A     -0.667250    30A     -0.618792
      31A     -0.590206    32A     -0.584045    33A     -0.573218
      34A     -0.571994    35A     -0.563927    36A     -0.554524
      37A     -0.526288    38A     -0.511877    39A     -0.488879
      40A     -0.485867    41A     -0.444660    42A     -0.359515
      43A     -0.357262    44A     -0.325209    45A     -0.318954

  @DF-RHF Final Energy:  -642.00667143537487

   => Energetics <=

    Nuclear Repulsion Energy =            614.5343516157605563
    One-Electron Energy =               -2203.9066753831984897
    Two-Electron Energy =                 947.3656523320631777
    Total Energy =                       -642.0066714353748694
  Basis Set: (AUG-CC-PVTZ AUX)
    Blend: AUG-CC-PVTZ-RI + DEF2-QZVPP-RI
    Molecular point group: c1

    Geometry (in Angstrom), charge = 0, multiplicity = 1:

       Center              X                  Y                   Z               Mass
    ------------   -----------------  -----------------  -----------------  -----------------
         I            2.049457276608     0.000005218312    -0.222381721580   126.904471900000
         C           -0.849523723392     0.000000218312     0.767010278420    12.000000000000
         C           -2.798909723392    -1.225300781688    -0.034972721580    12.000000000000
         C           -2.798902723392     1.225314218312    -0.034966721580    12.000000000000
         C           -1.504808723392     1.209755218312     0.498792278420    12.000000000000
         C           -1.504812723392    -1.209748781688     0.498787278420    12.000000000000
         C           -3.429929723392     0.000007218312    -0.294490721580    12.000000000000
         C            0.526474276608    -0.000002781688     1.339245278420    12.000000000000
         C           -3.512564723392    -2.529162781688    -0.291509721580    12.000000000000
         C           -3.512564723392     2.529172218312    -0.291507721580    12.000000000000
         H           -0.989859723392     2.150841218312     0.691389278420     1.007825032230
         H           -0.989867723392    -2.150838781688     0.691379278420     1.007825032230
         H           -4.435192723392     0.000011218312    -0.716165721580     1.007825032230
         H            0.732202276608    -0.892589781688     1.929312278420     1.007825032230
         H            0.732202276608     0.892579218312     1.929320278420     1.007825032230
         H           -4.201339723392    -2.442423781688    -1.135541721580     1.007825032230
         H           -4.096497723392    -2.833375781688     0.583337278420     1.007825032230
         H           -2.803752723392    -3.330813781688    -0.512970721580     1.007825032230
         H           -4.188711423392     2.832089318312     0.514685078420     1.007825032230
         H           -2.803735723392     3.330918218312    -0.512563721580     1.007825032230
         H           -4.201032723392     2.442541218312    -1.135800721580     1.007825032230

  Basis Set: AUG-CC-PVTZ
    Blend: AUG-CC-PVTZ
  Basis Set: (AUG-CC-PVTZ AUX)
    Blend: AUG-CC-PVTZ-JKFIT + DEF2-UNIVERSAL-JKFIT
	 Reference Energy          =    -642.0066714353748694 [Eh]
	 Singles Energy            =      -0.0000000000000000 [Eh]
	 Same-Spin Energy          =      -0.4676181602312827 [Eh]
	 Opposite-Spin Energy      =      -1.4526023127911636 [Eh]
	 Correlation Energy        =      -1.9202204730224461 [Eh]
	 Total Energy              =    -643.9268919083973515 [Eh]

	 ================> DF-SCS-MP2 Energies <==================
	-----------------------------------------------------------
	 SCS Same-Spin Scale       =       0.3333333333333333 [-]
	 SCS Opposite-Spin Scale   =       1.2000000000000000 [-]
	 SCS Same-Spin Energy      =      -0.1558727200770942 [Eh]
	 SCS Opposite-Spin Energy  =      -1.7431227753493963 [Eh]
	 SCS Correlation Energy    =      -1.8989954954264905 [Eh]
	 SCS Total Energy          =    -643.9056669308013170 [Eh]
	-----------------------------------------------------------

  Dipole Moment: [D]
     X:    -2.1254      Y:    -0.0233      Z:     0.8705     Total:     2.2969

*** Psi4 exiting successfully. Buy a developer a beer!
