                               Psi4 1.4a3.dev225

  ==> Input File <==

--------------------------------------------------------------------------
#psi4
#
memory 32 gb

molecule  {
0 1
  I        2.3447600     0.0000010    -0.2524410
  C       -0.5542210    -0.0000040     0.7369510
  C       -2.5036070    -1.2253050    -0.0650320
  C       -2.5036000     1.2253100    -0.0650260
  C       -1.2095060     1.2097510     0.4687330
  C       -1.2095100    -1.2097530     0.4687280
  C       -3.1346270     0.0000030    -0.3245500
  C        0.8217770    -0.0000070     1.3091860
  C       -3.2172620    -2.5291670    -0.3215690
  C       -3.2172620     2.5291680    -0.3215670
  H       -0.6945570     2.1508370     0.6613300
  H       -0.6945650    -2.1508430     0.6613200
  H       -4.1398900     0.0000070    -0.7462250
  H        1.0275050    -0.8925940     1.8992530
  H        1.0275050     0.8925750     1.8992610
  H       -3.9060370    -2.4424280    -1.1656010
  H       -3.8011950    -2.8333800     0.5532780
  H       -2.5084500    -3.3308180    -0.5430300
  H       -3.7855686     2.8330233     0.5636333
  H       -2.5084330     3.3309140    -0.5426230
  H       -3.9057300     2.4425370    -1.1658600
units angstrom
no_reorient  #important for SAPT in psi4, default
symmetry c1  #important for SAPT in psi4, default
}

set PROPERTIES_ORIGIN ["COM"]
properties('MP2/aug-cc-pvtz', properties = ['dipole'])
--------------------------------------------------------------------------

    Molecular point group: c1
  Charge       = 0
  Multiplicity = 1
  Basis Set: AUG-CC-PVTZ
    Blend: AUG-CC-PVTZ
  Basis Set: (AUG-CC-PVTZ AUX)
    Blend: AUG-CC-PVTZ-JKFIT + DEF2-UNIVERSAL-JKFIT

    Orbital Energies [Eh]
    ---------------------

    Doubly Occupied:

       1A    -11.290341     2A    -11.254118     3A    -11.249232
       4A    -11.249172     5A    -11.233187     6A    -11.233143
       7A    -11.231195     8A    -11.228357     9A    -11.228281
      10A     -7.706181    11A     -5.537627    12A     -5.528347
      13A     -5.528336    14A     -2.266840    15A     -2.262426
      16A     -2.262402    17A     -2.252143    18A     -2.252143
      19A     -1.165226    20A     -1.073119    21A     -1.061206
      22A     -0.969994    23A     -0.938612    24A     -0.932951
      25A     -0.849114    26A     -0.790898    27A     -0.783007
      28A     -0.682247    29A     -0.667029    30A     -0.617577
      31A     -0.588729    32A     -0.586302    33A     -0.573853
      34A     -0.573081    35A     -0.564181    36A     -0.555635
      37A     -0.525871    38A     -0.511235    39A     -0.489293
      40A     -0.485363    41A     -0.444547    42A     -0.359430
      43A     -0.357199    44A     -0.324833    45A     -0.318932

  @DF-RHF Final Energy:  -642.00789164800642

   => Energetics <=

    Nuclear Repulsion Energy =            614.6543993733878324
    One-Electron Energy =               -2204.1587177421442902
    Two-Electron Energy =                 947.4964267207500370
    Total Energy =                       -642.0078916480064208
  Basis Set: (AUG-CC-PVTZ AUX)
    Blend: AUG-CC-PVTZ-RI + DEF2-QZVPP-RI
    Molecular point group: c1

    Geometry (in Angstrom), charge = 0, multiplicity = 1:

       Center              X                  Y                   Z               Mass
    ------------   -----------------  -----------------  -----------------  -----------------
         I            2.049015454947     0.000001374500    -0.222705415872   126.904471900000
         C           -0.849965545053    -0.000003625500     0.766686584128    12.000000000000
         C           -2.799351545053    -1.225304625500    -0.035296415872    12.000000000000
         C           -2.799344545053     1.225310374500    -0.035290415872    12.000000000000
         C           -1.505250545053     1.209751374500     0.498468584128    12.000000000000
         C           -1.505254545053    -1.209752625500     0.498463584128    12.000000000000
         C           -3.430371545053     0.000003374500    -0.294814415872    12.000000000000
         C            0.526032454947    -0.000006625500     1.338921584128    12.000000000000
         C           -3.513006545053    -2.529166625500    -0.291833415872    12.000000000000
         C           -3.513006545053     2.529168374500    -0.291831415872    12.000000000000
         H           -0.990301545053     2.150837374500     0.691065584128     1.007825032230
         H           -0.990309545053    -2.150842625500     0.691055584128     1.007825032230
         H           -4.435634545053     0.000007374500    -0.716489415872     1.007825032230
         H            0.731760454947    -0.892593625500     1.928988584128     1.007825032230
         H            0.731760454947     0.892575374500     1.928996584128     1.007825032230
         H           -4.201781545053    -2.442427625500    -1.135865415872     1.007825032230
         H           -4.096939545053    -2.833379625500     0.583013584128     1.007825032230
         H           -2.804194545053    -3.330817625500    -0.513294415872     1.007825032230
         H           -4.081313145053     2.833023674500     0.593368884128     1.007825032230
         H           -2.804177545053     3.330914374500    -0.512887415872     1.007825032230
         H           -4.201474545053     2.442537374500    -1.136124415872     1.007825032230

  Basis Set: AUG-CC-PVTZ
    Blend: AUG-CC-PVTZ
  Basis Set: (AUG-CC-PVTZ AUX)
    Blend: AUG-CC-PVTZ-JKFIT + DEF2-UNIVERSAL-JKFIT
	 Reference Energy          =    -642.0078916480064208 [Eh]
	 Singles Energy            =      -0.0000000000000000 [Eh]
	 Same-Spin Energy          =      -0.4675687191985235 [Eh]
	 Opposite-Spin Energy      =      -1.4525728625390539 [Eh]
	 Correlation Energy        =      -1.9201415817375773 [Eh]
	 Total Energy              =    -643.9280332297439600 [Eh]

	 ================> DF-SCS-MP2 Energies <==================
	-----------------------------------------------------------
	 SCS Same-Spin Scale       =       0.3333333333333333 [-]
	 SCS Opposite-Spin Scale   =       1.2000000000000000 [-]
	 SCS Same-Spin Energy      =      -0.1558562397328412 [Eh]
	 SCS Opposite-Spin Energy  =      -1.7430874350468646 [Eh]
	 SCS Correlation Energy    =      -1.8989436747797057 [Eh]
	 SCS Total Energy          =    -643.9068353227861508 [Eh]
	-----------------------------------------------------------

  Dipole Moment: [D]
     X:    -2.0960      Y:     0.0043      Z:     0.8872     Total:     2.2760

*** Psi4 exiting successfully. Buy a developer a beer!
