                               Psi4 1.4a3.dev225

  ==> Input File <==

--------------------------------------------------------------------------
#psi4
#
memory 32 gb

molecule  {
0 1
  I        2.3447600     0.0000010    -0.2524410
  C       -0.5542210    -0.0000040     0.7369510
  C       -2.5036070    -1.2253050    -0.0650320
  C       -2.5036000     1.2253100    -0.0650260
  C       -1.2095060     1.2097510     0.4687330
  C       -1.2095100    -1.2097530     0.4687280
  C       -3.1346270     0.0000030    -0.3245500
  C        0.8217770    -0.0000070     1.3091860
  C       -3.2172620    -2.5291670    -0.3215690
  C       -3.2172620     2.5291680    -0.3215670
  H       -0.6945570     2.1508370     0.6613300
  H       -0.6945650    -2.1508430     0.6613200
  H       -4.1398900     0.0000070    -0.7462250
  H        1.0275050    -0.8925940     1.8992530
  H        1.0275050     0.8925750     1.8992610
  H       -3.9060370    -2.4424280    -1.1656010
  H       -3.8011950    -2.8333800     0.5532780
  H       -2.5084500    -3.3308180    -0.5430300
  H       -3.8015320     2.8331670     0.5531290
  H       -2.5408663     3.2942292    -0.5325083
  H       -3.9057300     2.4425370    -1.1658600
units angstrom
no_reorient  #important for SAPT in psi4, default
symmetry c1  #important for SAPT in psi4, default
}

set PROPERTIES_ORIGIN ["COM"]
properties('MP2/aug-cc-pvtz', properties = ['dipole'])
--------------------------------------------------------------------------

    Molecular point group: c1
  Charge       = 0
  Multiplicity = 1
  Basis Set: AUG-CC-PVTZ
    Blend: AUG-CC-PVTZ
  Basis Set: (AUG-CC-PVTZ AUX)
    Blend: AUG-CC-PVTZ-JKFIT + DEF2-UNIVERSAL-JKFIT

    Orbital Energies [Eh]
    ---------------------

    Doubly Occupied:

       1A    -11.290311     2A    -11.254061     3A    -11.249070
       4A    -11.248853     5A    -11.233177     6A    -11.233090
       7A    -11.230923     8A    -11.228172     9A    -11.222194
      10A     -7.706156    11A     -5.537600    12A     -5.528322
      13A     -5.528312    14A     -2.266813    15A     -2.262400
      16A     -2.262376    17A     -2.252119    18A     -2.252118
      19A     -1.165169    20A     -1.073196    21A     -1.061866
      22A     -0.970842    23A     -0.940509    24A     -0.933881
      25A     -0.849077    26A     -0.792126    27A     -0.783044
      28A     -0.682297    29A     -0.667610    30A     -0.617773
      31A     -0.589483    32A     -0.586999    33A     -0.575268
      34A     -0.572927    35A     -0.564936    36A     -0.557906
      37A     -0.527867    38A     -0.511524    39A     -0.489042
      40A     -0.485540    41A     -0.444560    42A     -0.359401
      43A     -0.357180    44A     -0.324858    45A     -0.318780

  @DF-RHF Final Energy:  -642.00692014358856

   => Energetics <=

    Nuclear Repulsion Energy =            614.8533932803227344
    One-Electron Energy =               -2204.5411702018054712
    Two-Electron Energy =                 947.6808567778941779
    Total Energy =                       -642.0069201435885589
  Basis Set: (AUG-CC-PVTZ AUX)
    Blend: AUG-CC-PVTZ-RI + DEF2-QZVPP-RI
    Molecular point group: c1

    Geometry (in Angstrom), charge = 0, multiplicity = 1:

       Center              X                  Y                   Z               Mass
    ------------   -----------------  -----------------  -----------------  -----------------
         I            2.049213736573     0.000151083648    -0.222703819678   126.904471900000
         C           -0.849767263427     0.000146083648     0.766688180322    12.000000000000
         C           -2.799153263427    -1.225154916352    -0.035294819678    12.000000000000
         C           -2.799146263427     1.225460083648    -0.035288819678    12.000000000000
         C           -1.505052263427     1.209901083648     0.498470180322    12.000000000000
         C           -1.505056263427    -1.209602916352     0.498465180322    12.000000000000
         C           -3.430173263427     0.000153083648    -0.294812819678    12.000000000000
         C            0.526230736573     0.000143083648     1.338923180322    12.000000000000
         C           -3.512808263427    -2.529016916352    -0.291831819678    12.000000000000
         C           -3.512808263427     2.529318083648    -0.291829819678    12.000000000000
         H           -0.990103263427     2.150987083648     0.691067180322     1.007825032230
         H           -0.990111263427    -2.150692916352     0.691057180322     1.007825032230
         H           -4.435436263427     0.000157083648    -0.716487819678     1.007825032230
         H            0.731958736573    -0.892443916352     1.928990180322     1.007825032230
         H            0.731958736573     0.892725083648     1.928998180322     1.007825032230
         H           -4.201583263427    -2.442277916352    -1.135863819678     1.007825032230
         H           -4.096741263427    -2.833229916352     0.583015180322     1.007825032230
         H           -2.803996263427    -3.330667916352    -0.513292819678     1.007825032230
         H           -4.097078263427     2.833317083648     0.582866180322     1.007825032230
         H           -2.836412563427     3.294379283648    -0.502771119678     1.007825032230
         H           -4.201276263427     2.442687083648    -1.136122819678     1.007825032230

  Basis Set: AUG-CC-PVTZ
    Blend: AUG-CC-PVTZ
  Basis Set: (AUG-CC-PVTZ AUX)
    Blend: AUG-CC-PVTZ-JKFIT + DEF2-UNIVERSAL-JKFIT
	 Reference Energy          =    -642.0069201435885589 [Eh]
	 Singles Energy            =      -0.0000000000000000 [Eh]
	 Same-Spin Energy          =      -0.4675591635382081 [Eh]
	 Opposite-Spin Energy      =      -1.4522663890400911 [Eh]
	 Correlation Energy        =      -1.9198255525782992 [Eh]
	 Total Energy              =    -643.9267456961669041 [Eh]

	 ================> DF-SCS-MP2 Energies <==================
	-----------------------------------------------------------
	 SCS Same-Spin Scale       =       0.3333333333333333 [-]
	 SCS Opposite-Spin Scale   =       1.2000000000000000 [-]
	 SCS Same-Spin Energy      =      -0.1558530545127360 [Eh]
	 SCS Opposite-Spin Energy  =      -1.7427196668481093 [Eh]
	 SCS Correlation Energy    =      -1.8985727213608454 [Eh]
	 SCS Total Energy          =    -643.9054928649494514 [Eh]
	-----------------------------------------------------------

  Dipole Moment: [D]
     X:    -2.0962      Y:     0.0253      Z:     0.8805     Total:     2.2737

*** Psi4 exiting successfully. Buy a developer a beer!
