                               Psi4 1.4a3.dev225

  ==> Input File <==

--------------------------------------------------------------------------
#psi4
#
memory 32 gb

molecule  {
0 1
  I        2.3447600     0.0000010    -0.2524410
  C       -0.5542210    -0.0000040     0.7369510
  C       -2.5036070    -1.2253050    -0.0650320
  C       -2.5036000     1.2253100    -0.0650260
  C       -1.2095060     1.2097510     0.4687330
  C       -1.2095100    -1.2097530     0.4687280
  C       -3.1346270     0.0000030    -0.3245500
  C        0.8217770    -0.0000070     1.3091860
  C       -3.2645751    -2.6156090    -0.3385766
  C       -3.2172620     2.5291680    -0.3215670
  H       -0.6945570     2.1508370     0.6613300
  H       -0.6945650    -2.1508430     0.6613200
  H       -4.1398900     0.0000070    -0.7462250
  H        1.0275050    -0.8925940     1.8992530
  H        1.0275050     0.8925750     1.8992610
  H       -3.9060370    -2.4424280    -1.1656010
  H       -3.8011950    -2.8333800     0.5532780
  H       -2.5084500    -3.3308180    -0.5430300
  H       -3.8015320     2.8331670     0.5531290
  H       -2.5084330     3.3309140    -0.5426230
  H       -3.9057300     2.4425370    -1.1658600
units angstrom
no_reorient  #important for SAPT in psi4, default
symmetry c1  #important for SAPT in psi4, default
}

set PROPERTIES_ORIGIN ["COM"]
properties('MP2/aug-cc-pvtz', properties = ['dipole'])
--------------------------------------------------------------------------

    Molecular point group: c1
  Charge       = 0
  Multiplicity = 1
  Basis Set: AUG-CC-PVTZ
    Blend: AUG-CC-PVTZ
  Basis Set: (AUG-CC-PVTZ AUX)
    Blend: AUG-CC-PVTZ-JKFIT + DEF2-UNIVERSAL-JKFIT

    Orbital Energies [Eh]
    ---------------------

    Doubly Occupied:

       1A    -11.290164     2A    -11.253835     3A    -11.252758
       4A    -11.248955     5A    -11.233168     6A    -11.232936
       7A    -11.231204     8A    -11.228089     9A    -11.226803
      10A     -7.706006    11A     -5.537448    12A     -5.528175
      13A     -5.528164    14A     -2.266661    15A     -2.262249
      16A     -2.262225    17A     -2.251973    18A     -2.251973
      19A     -1.163038    20A     -1.071415    21A     -1.053365
      22A     -0.969300    23A     -0.940166    24A     -0.933870
      25A     -0.848765    26A     -0.790800    27A     -0.782223
      28A     -0.681791    29A     -0.665399    30A     -0.612460
      31A     -0.593042    32A     -0.590011    33A     -0.577747
      34A     -0.571711    35A     -0.564092    36A     -0.554861
      37A     -0.532195    38A     -0.512438    39A     -0.489828
      40A     -0.470308    41A     -0.445681    42A     -0.359318
      43A     -0.357074    44A     -0.325868    45A     -0.318830

  @DF-RHF Final Energy:  -642.00057425244142

   => Energetics <=

    Nuclear Repulsion Energy =            612.8621234334500514
    One-Electron Energy =               -2200.5886270260953097
    Two-Electron Energy =                 945.7259293402038338
    Total Energy =                       -642.0005742524414245
  Basis Set: (AUG-CC-PVTZ AUX)
    Blend: AUG-CC-PVTZ-RI + DEF2-QZVPP-RI
    Molecular point group: c1

    Geometry (in Angstrom), charge = 0, multiplicity = 1:

       Center              X                  Y                   Z               Mass
    ------------   -----------------  -----------------  -----------------  -----------------
         I            2.051388901897     0.004217630722    -0.221832708775   126.904471900000
         C           -0.847592098103     0.004212630722     0.767559291225    12.000000000000
         C           -2.796978098103    -1.221088369278    -0.034423708775    12.000000000000
         C           -2.796971098103     1.229526630722    -0.034417708775    12.000000000000
         C           -1.502877098103     1.213967630722     0.499341291225    12.000000000000
         C           -1.502881098103    -1.205536369278     0.499336291225    12.000000000000
         C           -3.427998098103     0.004219630722    -0.293941708775    12.000000000000
         C            0.528405901897     0.004209630722     1.339794291225    12.000000000000
         C           -3.557946198103    -2.611392369278    -0.307968308775    12.000000000000
         C           -3.510633098103     2.533384630722    -0.290958708775    12.000000000000
         H           -0.987928098103     2.155053630722     0.691938291225     1.007825032230
         H           -0.987936098103    -2.146626369278     0.691928291225     1.007825032230
         H           -4.433261098103     0.004223630722    -0.715616708775     1.007825032230
         H            0.734133901897    -0.888377369278     1.929861291225     1.007825032230
         H            0.734133901897     0.896791630722     1.929869291225     1.007825032230
         H           -4.199408098103    -2.438211369278    -1.134992708775     1.007825032230
         H           -4.094566098103    -2.829163369278     0.583886291225     1.007825032230
         H           -2.801821098103    -3.326601369278    -0.512421708775     1.007825032230
         H           -4.094903098103     2.837383630722     0.583737291225     1.007825032230
         H           -2.801804098103     3.335130630722    -0.512014708775     1.007825032230
         H           -4.199101098103     2.446753630722    -1.135251708775     1.007825032230

  Basis Set: AUG-CC-PVTZ
    Blend: AUG-CC-PVTZ
  Basis Set: (AUG-CC-PVTZ AUX)
    Blend: AUG-CC-PVTZ-JKFIT + DEF2-UNIVERSAL-JKFIT
	 Reference Energy          =    -642.0005742524414245 [Eh]
	 Singles Energy            =      -0.0000000000000000 [Eh]
	 Same-Spin Energy          =      -0.4671308153584809 [Eh]
	 Opposite-Spin Energy      =      -1.4525046989857273 [Eh]
	 Correlation Energy        =      -1.9196355143442081 [Eh]
	 Total Energy              =    -643.9202097667856606 [Eh]

	 ================> DF-SCS-MP2 Energies <==================
	-----------------------------------------------------------
	 SCS Same-Spin Scale       =       0.3333333333333333 [-]
	 SCS Opposite-Spin Scale   =       1.2000000000000000 [-]
	 SCS Same-Spin Energy      =      -0.1557102717861603 [Eh]
	 SCS Opposite-Spin Energy  =      -1.7430056387828727 [Eh]
	 SCS Correlation Energy    =      -1.8987159105690330 [Eh]
	 SCS Total Energy          =    -643.8992901630105052 [Eh]
	-----------------------------------------------------------

  Dipole Moment: [D]
     X:    -2.0916      Y:     0.0171      Z:     0.8868     Total:     2.2719

*** Psi4 exiting successfully. Buy a developer a beer!
