                               Psi4 1.4a3.dev225

  ==> Input File <==

--------------------------------------------------------------------------
#psi4
#
memory 32 gb

molecule  {
0 1
  I        2.3447600     0.0000010    -0.2524410
  C       -0.5542210    -0.0000040     0.7369510
  C       -2.5036070    -1.2253050    -0.0650320
  C       -2.5036000     1.2253100    -0.0650260
  C       -1.2095060     1.2097510     0.4687330
  C       -1.0246309    -1.2075312     0.5449828
  C       -3.1346270     0.0000030    -0.3245500
  C        0.8217770    -0.0000070     1.3091860
  C       -3.2172620    -2.5291670    -0.3215690
  C       -3.2172620     2.5291680    -0.3215670
  H       -0.6945570     2.1508370     0.6613300
  H       -0.6945650    -2.1508430     0.6613200
  H       -4.1398900     0.0000070    -0.7462250
  H        1.0275050    -0.8925940     1.8992530
  H        1.0275050     0.8925750     1.8992610
  H       -3.9060370    -2.4424280    -1.1656010
  H       -3.8011950    -2.8333800     0.5532780
  H       -2.5084500    -3.3308180    -0.5430300
  H       -3.8015320     2.8331670     0.5531290
  H       -2.5084330     3.3309140    -0.5426230
  H       -3.9057300     2.4425370    -1.1658600
units angstrom
no_reorient  #important for SAPT in psi4, default
symmetry c1  #important for SAPT in psi4, default
}

set PROPERTIES_ORIGIN ["COM"]
properties('MP2/aug-cc-pvtz', properties = ['dipole'])
--------------------------------------------------------------------------

    Molecular point group: c1
  Charge       = 0
  Multiplicity = 1
  Basis Set: AUG-CC-PVTZ
    Blend: AUG-CC-PVTZ
  Basis Set: (AUG-CC-PVTZ AUX)
    Blend: AUG-CC-PVTZ-JKFIT + DEF2-UNIVERSAL-JKFIT

    Orbital Energies [Eh]
    ---------------------

    Doubly Occupied:

       1A    -11.285354     2A    -11.267024     3A    -11.253036
       4A    -11.245977     5A    -11.235325     6A    -11.231212
       7A    -11.230525     8A    -11.230372     9A    -11.229482
      10A     -7.703713    11A     -5.535057    12A     -5.525961
      13A     -5.525919    14A     -2.264259    15A     -2.259923
      16A     -2.259874    17A     -2.249806    18A     -2.249805
      19A     -1.163293    20A     -1.083016    21A     -1.049369
      22A     -0.967810    23A     -0.941773    24A     -0.935871
      25A     -0.843889    26A     -0.796516    27A     -0.776498
      28A     -0.695538    29A     -0.665954    30A     -0.617495
      31A     -0.589610    32A     -0.586342    33A     -0.585087
      34A     -0.573840    35A     -0.565187    36A     -0.556359
      37A     -0.525597    38A     -0.511831    39A     -0.499056
      40A     -0.458286    41A     -0.436847    42A     -0.359094
      43A     -0.355134    44A     -0.333778    45A     -0.307939

  @DF-RHF Final Energy:  -641.96603644908600

   => Energetics <=

    Nuclear Repulsion Energy =            614.1071421465029516
    One-Electron Energy =               -2203.0190890208564269
    Two-Electron Energy =                 946.9459104252673569
    Total Energy =                       -641.9660364490860047
  Basis Set: (AUG-CC-PVTZ AUX)
    Blend: AUG-CC-PVTZ-RI + DEF2-QZVPP-RI
    Molecular point group: c1

    Geometry (in Angstrom), charge = 0, multiplicity = 1:

       Center              X                  Y                   Z               Mass
    ------------   -----------------  -----------------  -----------------  -----------------
         I            2.040062017872    -0.000107598893    -0.226382268961   126.904471900000
         C           -0.858918982128    -0.000112598893     0.763009731039    12.000000000000
         C           -2.808304982128    -1.225413598893    -0.038973268961    12.000000000000
         C           -2.808297982128     1.225201401107    -0.038967268961    12.000000000000
         C           -1.514203982128     1.209642401107     0.494791731039    12.000000000000
         C           -1.329328882128    -1.207639798893     0.571041531039    12.000000000000
         C           -3.439324982128    -0.000105598893    -0.298491268961    12.000000000000
         C            0.517079017872    -0.000115598893     1.335244731039    12.000000000000
         C           -3.521959982128    -2.529275598893    -0.295510268961    12.000000000000
         C           -3.521959982128     2.529059401107    -0.295508268961    12.000000000000
         H           -0.999254982128     2.150728401107     0.687388731039     1.007825032230
         H           -0.999262982128    -2.150951598893     0.687378731039     1.007825032230
         H           -4.444587982128    -0.000101598893    -0.720166268961     1.007825032230
         H            0.722807017872    -0.892702598893     1.925311731039     1.007825032230
         H            0.722807017872     0.892466401107     1.925319731039     1.007825032230
         H           -4.210734982128    -2.442536598893    -1.139542268961     1.007825032230
         H           -4.105892982128    -2.833488598893     0.579336731039     1.007825032230
         H           -2.813147982128    -3.330926598893    -0.516971268961     1.007825032230
         H           -4.106229982128     2.833058401107     0.579187731039     1.007825032230
         H           -2.813130982128     3.330805401107    -0.516564268961     1.007825032230
         H           -4.210427982128     2.442428401107    -1.139801268961     1.007825032230

  Basis Set: AUG-CC-PVTZ
    Blend: AUG-CC-PVTZ
  Basis Set: (AUG-CC-PVTZ AUX)
    Blend: AUG-CC-PVTZ-JKFIT + DEF2-UNIVERSAL-JKFIT
	 Reference Energy          =    -641.9660364490860047 [Eh]
	 Singles Energy            =      -0.0000000000000000 [Eh]
	 Same-Spin Energy          =      -0.4670639456220520 [Eh]
	 Opposite-Spin Energy      =      -1.4544873937646718 [Eh]
	 Correlation Energy        =      -1.9215513393867238 [Eh]
	 Total Energy              =    -643.8875877884727288 [Eh]

	 ================> DF-SCS-MP2 Energies <==================
	-----------------------------------------------------------
	 SCS Same-Spin Scale       =       0.3333333333333333 [-]
	 SCS Opposite-Spin Scale   =       1.2000000000000000 [-]
	 SCS Same-Spin Energy      =      -0.1556879818740173 [Eh]
	 SCS Opposite-Spin Energy  =      -1.7453848725176062 [Eh]
	 SCS Correlation Energy    =      -1.9010728543916235 [Eh]
	 SCS Total Energy          =    -643.8671093034776050 [Eh]
	-----------------------------------------------------------

  Dipole Moment: [D]
     X:    -2.2303      Y:    -0.0815      Z:     0.8843     Total:     2.4006

*** Psi4 exiting successfully. Buy a developer a beer!
