                               Psi4 1.4a3.dev225

  ==> Input File <==

--------------------------------------------------------------------------
#psi4
#
memory 32 gb

molecule  {
0 1
  I        2.3447600     0.0000010    -0.2524410
  C       -0.5542210    -0.0000040     0.7369510
  C       -2.5036070    -1.2253050    -0.0650320
  C       -2.5036735     1.1764556    -0.0640353
  C       -1.2095060     1.2097510     0.4687330
  C       -1.2095100    -1.2097530     0.4687280
  C       -3.1346270     0.0000030    -0.3245500
  C        0.8217770    -0.0000070     1.3091860
  C       -3.2172620    -2.5291670    -0.3215690
  C       -3.2172620     2.5291680    -0.3215670
  H       -0.6945570     2.1508370     0.6613300
  H       -0.6945650    -2.1508430     0.6613200
  H       -4.1398900     0.0000070    -0.7462250
  H        1.0275050    -0.8925940     1.8992530
  H        1.0275050     0.8925750     1.8992610
  H       -3.9060370    -2.4424280    -1.1656010
  H       -3.8011950    -2.8333800     0.5532780
  H       -2.5084500    -3.3308180    -0.5430300
  H       -3.8015320     2.8331670     0.5531290
  H       -2.5084330     3.3309140    -0.5426230
  H       -3.9057300     2.4425370    -1.1658600
units angstrom
no_reorient  #important for SAPT in psi4, default
symmetry c1  #important for SAPT in psi4, default
}

set PROPERTIES_ORIGIN ["COM"]
properties('MP2/aug-cc-pvtz', properties = ['dipole'])
--------------------------------------------------------------------------

    Molecular point group: c1
  Charge       = 0
  Multiplicity = 1
  Basis Set: AUG-CC-PVTZ
    Blend: AUG-CC-PVTZ
  Basis Set: (AUG-CC-PVTZ AUX)
    Blend: AUG-CC-PVTZ-JKFIT + DEF2-UNIVERSAL-JKFIT

    Orbital Energies [Eh]
    ---------------------

    Doubly Occupied:

       1A    -11.290267     2A    -11.254062     3A    -11.249745
       4A    -11.246169     5A    -11.233203     6A    -11.232658
       7A    -11.228700     8A    -11.228495     9A    -11.226987
      10A     -7.706469    11A     -5.537920    12A     -5.528632
      13A     -5.528620    14A     -2.267133    15A     -2.262716
      16A     -2.262691    17A     -2.252423    18A     -2.252423
      19A     -1.168411    20A     -1.074674    21A     -1.057710
      22A     -0.969009    23A     -0.941572    24A     -0.930805
      25A     -0.849498    26A     -0.793664    27A     -0.781766
      28A     -0.684601    29A     -0.668237    30A     -0.615138
      31A     -0.587765    32A     -0.585013    33A     -0.575876
      34A     -0.570802    35A     -0.561998    36A     -0.554774
      37A     -0.526657    38A     -0.512607    39A     -0.492875
      40A     -0.477453    41A     -0.447063    42A     -0.360091
      43A     -0.357448    44A     -0.326484    45A     -0.321051

  @DF-RHF Final Energy:  -642.00621317338891

   => Energetics <=

    Nuclear Repulsion Energy =            615.1400445732657545
    One-Electron Energy =               -2205.1278054846347914
    Two-Electron Energy =                 947.9815477379802360
    Total Energy =                       -642.0062131733889146
  Basis Set: (AUG-CC-PVTZ AUX)
    Blend: AUG-CC-PVTZ-RI + DEF2-QZVPP-RI
    Molecular point group: c1

    Geometry (in Angstrom), charge = 0, multiplicity = 1:

       Center              X                  Y                   Z               Mass
    ------------   -----------------  -----------------  -----------------  -----------------
         I            2.049084442614     0.002384018801    -0.222710708366   126.904471900000
         C           -0.849896557386     0.002379018801     0.766681291634    12.000000000000
         C           -2.799282557386    -1.222921981199    -0.035301708366    12.000000000000
         C           -2.799349057386     1.178838618801    -0.034305008366    12.000000000000
         C           -1.505181557386     1.212134018801     0.498463291634    12.000000000000
         C           -1.505185557386    -1.207369981199     0.498458291634    12.000000000000
         C           -3.430302557386     0.002386018801    -0.294819708366    12.000000000000
         C            0.526101442614     0.002376018801     1.338916291634    12.000000000000
         C           -3.512937557386    -2.526783981199    -0.291838708366    12.000000000000
         C           -3.512937557386     2.531551018801    -0.291836708366    12.000000000000
         H           -0.990232557386     2.153220018801     0.691060291634     1.007825032230
         H           -0.990240557386    -2.148459981199     0.691050291634     1.007825032230
         H           -4.435565557386     0.002390018801    -0.716494708366     1.007825032230
         H            0.731829442614    -0.890210981199     1.928983291634     1.007825032230
         H            0.731829442614     0.894958018801     1.928991291634     1.007825032230
         H           -4.201712557386    -2.440044981199    -1.135870708366     1.007825032230
         H           -4.096870557386    -2.830996981199     0.583008291634     1.007825032230
         H           -2.804125557386    -3.328434981199    -0.513299708366     1.007825032230
         H           -4.097207557386     2.835550018801     0.582859291634     1.007825032230
         H           -2.804108557386     3.333297018801    -0.512892708366     1.007825032230
         H           -4.201405557386     2.444920018801    -1.136129708366     1.007825032230

  Basis Set: AUG-CC-PVTZ
    Blend: AUG-CC-PVTZ
  Basis Set: (AUG-CC-PVTZ AUX)
    Blend: AUG-CC-PVTZ-JKFIT + DEF2-UNIVERSAL-JKFIT
	 Reference Energy          =    -642.0062131733889146 [Eh]
	 Singles Energy            =      -0.0000000000000000 [Eh]
	 Same-Spin Energy          =      -0.4672202814705991 [Eh]
	 Opposite-Spin Energy      =      -1.4520884889911108 [Eh]
	 Correlation Energy        =      -1.9193087704617098 [Eh]
	 Total Energy              =    -643.9255219438506401 [Eh]

	 ================> DF-SCS-MP2 Energies <==================
	-----------------------------------------------------------
	 SCS Same-Spin Scale       =       0.3333333333333333 [-]
	 SCS Opposite-Spin Scale   =       1.2000000000000000 [-]
	 SCS Same-Spin Energy      =      -0.1557400938235330 [Eh]
	 SCS Opposite-Spin Energy  =      -1.7425061867893328 [Eh]
	 SCS Correlation Energy    =      -1.8982462806128657 [Eh]
	 SCS Total Energy          =    -643.9044594540017670 [Eh]
	-----------------------------------------------------------

  Dipole Moment: [D]
     X:    -2.0498      Y:    -0.0556      Z:     0.8953     Total:     2.2374

*** Psi4 exiting successfully. Buy a developer a beer!
