                               Psi4 1.4a3.dev225

  ==> Input File <==

--------------------------------------------------------------------------
#psi4
#
memory 32 gb

molecule  {
0 1
  I        2.3172739     0.0000011    -0.2787829
  C       -0.5542210    -0.0000040     0.7369510
  C       -2.5036070    -1.2253050    -0.0650320
  C       -2.5036000     1.2253100    -0.0650260
  C       -1.2095060     1.2097510     0.4687330
  C       -1.2095100    -1.2097530     0.4687280
  C       -3.1346270     0.0000030    -0.3245500
  C        0.8217770    -0.0000070     1.3091860
  C       -3.2172620    -2.5291670    -0.3215690
  C       -3.2172620     2.5291680    -0.3215670
  H       -0.6945570     2.1508370     0.6613300
  H       -0.6945650    -2.1508430     0.6613200
  H       -4.1398900     0.0000070    -0.7462250
  H        1.0275050    -0.8925940     1.8992530
  H        1.0275050     0.8925750     1.8992610
  H       -3.9060370    -2.4424280    -1.1656010
  H       -3.8011950    -2.8333800     0.5532780
  H       -2.5084500    -3.3308180    -0.5430300
  H       -3.8015320     2.8331670     0.5531290
  H       -2.5084330     3.3309140    -0.5426230
  H       -3.9057300     2.4425370    -1.1658600
units angstrom
no_reorient  #important for SAPT in psi4, default
symmetry c1  #important for SAPT in psi4, default
}

set PROPERTIES_ORIGIN ["COM"]
properties('MP2/aug-cc-pvtz', properties = ['dipole'])
--------------------------------------------------------------------------

    Molecular point group: c1
  Charge       = 0
  Multiplicity = 1
  Basis Set: AUG-CC-PVTZ
    Blend: AUG-CC-PVTZ
  Basis Set: (AUG-CC-PVTZ AUX)
    Blend: AUG-CC-PVTZ-JKFIT + DEF2-UNIVERSAL-JKFIT

    Orbital Energies [Eh]
    ---------------------

    Doubly Occupied:

       1A    -11.290490     2A    -11.253969     3A    -11.249092
       4A    -11.249065     5A    -11.232953     6A    -11.232911
       7A    -11.230938     8A    -11.228162     9A    -11.228161
      10A     -7.706261    11A     -5.537716    12A     -5.528428
      13A     -5.528406    14A     -2.266932    15A     -2.262517
      16A     -2.262484    17A     -2.252213    18A     -2.252212
      19A     -1.165104    20A     -1.073211    21A     -1.060977
      22A     -0.969818    23A     -0.938361    24A     -0.932843
      25A     -0.848997    26A     -0.790810    27A     -0.783263
      28A     -0.682099    29A     -0.666923    30A     -0.617717
      31A     -0.588679    32A     -0.585837    33A     -0.573349
      34A     -0.572944    35A     -0.564002    36A     -0.555547
      37A     -0.525786    38A     -0.511503    39A     -0.488996
      40A     -0.485266    41A     -0.444616    42A     -0.359840
      43A     -0.357471    44A     -0.324679    45A     -0.318242

  @DF-RHF Final Energy:  -642.00773586197874

   => Energetics <=

    Nuclear Repulsion Energy =            615.4060338935801155
    One-Electron Energy =               -2205.6679577477866587
    Two-Electron Energy =                 948.2541879922277985
    Total Energy =                       -642.0077358619787447
  Basis Set: (AUG-CC-PVTZ AUX)
    Blend: AUG-CC-PVTZ-RI + DEF2-QZVPP-RI
    Molecular point group: c1

    Geometry (in Angstrom), charge = 0, multiplicity = 1:

       Center              X                  Y                   Z               Mass
    ------------   -----------------  -----------------  -----------------  -----------------
         I            2.035774606881     0.000000834171    -0.235414713147   126.904471900000
         C           -0.835720293119    -0.000004265829     0.780319186853    12.000000000000
         C           -2.785106293119    -1.225305265829    -0.021663813147    12.000000000000
         C           -2.785099293119     1.225309734171    -0.021657813147    12.000000000000
         C           -1.491005293119     1.209750734171     0.512101186853    12.000000000000
         C           -1.491009293119    -1.209753265829     0.512096186853    12.000000000000
         C           -3.416126293119     0.000002734171    -0.281181813147    12.000000000000
         C            0.540277706881    -0.000007265829     1.352554186853    12.000000000000
         C           -3.498761293119    -2.529167265829    -0.278200813147    12.000000000000
         C           -3.498761293119     2.529167734171    -0.278198813147    12.000000000000
         H           -0.976056293119     2.150836734171     0.704698186853     1.007825032230
         H           -0.976064293119    -2.150843265829     0.704688186853     1.007825032230
         H           -4.421389293119     0.000006734171    -0.702856813147     1.007825032230
         H            0.746005706881    -0.892594265829     1.942621186853     1.007825032230
         H            0.746005706881     0.892574734171     1.942629186853     1.007825032230
         H           -4.187536293119    -2.442428265829    -1.122232813147     1.007825032230
         H           -4.082694293119    -2.833380265829     0.596646186853     1.007825032230
         H           -2.789949293119    -3.330818265829    -0.499661813147     1.007825032230
         H           -4.083031293119     2.833166734171     0.596497186853     1.007825032230
         H           -2.789932293119     3.330913734171    -0.499254813147     1.007825032230
         H           -4.187229293119     2.442536734171    -1.122491813147     1.007825032230

  Basis Set: AUG-CC-PVTZ
    Blend: AUG-CC-PVTZ
  Basis Set: (AUG-CC-PVTZ AUX)
    Blend: AUG-CC-PVTZ-JKFIT + DEF2-UNIVERSAL-JKFIT
	 Reference Energy          =    -642.0077358619787447 [Eh]
	 Singles Energy            =      -0.0000000000000000 [Eh]
	 Same-Spin Energy          =      -0.4676405700270591 [Eh]
	 Opposite-Spin Energy      =      -1.4526794503325136 [Eh]
	 Correlation Energy        =      -1.9203200203595725 [Eh]
	 Total Energy              =    -643.9280558823382989 [Eh]

	 ================> DF-SCS-MP2 Energies <==================
	-----------------------------------------------------------
	 SCS Same-Spin Scale       =       0.3333333333333333 [-]
	 SCS Opposite-Spin Scale   =       1.2000000000000000 [-]
	 SCS Same-Spin Energy      =      -0.1558801900090197 [Eh]
	 SCS Opposite-Spin Energy  =      -1.7432153403990163 [Eh]
	 SCS Correlation Energy    =      -1.8990955304080359 [Eh]
	 SCS Total Energy          =    -643.9068313923868345 [Eh]
	-----------------------------------------------------------

  Dipole Moment: [D]
     X:    -2.0649      Y:    -0.0000      Z:     0.8991     Total:     2.2522

*** Psi4 exiting successfully. Buy a developer a beer!
