                               Psi4 1.4a3.dev225

  ==> Input File <==

--------------------------------------------------------------------------
#psi4
#
memory 32 gb

molecule  {
0 1
  I        2.3447600     0.0000010    -0.2524410
  C       -0.5542210    -0.0000040     0.7369510
  C       -2.5036070    -1.2253050    -0.0650320
  C       -2.5021702     1.1276418    -0.0623954
  C       -1.2095060     1.2097510     0.4687330
  C       -1.2095100    -1.2097530     0.4687280
  C       -3.1346270     0.0000030    -0.3245500
  C        0.8217770    -0.0000070     1.3091860
  C       -3.2172620    -2.5291670    -0.3215690
  C       -3.2172620     2.5291680    -0.3215670
  H       -0.6945570     2.1508370     0.6613300
  H       -0.6945650    -2.1508430     0.6613200
  H       -4.1398900     0.0000070    -0.7462250
  H        1.0275050    -0.8925940     1.8992530
  H        1.0275050     0.8925750     1.8992610
  H       -3.9060370    -2.4424280    -1.1656010
  H       -3.8011950    -2.8333800     0.5532780
  H       -2.5084500    -3.3308180    -0.5430300
  H       -3.8015320     2.8331670     0.5531290
  H       -2.5084330     3.3309140    -0.5426230
  H       -3.9057300     2.4425370    -1.1658600
units angstrom
no_reorient  #important for SAPT in psi4, default
symmetry c1  #important for SAPT in psi4, default
}

set PROPERTIES_ORIGIN ["COM"]
properties('MP2/aug-cc-pvtz', properties = ['dipole'])
--------------------------------------------------------------------------

    Molecular point group: c1
  Charge       = 0
  Multiplicity = 1
  Basis Set: AUG-CC-PVTZ
    Blend: AUG-CC-PVTZ
  Basis Set: (AUG-CC-PVTZ AUX)
    Blend: AUG-CC-PVTZ-JKFIT + DEF2-UNIVERSAL-JKFIT

    Orbital Energies [Eh]
    ---------------------

    Doubly Occupied:

       1A    -11.290178     2A    -11.254067     3A    -11.250296
       4A    -11.243190     5A    -11.233369     6A    -11.232085
       7A    -11.228816     8A    -11.228705     9A    -11.222516
      10A     -7.706750    11A     -5.538208    12A     -5.528912
      13A     -5.528897    14A     -2.267421    15A     -2.263002
      16A     -2.262975    17A     -2.252697    18A     -2.252696
      19A     -1.172216    20A     -1.076781    21A     -1.054985
      22A     -0.968581    23A     -0.944304    24A     -0.928174
      25A     -0.849917    26A     -0.796152    27A     -0.780264
      28A     -0.687057    29A     -0.669611    30A     -0.613375
      31A     -0.587065    32A     -0.584781    33A     -0.579945
      34A     -0.567932    35A     -0.559323    36A     -0.553864
      37A     -0.527393    38A     -0.514185    39A     -0.496548
      40A     -0.466007    41A     -0.449337    42A     -0.360879
      43A     -0.357681    44A     -0.330283    45A     -0.320959

  @DF-RHF Final Energy:  -641.99836659910795

   => Energetics <=

    Nuclear Repulsion Energy =            615.6889485376804032
    One-Electron Energy =               -2206.2098769232316045
    Two-Electron Energy =                 948.5225617864431342
    Total Energy =                       -641.9983665991079533
  Basis Set: (AUG-CC-PVTZ AUX)
    Blend: AUG-CC-PVTZ-RI + DEF2-QZVPP-RI
    Molecular point group: c1

    Geometry (in Angstrom), charge = 0, multiplicity = 1:

       Center              X                  Y                   Z               Mass
    ------------   -----------------  -----------------  -----------------  -----------------
         I            2.049011108089     0.004765271278    -0.222790706562   126.904471900000
         C           -0.849969891911     0.004760271278     0.766601293438    12.000000000000
         C           -2.799355891911    -1.220540728722    -0.035381706562    12.000000000000
         C           -2.797919091911     1.132406071278    -0.032745106562    12.000000000000
         C           -1.505254891911     1.214515271278     0.498383293438    12.000000000000
         C           -1.505258891911    -1.204988728722     0.498378293438    12.000000000000
         C           -3.430375891911     0.004767271278    -0.294899706562    12.000000000000
         C            0.526028108089     0.004757271278     1.338836293438    12.000000000000
         C           -3.513010891911    -2.524402728722    -0.291918706562    12.000000000000
         C           -3.513010891911     2.533932271278    -0.291916706562    12.000000000000
         H           -0.990305891911     2.155601271278     0.690980293438     1.007825032230
         H           -0.990313891911    -2.146078728722     0.690970293438     1.007825032230
         H           -4.435638891911     0.004771271278    -0.716574706562     1.007825032230
         H            0.731756108089    -0.887829728722     1.928903293438     1.007825032230
         H            0.731756108089     0.897339271278     1.928911293438     1.007825032230
         H           -4.201785891911    -2.437663728722    -1.135950706562     1.007825032230
         H           -4.096943891911    -2.828615728722     0.582928293438     1.007825032230
         H           -2.804198891911    -3.326053728722    -0.513379706562     1.007825032230
         H           -4.097280891911     2.837931271278     0.582779293438     1.007825032230
         H           -2.804181891911     3.335678271278    -0.512972706562     1.007825032230
         H           -4.201478891911     2.447301271278    -1.136209706562     1.007825032230

  Basis Set: AUG-CC-PVTZ
    Blend: AUG-CC-PVTZ
  Basis Set: (AUG-CC-PVTZ AUX)
    Blend: AUG-CC-PVTZ-JKFIT + DEF2-UNIVERSAL-JKFIT
	 Reference Energy          =    -641.9983665991079533 [Eh]
	 Singles Energy            =      -0.0000000000000000 [Eh]
	 Same-Spin Energy          =      -0.4670177245270787 [Eh]
	 Opposite-Spin Energy      =      -1.4519854261964553 [Eh]
	 Correlation Energy        =      -1.9190031507235341 [Eh]
	 Total Energy              =    -643.9173697498314368 [Eh]

	 ================> DF-SCS-MP2 Energies <==================
	-----------------------------------------------------------
	 SCS Same-Spin Scale       =       0.3333333333333333 [-]
	 SCS Opposite-Spin Scale   =       1.2000000000000000 [-]
	 SCS Same-Spin Energy      =      -0.1556725748423596 [Eh]
	 SCS Opposite-Spin Energy  =      -1.7423825114357463 [Eh]
	 SCS Correlation Energy    =      -1.8980550862781058 [Eh]
	 SCS Total Energy          =    -643.8964216853860307 [Eh]
	-----------------------------------------------------------

  Dipole Moment: [D]
     X:    -1.9990      Y:    -0.1139      Z:     0.9055     Total:     2.1975

*** Psi4 exiting successfully. Buy a developer a beer!
