                               Psi4 1.4a3.dev225

  ==> Input File <==

--------------------------------------------------------------------------
#psi4
#
memory 32 gb

molecule  {
0 1
  I        2.3447600     0.0000010    -0.2524410
  C       -0.5542210    -0.0000040     0.7369510
  C       -2.5036070    -1.2253050    -0.0650320
  C       -2.5036000     1.2253100    -0.0650260
  C       -1.2165975     1.3561071     0.4700783
  C       -1.2095100    -1.2097530     0.4687280
  C       -3.1346270     0.0000030    -0.3245500
  C        0.8217770    -0.0000070     1.3091860
  C       -3.2172620    -2.5291670    -0.3215690
  C       -3.2172620     2.5291680    -0.3215670
  H       -0.6945570     2.1508370     0.6613300
  H       -0.6945650    -2.1508430     0.6613200
  H       -4.1398900     0.0000070    -0.7462250
  H        1.0275050    -0.8925940     1.8992530
  H        1.0275050     0.8925750     1.8992610
  H       -3.9060370    -2.4424280    -1.1656010
  H       -3.8011950    -2.8333800     0.5532780
  H       -2.5084500    -3.3308180    -0.5430300
  H       -3.8015320     2.8331670     0.5531290
  H       -2.5084330     3.3309140    -0.5426230
  H       -3.9057300     2.4425370    -1.1658600
units angstrom
no_reorient  #important for SAPT in psi4, default
symmetry c1  #important for SAPT in psi4, default
}

set PROPERTIES_ORIGIN ["COM"]
properties('MP2/aug-cc-pvtz', properties = ['dipole'])
--------------------------------------------------------------------------

    Molecular point group: c1
  Charge       = 0
  Multiplicity = 1
  Basis Set: AUG-CC-PVTZ
    Blend: AUG-CC-PVTZ
  Basis Set: (AUG-CC-PVTZ AUX)
    Blend: AUG-CC-PVTZ-JKFIT + DEF2-UNIVERSAL-JKFIT

    Orbital Energies [Eh]
    ---------------------

    Doubly Occupied:

       1A    -11.289808     2A    -11.267345     3A    -11.253420
       4A    -11.251505     5A    -11.235210     6A    -11.234777
       7A    -11.231636     8A    -11.230099     9A    -11.223808
      10A     -7.706245    11A     -5.537699    12A     -5.528408
      13A     -5.528388    14A     -2.266913    15A     -2.262499
      16A     -2.262464    17A     -2.252196    18A     -2.252196
      19A     -1.156655    20A     -1.068396    21A     -1.064042
      22A     -0.965028    23A     -0.941234    24A     -0.932295
      25A     -0.850082    26A     -0.798151    27A     -0.772753
      28A     -0.698839    29A     -0.663307    30A     -0.622360
      31A     -0.592804    32A     -0.585321    33A     -0.576929
      34A     -0.572111    35A     -0.569362    36A     -0.556731
      37A     -0.521301    38A     -0.509218    39A     -0.494890
      40A     -0.466773    41A     -0.442833    42A     -0.359221
      43A     -0.357325    44A     -0.328967    45A     -0.309615

  @DF-RHF Final Energy:  -641.97840837418846

   => Energetics <=

    Nuclear Repulsion Energy =            612.4176878424933648
    One-Electron Energy =               -2199.6098768256047151
    Two-Electron Energy =                 945.2137806089230025
    Total Energy =                       -641.9784083741884615
  Basis Set: (AUG-CC-PVTZ AUX)
    Blend: AUG-CC-PVTZ-RI + DEF2-QZVPP-RI
    Molecular point group: c1

    Geometry (in Angstrom), charge = 0, multiplicity = 1:

       Center              X                  Y                   Z               Mass
    ------------   -----------------  -----------------  -----------------  -----------------
         I            2.049426797233    -0.007138810536    -0.222728006592   126.904471900000
         C           -0.849554202767    -0.007143810536     0.766663993408    12.000000000000
         C           -2.798940202767    -1.232444810536    -0.035319006592    12.000000000000
         C           -2.798933202767     1.218170189464    -0.035313006592    12.000000000000
         C           -1.511930702767     1.348967289464     0.499791293408    12.000000000000
         C           -1.504843202767    -1.216892810536     0.498440993408    12.000000000000
         C           -3.429960202767    -0.007136810536    -0.294837006592    12.000000000000
         C            0.526443797233    -0.007146810536     1.338898993408    12.000000000000
         C           -3.512595202767    -2.536306810536    -0.291856006592    12.000000000000
         C           -3.512595202767     2.522028189464    -0.291854006592    12.000000000000
         H           -0.989890202767     2.143697189464     0.691042993408     1.007825032230
         H           -0.989898202767    -2.157982810536     0.691032993408     1.007825032230
         H           -4.435223202767    -0.007132810536    -0.716512006592     1.007825032230
         H            0.732171797233    -0.899733810536     1.928965993408     1.007825032230
         H            0.732171797233     0.885435189464     1.928973993408     1.007825032230
         H           -4.201370202767    -2.449567810536    -1.135888006592     1.007825032230
         H           -4.096528202767    -2.840519810536     0.582990993408     1.007825032230
         H           -2.803783202767    -3.337957810536    -0.513317006592     1.007825032230
         H           -4.096865202767     2.826027189464     0.582841993408     1.007825032230
         H           -2.803766202767     3.323774189464    -0.512910006592     1.007825032230
         H           -4.201063202767     2.435397189464    -1.136147006592     1.007825032230

  Basis Set: AUG-CC-PVTZ
    Blend: AUG-CC-PVTZ
  Basis Set: (AUG-CC-PVTZ AUX)
    Blend: AUG-CC-PVTZ-JKFIT + DEF2-UNIVERSAL-JKFIT
	 Reference Energy          =    -641.9784083741884615 [Eh]
	 Singles Energy            =      -0.0000000000000000 [Eh]
	 Same-Spin Energy          =      -0.4677367114409269 [Eh]
	 Opposite-Spin Energy      =      -1.4544006408852033 [Eh]
	 Correlation Energy        =      -1.9221373523261303 [Eh]
	 Total Energy              =    -643.9005457265145651 [Eh]

	 ================> DF-SCS-MP2 Energies <==================
	-----------------------------------------------------------
	 SCS Same-Spin Scale       =       0.3333333333333333 [-]
	 SCS Opposite-Spin Scale   =       1.2000000000000000 [-]
	 SCS Same-Spin Energy      =      -0.1559122371469756 [Eh]
	 SCS Opposite-Spin Energy  =      -1.7452807690622438 [Eh]
	 SCS Correlation Energy    =      -1.9011930062092195 [Eh]
	 SCS Total Energy          =    -643.8796013803977303 [Eh]
	-----------------------------------------------------------

  Dipole Moment: [D]
     X:    -2.1163      Y:    -0.0770      Z:     0.9029     Total:     2.3022

*** Psi4 exiting successfully. Buy a developer a beer!
