                               Psi4 1.4a3.dev225

  ==> Input File <==

--------------------------------------------------------------------------
#psi4
#
memory 32 gb

molecule  {
0 1
  I        2.3447600     0.0000010    -0.2524410
  C       -0.5542210    -0.0000040     0.7369510
  C       -2.5036070    -1.2253050    -0.0650320
  C       -2.5036000     1.2253100    -0.0650260
  C       -1.2095060     1.2097510     0.4687330
  C       -1.2095100    -1.2097530     0.4687280
  C       -3.1346270     0.0000030    -0.3245500
  C        0.8217770    -0.0000070     1.3091860
  C       -3.3118882    -2.7020509    -0.3555842
  C       -3.2172620     2.5291680    -0.3215670
  H       -0.6945570     2.1508370     0.6613300
  H       -0.6945650    -2.1508430     0.6613200
  H       -4.1398900     0.0000070    -0.7462250
  H        1.0275050    -0.8925940     1.8992530
  H        1.0275050     0.8925750     1.8992610
  H       -3.9060370    -2.4424280    -1.1656010
  H       -3.8011950    -2.8333800     0.5532780
  H       -2.5084500    -3.3308180    -0.5430300
  H       -3.8015320     2.8331670     0.5531290
  H       -2.5084330     3.3309140    -0.5426230
  H       -3.9057300     2.4425370    -1.1658600
units angstrom
no_reorient  #important for SAPT in psi4, default
symmetry c1  #important for SAPT in psi4, default
}

set PROPERTIES_ORIGIN ["COM"]
properties('MP2/aug-cc-pvtz', properties = ['dipole'])
--------------------------------------------------------------------------

    Molecular point group: c1
  Charge       = 0
  Multiplicity = 1
  Basis Set: AUG-CC-PVTZ
    Blend: AUG-CC-PVTZ
  Basis Set: (AUG-CC-PVTZ AUX)
    Blend: AUG-CC-PVTZ-JKFIT + DEF2-UNIVERSAL-JKFIT

    Orbital Energies [Eh]
    ---------------------

    Doubly Occupied:

       1A    -11.290000     2A    -11.255018     3A    -11.253575
       4A    -11.248696     5A    -11.233218     6A    -11.232717
       7A    -11.231265     8A    -11.228568     9A    -11.227905
      10A     -7.705843    11A     -5.537282    12A     -5.528014
      13A     -5.528003    14A     -2.266494    15A     -2.262085
      16A     -2.262061    17A     -2.251815    18A     -2.251815
      19A     -1.161574    20A     -1.070688    21A     -1.047138
      22A     -0.968981    23A     -0.942749    24A     -0.933925
      25A     -0.848450    26A     -0.790399    27A     -0.781456
      28A     -0.681403    29A     -0.664266    30A     -0.610016
      31A     -0.603912    32A     -0.596197    33A     -0.578844
      34A     -0.576064    35A     -0.566699    36A     -0.546562
      37A     -0.533857    38A     -0.512830    39A     -0.490116
      40A     -0.449951    41A     -0.444548    42A     -0.359179
      43A     -0.356937    44A     -0.326360    45A     -0.318609

  @DF-RHF Final Energy:  -641.98047800449035

   => Energetics <=

    Nuclear Repulsion Energy =            611.1720420976904506
    One-Electron Energy =               -2197.1928760187361149
    Two-Electron Energy =                 944.0403559165554270
    Total Energy =                       -641.9804780044903509
  Basis Set: (AUG-CC-PVTZ AUX)
    Blend: AUG-CC-PVTZ-RI + DEF2-QZVPP-RI
    Molecular point group: c1

    Geometry (in Angstrom), charge = 0, multiplicity = 1:

       Center              X                  Y                   Z               Mass
    ------------   -----------------  -----------------  -----------------  -----------------
         I            2.053696946683     0.008434470807    -0.221003037870   126.904471900000
         C           -0.845284053317     0.008429470807     0.768388962130    12.000000000000
         C           -2.794670053317    -1.216871529193    -0.033594037870    12.000000000000
         C           -2.794663053317     1.233743470807    -0.033588037870    12.000000000000
         C           -1.500569053317     1.218184470807     0.500170962130    12.000000000000
         C           -1.500573053317    -1.201319529193     0.500165962130    12.000000000000
         C           -3.425690053317     0.008436470807    -0.293112037870    12.000000000000
         C            0.530713946683     0.008426470807     1.340623962130    12.000000000000
         C           -3.602951253317    -2.693617429193    -0.324146237870    12.000000000000
         C           -3.508325053317     2.537601470807    -0.290129037870    12.000000000000
         H           -0.985620053317     2.159270470807     0.692767962130     1.007825032230
         H           -0.985628053317    -2.142409529193     0.692757962130     1.007825032230
         H           -4.430953053317     0.008440470807    -0.714787037870     1.007825032230
         H            0.736441946683    -0.884160529193     1.930690962130     1.007825032230
         H            0.736441946683     0.901008470807     1.930698962130     1.007825032230
         H           -4.197100053317    -2.433994529193    -1.134163037870     1.007825032230
         H           -4.092258053317    -2.824946529193     0.584715962130     1.007825032230
         H           -2.799513053317    -3.322384529193    -0.511592037870     1.007825032230
         H           -4.092595053317     2.841600470807     0.584566962130     1.007825032230
         H           -2.799496053317     3.339347470807    -0.511185037870     1.007825032230
         H           -4.196793053317     2.450970470807    -1.134422037870     1.007825032230

  Basis Set: AUG-CC-PVTZ
    Blend: AUG-CC-PVTZ
  Basis Set: (AUG-CC-PVTZ AUX)
    Blend: AUG-CC-PVTZ-JKFIT + DEF2-UNIVERSAL-JKFIT
	 Reference Energy          =    -641.9804780044903509 [Eh]
	 Singles Energy            =      -0.0000000000000000 [Eh]
	 Same-Spin Energy          =      -0.4673969294705732 [Eh]
	 Opposite-Spin Energy      =      -1.4536682149986739 [Eh]
	 Correlation Energy        =      -1.9210651444692473 [Eh]
	 Total Energy              =    -643.9015431489596040 [Eh]

	 ================> DF-SCS-MP2 Energies <==================
	-----------------------------------------------------------
	 SCS Same-Spin Scale       =       0.3333333333333333 [-]
	 SCS Opposite-Spin Scale   =       1.2000000000000000 [-]
	 SCS Same-Spin Energy      =      -0.1557989764901911 [Eh]
	 SCS Opposite-Spin Energy  =      -1.7444018579984086 [Eh]
	 SCS Correlation Energy    =      -1.9002008344885997 [Eh]
	 SCS Total Energy          =    -643.8806788389789517 [Eh]
	-----------------------------------------------------------

  Dipole Moment: [D]
     X:    -2.0653      Y:     0.0625      Z:     0.8933     Total:     2.2511

*** Psi4 exiting successfully. Buy a developer a beer!
