                               Psi4 1.4a3.dev225

  ==> Input File <==

--------------------------------------------------------------------------
#psi4
#
memory 32 gb

molecule  {
0 1
  I        2.4499837     0.0000004    -0.1423990
  C       -0.5542210    -0.0000040     0.7369510
  C       -2.5036070    -1.2253050    -0.0650320
  C       -2.5036000     1.2253100    -0.0650260
  C       -1.2095060     1.2097510     0.4687330
  C       -1.2095100    -1.2097530     0.4687280
  C       -3.1346270     0.0000030    -0.3245500
  C        0.8217770    -0.0000070     1.3091860
  C       -3.2172620    -2.5291670    -0.3215690
  C       -3.2172620     2.5291680    -0.3215670
  H       -0.6945570     2.1508370     0.6613300
  H       -0.6945650    -2.1508430     0.6613200
  H       -4.1398900     0.0000070    -0.7462250
  H        1.0275050    -0.8925940     1.8992530
  H        1.0275050     0.8925750     1.8992610
  H       -3.9060370    -2.4424280    -1.1656010
  H       -3.8011950    -2.8333800     0.5532780
  H       -2.5084500    -3.3308180    -0.5430300
  H       -3.8015320     2.8331670     0.5531290
  H       -2.5084330     3.3309140    -0.5426230
  H       -3.9057300     2.4425370    -1.1658600
units angstrom
no_reorient  #important for SAPT in psi4, default
symmetry c1  #important for SAPT in psi4, default
}

set PROPERTIES_ORIGIN ["COM"]
properties('MP2/aug-cc-pvtz', properties = ['dipole'])
--------------------------------------------------------------------------

    Molecular point group: c1
  Charge       = 0
  Multiplicity = 1
  Basis Set: AUG-CC-PVTZ
    Blend: AUG-CC-PVTZ
  Basis Set: (AUG-CC-PVTZ AUX)
    Blend: AUG-CC-PVTZ-JKFIT + DEF2-UNIVERSAL-JKFIT

    Orbital Energies [Eh]
    ---------------------

    Doubly Occupied:

       1A    -11.289813     2A    -11.254865     3A    -11.249916
       4A    -11.249888     5A    -11.234410     6A    -11.234366
       7A    -11.232471     8A    -11.228843     9A    -11.228842
      10A     -7.705980    11A     -5.537406    12A     -5.528172
      13A     -5.528135    14A     -2.266609    15A     -2.262207
      16A     -2.262191    17A     -2.251968    18A     -2.251967
      19A     -1.165841    20A     -1.072894    21A     -1.061896
      22A     -0.970797    23A     -0.939507    24A     -0.933668
      25A     -0.849756    26A     -0.791638    27A     -0.782441
      28A     -0.683114    29A     -0.667536    30A     -0.617784
      31A     -0.589020    32A     -0.586525    33A     -0.574056
      34A     -0.573610    35A     -0.564958    36A     -0.556345
      37A     -0.526583    38A     -0.510884    39A     -0.490226
      40A     -0.486176    41A     -0.444326    42A     -0.358050
      43A     -0.356253    44A     -0.325760    45A     -0.321316

  @DF-RHF Final Energy:  -642.00777978779377

   => Energetics <=

    Nuclear Repulsion Energy =            611.7306865601567551
    One-Electron Energy =               -2198.2789104410658183
    Two-Electron Energy =                 944.5404440931152976
    Total Energy =                       -642.0077797877937655
  Basis Set: (AUG-CC-PVTZ AUX)
    Blend: AUG-CC-PVTZ-RI + DEF2-QZVPP-RI
    Molecular point group: c1

    Geometry (in Angstrom), charge = 0, multiplicity = 1:

       Center              X                  Y                   Z               Mass
    ------------   -----------------  -----------------  -----------------  -----------------
         I            2.100020527790     0.000000495295    -0.169390129789   126.904471900000
         C           -0.904184172210    -0.000003904705     0.709959870211    12.000000000000
         C           -2.853570172210    -1.225304904705    -0.092023129789    12.000000000000
         C           -2.853563172210     1.225310095295    -0.092017129789    12.000000000000
         C           -1.559469172210     1.209751095295     0.441741870211    12.000000000000
         C           -1.559473172210    -1.209752904705     0.441736870211    12.000000000000
         C           -3.484590172210     0.000003095295    -0.351541129789    12.000000000000
         C            0.471813827790    -0.000006904705     1.282194870211    12.000000000000
         C           -3.567225172210    -2.529166904705    -0.348560129789    12.000000000000
         C           -3.567225172210     2.529168095295    -0.348558129789    12.000000000000
         H           -1.044520172210     2.150837095295     0.634338870211     1.007825032230
         H           -1.044528172210    -2.150842904705     0.634328870211     1.007825032230
         H           -4.489853172210     0.000007095295    -0.773216129789     1.007825032230
         H            0.677541827790    -0.892593904705     1.872261870211     1.007825032230
         H            0.677541827790     0.892575095295     1.872269870211     1.007825032230
         H           -4.256000172210    -2.442427904705    -1.192592129789     1.007825032230
         H           -4.151158172210    -2.833379904705     0.526286870211     1.007825032230
         H           -2.858413172210    -3.330817904705    -0.570021129789     1.007825032230
         H           -4.151495172210     2.833167095295     0.526137870211     1.007825032230
         H           -2.858396172210     3.330914095295    -0.569614129789     1.007825032230
         H           -4.255693172210     2.442537095295    -1.192851129789     1.007825032230

  Basis Set: AUG-CC-PVTZ
    Blend: AUG-CC-PVTZ
  Basis Set: (AUG-CC-PVTZ AUX)
    Blend: AUG-CC-PVTZ-JKFIT + DEF2-UNIVERSAL-JKFIT
	 Reference Energy          =    -642.0077797877937655 [Eh]
	 Singles Energy            =      -0.0000000000000000 [Eh]
	 Same-Spin Energy          =      -0.4673362145295573 [Eh]
	 Opposite-Spin Energy      =      -1.4522195619335292 [Eh]
	 Correlation Energy        =      -1.9195557764630864 [Eh]
	 Total Energy              =    -643.9273355642568504 [Eh]

	 ================> DF-SCS-MP2 Energies <==================
	-----------------------------------------------------------
	 SCS Same-Spin Scale       =       0.3333333333333333 [-]
	 SCS Opposite-Spin Scale   =       1.2000000000000000 [-]
	 SCS Same-Spin Energy      =      -0.1557787381765191 [Eh]
	 SCS Opposite-Spin Energy  =      -1.7426634743202349 [Eh]
	 SCS Correlation Energy    =      -1.8984422124967539 [Eh]
	 SCS Total Energy          =    -643.9062220002905406 [Eh]
	-----------------------------------------------------------

  Dipole Moment: [D]
     X:    -2.2337      Y:    -0.0000      Z:     0.8266     Total:     2.3818

*** Psi4 exiting successfully. Buy a developer a beer!
