                               Psi4 1.4a3.dev225

  ==> Input File <==

--------------------------------------------------------------------------
#psi4
#
memory 32 gb

molecule  {
0 1
  I        2.3447600     0.0000010    -0.2524410
  C       -0.5542210    -0.0000040     0.7369510
  C       -2.5036070    -1.2253050    -0.0650320
  C       -2.5036000     1.2253100    -0.0650260
  C       -1.2095060     1.2097510     0.4687330
  C       -1.2095100    -1.2097530     0.4687280
  C       -3.1346270     0.0000030    -0.3245500
  C        0.8217770    -0.0000070     1.3091860
  C       -3.2172620    -2.5291670    -0.3215690
  C       -3.2172620     2.5291680    -0.3215670
  H       -0.6945570     2.1508370     0.6613300
  H       -0.6945650    -2.1508430     0.6613200
  H       -4.1398900     0.0000070    -0.7462250
  H        1.0275050    -0.8925940     1.8992530
  H        1.0275050     0.8925750     1.8992610
  H       -3.9060370    -2.4424280    -1.1656010
  H       -3.8011950    -2.8333800     0.5532780
  H       -2.5084500    -3.3308180    -0.5430300
  H       -3.8173174     2.8332181     0.5423583
  H       -2.5084330     3.3309140    -0.5426230
  H       -3.9057300     2.4425370    -1.1658600
units angstrom
no_reorient  #important for SAPT in psi4, default
symmetry c1  #important for SAPT in psi4, default
}

set PROPERTIES_ORIGIN ["COM"]
properties('MP2/aug-cc-pvtz', properties = ['dipole'])
--------------------------------------------------------------------------

    Molecular point group: c1
  Charge       = 0
  Multiplicity = 1
  Basis Set: AUG-CC-PVTZ
    Blend: AUG-CC-PVTZ
  Basis Set: (AUG-CC-PVTZ AUX)
    Blend: AUG-CC-PVTZ-JKFIT + DEF2-UNIVERSAL-JKFIT

    Orbital Energies [Eh]
    ---------------------

    Doubly Occupied:

       1A    -11.290368     2A    -11.254146     3A    -11.249329
       4A    -11.249265     5A    -11.233332     6A    -11.233289
       7A    -11.231328     8A    -11.228323     9A    -11.228250
      10A     -7.706199    11A     -5.537645    12A     -5.528365
      13A     -5.528355    14A     -2.266858    15A     -2.262444
      16A     -2.262421    17A     -2.252161    18A     -2.252161
      19A     -1.165276    20A     -1.073142    21A     -1.061134
      22A     -0.970025    23A     -0.938587    24A     -0.933078
      25A     -0.849165    26A     -0.791066    27A     -0.783194
      28A     -0.682376    29A     -0.667067    30A     -0.617872
      31A     -0.588872    32A     -0.585611    33A     -0.573230
      34A     -0.573000    35A     -0.564201    36A     -0.555724
      37A     -0.526022    38A     -0.511520    39A     -0.489192
      40A     -0.485538    41A     -0.444623    42A     -0.359457
      43A     -0.357219    44A     -0.324973    45A     -0.318946

  @DF-RHF Final Energy:  -642.00788575285651

   => Energetics <=

    Nuclear Repulsion Energy =            614.6176591149140904
    One-Electron Energy =               -2204.0823863654850356
    Two-Electron Energy =                 947.4568414977143220
    Total Energy =                       -642.0078857528565095
  Basis Set: (AUG-CC-PVTZ AUX)
    Blend: AUG-CC-PVTZ-RI + DEF2-QZVPP-RI
    Molecular point group: c1

    Geometry (in Angstrom), charge = 0, multiplicity = 1:

       Center              X                  Y                   Z               Mass
    ------------   -----------------  -----------------  -----------------  -----------------
         I            2.049145530007     0.000000576403    -0.222618252045   126.904471900000
         C           -0.849835469993    -0.000004423597     0.766773747955    12.000000000000
         C           -2.799221469993    -1.225305423597    -0.035209252045    12.000000000000
         C           -2.799214469993     1.225309576403    -0.035203252045    12.000000000000
         C           -1.505120469993     1.209750576403     0.498555747955    12.000000000000
         C           -1.505124469993    -1.209753423597     0.498550747955    12.000000000000
         C           -3.430241469993     0.000002576403    -0.294727252045    12.000000000000
         C            0.526162530007    -0.000007423597     1.339008747955    12.000000000000
         C           -3.512876469993    -2.529167423597    -0.291746252045    12.000000000000
         C           -3.512876469993     2.529167576403    -0.291744252045    12.000000000000
         H           -0.990171469993     2.150836576403     0.691152747955     1.007825032230
         H           -0.990179469993    -2.150843423597     0.691142747955     1.007825032230
         H           -4.435504469993     0.000006576403    -0.716402252045     1.007825032230
         H            0.731890530007    -0.892594423597     1.929075747955     1.007825032230
         H            0.731890530007     0.892574576403     1.929083747955     1.007825032230
         H           -4.201651469993    -2.442428423597    -1.135778252045     1.007825032230
         H           -4.096809469993    -2.833380423597     0.583100747955     1.007825032230
         H           -2.804064469993    -3.330818423597    -0.513207252045     1.007825032230
         H           -4.112931869993     2.833217676403     0.572181047955     1.007825032230
         H           -2.804047469993     3.330913576403    -0.512800252045     1.007825032230
         H           -4.201344469993     2.442536576403    -1.136037252045     1.007825032230

  Basis Set: AUG-CC-PVTZ
    Blend: AUG-CC-PVTZ
  Basis Set: (AUG-CC-PVTZ AUX)
    Blend: AUG-CC-PVTZ-JKFIT + DEF2-UNIVERSAL-JKFIT
	 Reference Energy          =    -642.0078857528565095 [Eh]
	 Singles Energy            =      -0.0000000000000000 [Eh]
	 Same-Spin Energy          =      -0.4675656050280379 [Eh]
	 Opposite-Spin Energy      =      -1.4525585873585791 [Eh]
	 Correlation Energy        =      -1.9201241923866170 [Eh]
	 Total Energy              =    -643.9280099452431614 [Eh]

	 ================> DF-SCS-MP2 Energies <==================
	-----------------------------------------------------------
	 SCS Same-Spin Scale       =       0.3333333333333333 [-]
	 SCS Opposite-Spin Scale   =       1.2000000000000000 [-]
	 SCS Same-Spin Energy      =      -0.1558552016760126 [Eh]
	 SCS Opposite-Spin Energy  =      -1.7430703048302949 [Eh]
	 SCS Correlation Energy    =      -1.8989255065063075 [Eh]
	 SCS Total Energy          =    -643.9068112593628257 [Eh]
	-----------------------------------------------------------

  Dipole Moment: [D]
     X:    -2.1038      Y:    -0.0042      Z:     0.8836     Total:     2.2818

*** Psi4 exiting successfully. Buy a developer a beer!
