                               Psi4 1.4a3.dev225

  ==> Input File <==

--------------------------------------------------------------------------
#psi4
#
memory 32 gb

molecule  {
0 1
  I        2.3447600     0.0000010    -0.2524410
  C       -0.5542210    -0.0000040     0.7369510
  C       -2.5036070    -1.2253050    -0.0650320
  C       -2.5036000     1.2253100    -0.0650260
  C       -1.2095060     1.2097510     0.4687330
  C       -1.2095100    -1.2097530     0.4687280
  C       -3.1346270     0.0000030    -0.3245500
  C        0.8217770    -0.0000070     1.3091860
  C       -3.2172620    -2.5291670    -0.3215690
  C       -3.2172620     2.5291680    -0.3215670
  H       -0.6945570     2.1508370     0.6613300
  H       -0.6945650    -2.1508430     0.6613200
  H       -4.1398900     0.0000070    -0.7462250
  H        1.0223453    -0.9033641     1.8844537
  H        1.0275050     0.8925750     1.8992610
  H       -3.9060370    -2.4424280    -1.1656010
  H       -3.8011950    -2.8333800     0.5532780
  H       -2.5084500    -3.3308180    -0.5430300
  H       -3.8015320     2.8331670     0.5531290
  H       -2.5084330     3.3309140    -0.5426230
  H       -3.9057300     2.4425370    -1.1658600
units angstrom
no_reorient  #important for SAPT in psi4, default
symmetry c1  #important for SAPT in psi4, default
}

set PROPERTIES_ORIGIN ["COM"]
properties('MP2/aug-cc-pvtz', properties = ['dipole'])
--------------------------------------------------------------------------

    Molecular point group: c1
  Charge       = 0
  Multiplicity = 1
  Basis Set: AUG-CC-PVTZ
    Blend: AUG-CC-PVTZ
  Basis Set: (AUG-CC-PVTZ AUX)
    Blend: AUG-CC-PVTZ-JKFIT + DEF2-UNIVERSAL-JKFIT

    Orbital Energies [Eh]
    ---------------------

    Doubly Occupied:

       1A    -11.290510     2A    -11.254056     3A    -11.249306
       4A    -11.249266     5A    -11.233296     6A    -11.233199
       7A    -11.231268     8A    -11.228336     9A    -11.228311
      10A     -7.706083    11A     -5.537523    12A     -5.528254
      13A     -5.528241    14A     -2.266736    15A     -2.262328
      16A     -2.262301    17A     -2.252055    18A     -2.252054
      19A     -1.165301    20A     -1.073276    21A     -1.061196
      22A     -0.970026    23A     -0.938605    24A     -0.933063
      25A     -0.849105    26A     -0.791084    27A     -0.782767
      28A     -0.682288    29A     -0.667513    30A     -0.617205
      31A     -0.590045    32A     -0.585997    33A     -0.573518
      34A     -0.572909    35A     -0.564263    36A     -0.555734
      37A     -0.526087    38A     -0.511295    39A     -0.489215
      40A     -0.485512    41A     -0.444402    42A     -0.359295
      43A     -0.357211    44A     -0.324944    45A     -0.318881

  @DF-RHF Final Energy:  -642.00788426146642

   => Energetics <=

    Nuclear Repulsion Energy =            614.6653271641814626
    One-Electron Energy =               -2204.1786960226468182
    Two-Electron Energy =                 947.5054845969989401
    Total Energy =                       -642.0078842614664154
  Basis Set: (AUG-CC-PVTZ AUX)
    Blend: AUG-CC-PVTZ-RI + DEF2-QZVPP-RI
    Molecular point group: c1

    Geometry (in Angstrom), charge = 0, multiplicity = 1:

       Center              X                  Y                   Z               Mass
    ------------   -----------------  -----------------  -----------------  -----------------
         I            2.049101996438     0.000044910937    -0.222601746842   126.904471900000
         C           -0.849879003562     0.000039910937     0.766790253158    12.000000000000
         C           -2.799265003562    -1.225261089063    -0.035192746842    12.000000000000
         C           -2.799258003562     1.225353910937    -0.035186746842    12.000000000000
         C           -1.505164003562     1.209794910937     0.498572253158    12.000000000000
         C           -1.505168003562    -1.209709089063     0.498567253158    12.000000000000
         C           -3.430285003562     0.000046910937    -0.294710746842    12.000000000000
         C            0.526118996438     0.000036910937     1.339025253158    12.000000000000
         C           -3.512920003562    -2.529123089063    -0.291729746842    12.000000000000
         C           -3.512920003562     2.529211910937    -0.291727746842    12.000000000000
         H           -0.990215003562     2.150880910937     0.691169253158     1.007825032230
         H           -0.990223003562    -2.150799089063     0.691159253158     1.007825032230
         H           -4.435548003562     0.000050910937    -0.716385746842     1.007825032230
         H            0.726687296438    -0.903320189063     1.914292953158     1.007825032230
         H            0.731846996438     0.892618910937     1.929100253158     1.007825032230
         H           -4.201695003562    -2.442384089063    -1.135761746842     1.007825032230
         H           -4.096853003562    -2.833336089063     0.583117253158     1.007825032230
         H           -2.804108003562    -3.330774089063    -0.513190746842     1.007825032230
         H           -4.097190003562     2.833210910937     0.582968253158     1.007825032230
         H           -2.804091003562     3.330957910937    -0.512783746842     1.007825032230
         H           -4.201388003562     2.442580910937    -1.136020746842     1.007825032230

  Basis Set: AUG-CC-PVTZ
    Blend: AUG-CC-PVTZ
  Basis Set: (AUG-CC-PVTZ AUX)
    Blend: AUG-CC-PVTZ-JKFIT + DEF2-UNIVERSAL-JKFIT
	 Reference Energy          =    -642.0078842614664154 [Eh]
	 Singles Energy            =      -0.0000000000000000 [Eh]
	 Same-Spin Energy          =      -0.4675839280619448 [Eh]
	 Opposite-Spin Energy      =      -1.4525743148794001 [Eh]
	 Correlation Energy        =      -1.9201582429413451 [Eh]
	 Total Energy              =    -643.9280425044078129 [Eh]

	 ================> DF-SCS-MP2 Energies <==================
	-----------------------------------------------------------
	 SCS Same-Spin Scale       =       0.3333333333333333 [-]
	 SCS Opposite-Spin Scale   =       1.2000000000000000 [-]
	 SCS Same-Spin Energy      =      -0.1558613093539816 [Eh]
	 SCS Opposite-Spin Energy  =      -1.7430891778552802 [Eh]
	 SCS Correlation Energy    =      -1.8989504872092617 [Eh]
	 SCS Total Energy          =    -643.9068347486756920 [Eh]
	-----------------------------------------------------------

  Dipole Moment: [D]
     X:    -2.1052      Y:    -0.0024      Z:     0.8833     Total:     2.2830

*** Psi4 exiting successfully. Buy a developer a beer!
