                               Psi4 1.4a3.dev225

  ==> Input File <==

--------------------------------------------------------------------------
#psi4
#
memory 32 gb

molecule  {
0 1
  I        2.3447600     0.0000010    -0.2524410
  C       -0.5542210    -0.0000040     0.7369510
  C       -2.5036070    -1.2253050    -0.0650320
  C       -2.5036000     1.2253100    -0.0650260
  C       -1.2095060     1.2097510     0.4687330
  C       -1.2095100    -1.2097530     0.4687280
  C       -3.1346270     0.0000030    -0.3245500
  C        0.8217770    -0.0000070     1.3091860
  C       -3.2172620    -2.5291670    -0.3215690
  C       -3.2172620     2.5291680    -0.3215670
  H       -0.6851076     2.1681060     0.6648642
  H       -0.6945650    -2.1508430     0.6613200
  H       -4.1398900     0.0000070    -0.7462250
  H        1.0275050    -0.8925940     1.8992530
  H        1.0275050     0.8925750     1.8992610
  H       -3.9060370    -2.4424280    -1.1656010
  H       -3.8011950    -2.8333800     0.5532780
  H       -2.5084500    -3.3308180    -0.5430300
  H       -3.8015320     2.8331670     0.5531290
  H       -2.5084330     3.3309140    -0.5426230
  H       -3.9057300     2.4425370    -1.1658600
units angstrom
no_reorient  #important for SAPT in psi4, default
symmetry c1  #important for SAPT in psi4, default
}

set PROPERTIES_ORIGIN ["COM"]
properties('MP2/aug-cc-pvtz', properties = ['dipole'])
--------------------------------------------------------------------------

    Molecular point group: c1
  Charge       = 0
  Multiplicity = 1
  Basis Set: AUG-CC-PVTZ
    Blend: AUG-CC-PVTZ
  Basis Set: (AUG-CC-PVTZ AUX)
    Blend: AUG-CC-PVTZ-JKFIT + DEF2-UNIVERSAL-JKFIT

    Orbital Energies [Eh]
    ---------------------

    Doubly Occupied:

       1A    -11.290341     2A    -11.254351     3A    -11.249469
       4A    -11.249338     5A    -11.235578     6A    -11.233401
       7A    -11.231430     8A    -11.228370     9A    -11.228296
      10A     -7.706173    11A     -5.537620    12A     -5.528339
      13A     -5.528329    14A     -2.266833    15A     -2.262418
      16A     -2.262395    17A     -2.252134    18A     -2.252134
      19A     -1.165259    20A     -1.073165    21A     -1.061026
      22A     -0.969996    23A     -0.938533    24A     -0.932421
      25A     -0.849079    26A     -0.790489    27A     -0.783002
      28A     -0.680351    29A     -0.667112    30A     -0.617560
      31A     -0.588681    32A     -0.586032    33A     -0.573487
      34A     -0.572877    35A     -0.562876    36A     -0.555390
      37A     -0.525969    38A     -0.511429    39A     -0.489266
      40A     -0.485051    41A     -0.444639    42A     -0.359437
      43A     -0.357188    44A     -0.325021    45A     -0.319053

  @DF-RHF Final Energy:  -642.00726078555078

   => Energetics <=

    Nuclear Repulsion Energy =            614.5321272986848271
    One-Electron Energy =               -2203.9160957740109552
    Two-Electron Energy =                 947.3767076897753441
    Total Energy =                       -642.0072607855507840
  Basis Set: (AUG-CC-PVTZ AUX)
    Blend: AUG-CC-PVTZ-RI + DEF2-QZVPP-RI
    Molecular point group: c1

    Geometry (in Angstrom), charge = 0, multiplicity = 1:

       Center              X                  Y                   Z               Mass
    ------------   -----------------  -----------------  -----------------  -----------------
         I            2.049042142851    -0.000069965457    -0.222676859323   126.904471900000
         C           -0.849938857149    -0.000074965457     0.766715140677    12.000000000000
         C           -2.799324857149    -1.225375965457    -0.035267859323    12.000000000000
         C           -2.799317857149     1.225239034543    -0.035261859323    12.000000000000
         C           -1.505223857149     1.209680034543     0.498497140677    12.000000000000
         C           -1.505227857149    -1.209823965457     0.498492140677    12.000000000000
         C           -3.430344857149    -0.000067965457    -0.294785859323    12.000000000000
         C            0.526059142851    -0.000077965457     1.338950140677    12.000000000000
         C           -3.512979857149    -2.529237965457    -0.291804859323    12.000000000000
         C           -3.512979857149     2.529097034543    -0.291802859323    12.000000000000
         H           -0.980825457149     2.168035034543     0.694628340677     1.007825032230
         H           -0.990282857149    -2.150913965457     0.691084140677     1.007825032230
         H           -4.435607857149    -0.000063965457    -0.716460859323     1.007825032230
         H            0.731787142851    -0.892664965457     1.929017140677     1.007825032230
         H            0.731787142851     0.892504034543     1.929025140677     1.007825032230
         H           -4.201754857149    -2.442498965457    -1.135836859323     1.007825032230
         H           -4.096912857149    -2.833450965457     0.583042140677     1.007825032230
         H           -2.804167857149    -3.330888965457    -0.513265859323     1.007825032230
         H           -4.097249857149     2.833096034543     0.582893140677     1.007825032230
         H           -2.804150857149     3.330843034543    -0.512858859323     1.007825032230
         H           -4.201447857149     2.442466034543    -1.136095859323     1.007825032230

  Basis Set: AUG-CC-PVTZ
    Blend: AUG-CC-PVTZ
  Basis Set: (AUG-CC-PVTZ AUX)
    Blend: AUG-CC-PVTZ-JKFIT + DEF2-UNIVERSAL-JKFIT
	 Reference Energy          =    -642.0072607855507840 [Eh]
	 Singles Energy            =      -0.0000000000000000 [Eh]
	 Same-Spin Energy          =      -0.4676226190743420 [Eh]
	 Opposite-Spin Energy      =      -1.4527355148148999 [Eh]
	 Correlation Energy        =      -1.9203581338892419 [Eh]
	 Total Energy              =    -643.9276189194400786 [Eh]

	 ================> DF-SCS-MP2 Energies <==================
	-----------------------------------------------------------
	 SCS Same-Spin Scale       =       0.3333333333333333 [-]
	 SCS Opposite-Spin Scale   =       1.2000000000000000 [-]
	 SCS Same-Spin Energy      =      -0.1558742063581140 [Eh]
	 SCS Opposite-Spin Energy  =      -1.7432826177778800 [Eh]
	 SCS Correlation Energy    =      -1.8991568241359940 [Eh]
	 SCS Total Energy          =    -643.9064176096867413 [Eh]
	-----------------------------------------------------------

  Dipole Moment: [D]
     X:    -2.1039      Y:    -0.0066      Z:     0.8834     Total:     2.2818

*** Psi4 exiting successfully. Buy a developer a beer!
