                               Psi4 1.4a3.dev225

  ==> Input File <==

--------------------------------------------------------------------------
#psi4
#
memory 32 gb

molecule  {
0 1
  I        2.3447600     0.0000010    -0.2524410
  C       -0.5542210    -0.0000040     0.7369510
  C       -2.5036070    -1.2253050    -0.0650320
  C       -2.5036000     1.2253100    -0.0650260
  C       -1.1170665     1.2086396     0.5068604
  C       -1.2095100    -1.2097530     0.4687280
  C       -3.1346270     0.0000030    -0.3245500
  C        0.8217770    -0.0000070     1.3091860
  C       -3.2172620    -2.5291670    -0.3215690
  C       -3.2172620     2.5291680    -0.3215670
  H       -0.6945570     2.1508370     0.6613300
  H       -0.6945650    -2.1508430     0.6613200
  H       -4.1398900     0.0000070    -0.7462250
  H        1.0275050    -0.8925940     1.8992530
  H        1.0275050     0.8925750     1.8992610
  H       -3.9060370    -2.4424280    -1.1656010
  H       -3.8011950    -2.8333800     0.5532780
  H       -2.5084500    -3.3308180    -0.5430300
  H       -3.8015320     2.8331670     0.5531290
  H       -2.5084330     3.3309140    -0.5426230
  H       -3.9057300     2.4425370    -1.1658600
units angstrom
no_reorient  #important for SAPT in psi4, default
symmetry c1  #important for SAPT in psi4, default
}

set PROPERTIES_ORIGIN ["COM"]
properties('MP2/aug-cc-pvtz', properties = ['dipole'])
--------------------------------------------------------------------------

    Molecular point group: c1
  Charge       = 0
  Multiplicity = 1
  Basis Set: AUG-CC-PVTZ
    Blend: AUG-CC-PVTZ
  Basis Set: (AUG-CC-PVTZ AUX)
    Blend: AUG-CC-PVTZ-JKFIT + DEF2-UNIVERSAL-JKFIT

    Orbital Energies [Eh]
    ---------------------

    Doubly Occupied:

       1A    -11.287651     2A    -11.259915     3A    -11.250960
       4A    -11.249580     5A    -11.234158     6A    -11.231781
       7A    -11.230932     8A    -11.229968     9A    -11.228821
      10A     -7.704927    11A     -5.536324    12A     -5.527132
      13A     -5.527107    14A     -2.265531    15A     -2.261154
      16A     -2.261119    17A     -2.250951    18A     -2.250951
      19A     -1.163221    20A     -1.077459    21A     -1.054575
      22A     -0.969122    23A     -0.939747    24A     -0.934484
      25A     -0.846196    26A     -0.794002    27A     -0.778604
      28A     -0.688319    29A     -0.665853    30A     -0.617299
      31A     -0.587889    32A     -0.585589    33A     -0.580908
      34A     -0.573561    35A     -0.564422    36A     -0.556791
      37A     -0.526070    38A     -0.511034    39A     -0.494226
      40A     -0.476854    41A     -0.440938    42A     -0.358889
      43A     -0.356102    44A     -0.326726    45A     -0.314928

  @DF-RHF Final Energy:  -641.99624056488165

   => Energetics <=

    Nuclear Repulsion Energy =            614.3106022767482273
    One-Electron Energy =               -2203.4681418869181471
    Two-Electron Energy =                 947.1612990452881604
    Total Energy =                       -641.9962405648816457
  Basis Set: (AUG-CC-PVTZ AUX)
    Blend: AUG-CC-PVTZ-RI + DEF2-QZVPP-RI
    Molecular point group: c1

    Geometry (in Angstrom), charge = 0, multiplicity = 1:

       Center              X                  Y                   Z               Mass
    ------------   -----------------  -----------------  -----------------  -----------------
         I            2.044571439930     0.000055002477    -0.224522324321   126.904471900000
         C           -0.854409560070     0.000050002477     0.764869675679    12.000000000000
         C           -2.803795560070    -1.225250997523    -0.037113324321    12.000000000000
         C           -2.803788560070     1.225364002477    -0.037107324321    12.000000000000
         C           -1.417255060070     1.208693602477     0.534779075679    12.000000000000
         C           -1.509698560070    -1.209698997523     0.496646675679    12.000000000000
         C           -3.434815560070     0.000057002477    -0.296631324321    12.000000000000
         C            0.521588439930     0.000047002477     1.337104675679    12.000000000000
         C           -3.517450560070    -2.529112997523    -0.293650324321    12.000000000000
         C           -3.517450560070     2.529222002477    -0.293648324321    12.000000000000
         H           -0.994745560070     2.150891002477     0.689248675679     1.007825032230
         H           -0.994753560070    -2.150788997523     0.689238675679     1.007825032230
         H           -4.440078560070     0.000061002477    -0.718306324321     1.007825032230
         H            0.727316439930    -0.892539997523     1.927171675679     1.007825032230
         H            0.727316439930     0.892629002477     1.927179675679     1.007825032230
         H           -4.206225560070    -2.442373997523    -1.137682324321     1.007825032230
         H           -4.101383560070    -2.833325997523     0.581196675679     1.007825032230
         H           -2.808638560070    -3.330763997523    -0.515111324321     1.007825032230
         H           -4.101720560070     2.833221002477     0.581047675679     1.007825032230
         H           -2.808621560070     3.330968002477    -0.514704324321     1.007825032230
         H           -4.205918560070     2.442591002477    -1.137941324321     1.007825032230

  Basis Set: AUG-CC-PVTZ
    Blend: AUG-CC-PVTZ
  Basis Set: (AUG-CC-PVTZ AUX)
    Blend: AUG-CC-PVTZ-JKFIT + DEF2-UNIVERSAL-JKFIT
	 Reference Energy          =    -641.9962405648816457 [Eh]
	 Singles Energy            =      -0.0000000000000000 [Eh]
	 Same-Spin Energy          =      -0.4673048576153306 [Eh]
	 Opposite-Spin Energy      =      -1.4530533179349912 [Eh]
	 Correlation Energy        =      -1.9203581755503216 [Eh]
	 Total Energy              =    -643.9165987404319367 [Eh]

	 ================> DF-SCS-MP2 Energies <==================
	-----------------------------------------------------------
	 SCS Same-Spin Scale       =       0.3333333333333333 [-]
	 SCS Opposite-Spin Scale   =       1.2000000000000000 [-]
	 SCS Same-Spin Energy      =      -0.1557682858717769 [Eh]
	 SCS Opposite-Spin Energy  =      -1.7436639815219894 [Eh]
	 SCS Correlation Energy    =      -1.8994322673937662 [Eh]
	 SCS Total Energy          =    -643.8956728322754088 [Eh]
	-----------------------------------------------------------

  Dipole Moment: [D]
     X:    -2.1671      Y:     0.0500      Z:     0.8830     Total:     2.3407

*** Psi4 exiting successfully. Buy a developer a beer!
