                               Psi4 1.4a3.dev225

  ==> Input File <==

--------------------------------------------------------------------------
#psi4
#
memory 32 gb

molecule  {
0 1
  I        2.3447600     0.0000010    -0.2524410
  C       -0.5542210    -0.0000040     0.7369510
  C       -2.5036070    -1.2253050    -0.0650320
  C       -2.5036000     1.2253100    -0.0650260
  C       -1.2095060     1.2097510     0.4687330
  C       -1.2095100    -1.2097530     0.4687280
  C       -3.1346270     0.0000030    -0.3245500
  C        0.8217770    -0.0000070     1.3091860
  C       -3.2172620    -2.5291670    -0.3215690
  C       -3.2172620     2.5291680    -0.3215670
  H       -0.6945570     2.1508370     0.6613300
  H       -0.6945650    -2.1508430     0.6613200
  H       -4.1398900     0.0000070    -0.7462250
  H        1.0275050    -0.8925940     1.8992530
  H        1.0275050     0.8925750     1.8992610
  H       -3.9060370    -2.4424280    -1.1656010
  H       -3.8011950    -2.8333800     0.5532780
  H       -2.5084500    -3.3308180    -0.5430300
  H       -3.8015320     2.8331670     0.5531290
  H       -2.3786999     3.4776532    -0.5830817
  H       -3.9057300     2.4425370    -1.1658600
units angstrom
no_reorient  #important for SAPT in psi4, default
symmetry c1  #important for SAPT in psi4, default
}

set PROPERTIES_ORIGIN ["COM"]
properties('MP2/aug-cc-pvtz', properties = ['dipole'])
--------------------------------------------------------------------------

    Molecular point group: c1
  Charge       = 0
  Multiplicity = 1
  Basis Set: AUG-CC-PVTZ
    Blend: AUG-CC-PVTZ
  Basis Set: (AUG-CC-PVTZ AUX)
    Blend: AUG-CC-PVTZ-JKFIT + DEF2-UNIVERSAL-JKFIT

    Orbital Energies [Eh]
    ---------------------

    Doubly Occupied:

       1A    -11.290634     2A    -11.254618     3A    -11.251519
       4A    -11.250790     5A    -11.250230     6A    -11.234123
       7A    -11.233809     8A    -11.233100     9A    -11.229026
      10A     -7.706406    11A     -5.537858    12A     -5.528567
      13A     -5.528557    14A     -2.267072    15A     -2.262653
      16A     -2.262630    17A     -2.252359    18A     -2.252359
      19A     -1.166019    20A     -1.073567    21A     -1.060083
      22A     -0.968849    23A     -0.937069    24A     -0.927489
      25A     -0.849529    26A     -0.788257    27A     -0.783546
      28A     -0.682895    29A     -0.665972    30A     -0.618379
      31A     -0.589350    32A     -0.585133    33A     -0.575514
      34A     -0.570895    35A     -0.564182    36A     -0.544808
      37A     -0.515629    38A     -0.504548    39A     -0.490438
      40A     -0.482478    41A     -0.444561    42A     -0.359703
      43A     -0.357394    44A     -0.325335    45A     -0.319821

  @DF-RHF Final Energy:  -641.98779881611529

   => Energetics <=

    Nuclear Repulsion Energy =            613.8808264335746117
    One-Electron Energy =               -2202.5817383343455731
    Two-Electron Energy =                 946.7131130846556744
    Total Energy =                       -641.9877988161152871
  Basis Set: (AUG-CC-PVTZ AUX)
    Blend: AUG-CC-PVTZ-RI + DEF2-QZVPP-RI
    Molecular point group: c1

    Geometry (in Angstrom), charge = 0, multiplicity = 1:

       Center              X                  Y                   Z               Mass
    ------------   -----------------  -----------------  -----------------  -----------------
         I            2.048549339672    -0.000600405792    -0.222496620097   126.904471900000
         C           -0.850431660328    -0.000605405792     0.766895379903    12.000000000000
         C           -2.799817660328    -1.225906405792    -0.035087620097    12.000000000000
         C           -2.799810660328     1.224708594208    -0.035081620097    12.000000000000
         C           -1.505716660328     1.209149594208     0.498677379903    12.000000000000
         C           -1.505720660328    -1.210354405792     0.498672379903    12.000000000000
         C           -3.430837660328    -0.000598405792    -0.294605620097    12.000000000000
         C            0.525566339672    -0.000608405792     1.339130379903    12.000000000000
         C           -3.513472660328    -2.529768405792    -0.291624620097    12.000000000000
         C           -3.513472660328     2.528566594208    -0.291622620097    12.000000000000
         H           -0.990767660328     2.150235594208     0.691274379903     1.007825032230
         H           -0.990775660328    -2.151444405792     0.691264379903     1.007825032230
         H           -4.436100660328    -0.000594405792    -0.716280620097     1.007825032230
         H            0.731294339672    -0.893195405792     1.929197379903     1.007825032230
         H            0.731294339672     0.891973594208     1.929205379903     1.007825032230
         H           -4.202247660328    -2.443029405792    -1.135656620097     1.007825032230
         H           -4.097405660328    -2.833981405792     0.583222379903     1.007825032230
         H           -2.804660660328    -3.331419405792    -0.513085620097     1.007825032230
         H           -4.097742660328     2.832565594208     0.583073379903     1.007825032230
         H           -2.674910560328     3.477051794208    -0.553137320097     1.007825032230
         H           -4.201940660328     2.441935594208    -1.135915620097     1.007825032230

  Basis Set: AUG-CC-PVTZ
    Blend: AUG-CC-PVTZ
  Basis Set: (AUG-CC-PVTZ AUX)
    Blend: AUG-CC-PVTZ-JKFIT + DEF2-UNIVERSAL-JKFIT
	 Reference Energy          =    -641.9877988161152871 [Eh]
	 Singles Energy            =      -0.0000000000000000 [Eh]
	 Same-Spin Energy          =      -0.4676253276287898 [Eh]
	 Opposite-Spin Energy      =      -1.4542610316211086 [Eh]
	 Correlation Energy        =      -1.9218863592498985 [Eh]
	 Total Energy              =    -643.9096851753652118 [Eh]

	 ================> DF-SCS-MP2 Energies <==================
	-----------------------------------------------------------
	 SCS Same-Spin Scale       =       0.3333333333333333 [-]
	 SCS Opposite-Spin Scale   =       1.2000000000000000 [-]
	 SCS Same-Spin Energy      =      -0.1558751092095966 [Eh]
	 SCS Opposite-Spin Energy  =      -1.7451132379453302 [Eh]
	 SCS Correlation Energy    =      -1.9009883471549269 [Eh]
	 SCS Total Energy          =    -643.8887871632701945 [Eh]
	-----------------------------------------------------------

  Dipole Moment: [D]
     X:    -2.1221      Y:    -0.1383      Z:     0.9146     Total:     2.3149

*** Psi4 exiting successfully. Buy a developer a beer!
