                               Psi4 1.3.2 release

  ==> Input File <==

--------------------------------------------------------------------------
#psi4
#
memory 32 gb

molecule  {
0 1
  O        0.0000880    -0.6211650    -0.0005950
  O       -1.2473166     1.1984403    -0.6176827
  O        1.2678170     1.1981120     0.6161180
  C       -1.2007280     0.0874770    -0.1468620
  C        1.2006690     0.0876850     0.1465060
  C       -2.3404400    -0.7756640     0.3095410
  C        2.3408080    -0.7753200    -0.3091130
  H       -3.2816210    -0.2684080     0.1012520
  H       -2.2447620    -0.9652410     1.3817000
  H       -2.3058710    -1.7394120    -0.2034460
  H        2.3088350    -1.7369770     0.2080250
  H        3.2815980    -0.2658330    -0.1045500
  H        2.2432560    -0.9696180    -1.3802210
units angstrom
no_reorient  #important for SAPT in psi4, default
symmetry c1  #important for SAPT in psi4, default
}

set PROPERTIES_ORIGIN ["COM"]
properties('MP2/aug-cc-pvtz', properties = ['dipole'])
--------------------------------------------------------------------------

    Molecular point group: c1
  Charge       = 0
  Multiplicity = 1
  Basis Set: AUG-CC-PVTZ
    Blend: AUG-CC-PVTZ
  Basis Set: (AUG-CC-PVTZ AUX)
    Blend: AUG-CC-PVTZ-JKFIT

    Orbital Energies [Eh]
    ---------------------

    Doubly Occupied:

       1A    -20.629168     2A    -20.566103     3A    -20.565535
       4A    -11.404465     5A    -11.403779     6A    -11.256978
       7A    -11.255312     8A     -1.487031     9A     -1.406400
      10A     -1.365559    11A     -1.058077    12A     -1.020828
      13A     -0.870134    14A     -0.741851    15A     -0.703564
      16A     -0.698532    17A     -0.684509    18A     -0.628301
      19A     -0.622885    20A     -0.600719    21A     -0.585503
      22A     -0.579598    23A     -0.558496    24A     -0.520815
      25A     -0.482735    26A     -0.481049    27A     -0.446219

  @DF-RHF Final Energy:  -379.72170707659654

   => Energetics <=

    Nuclear Repulsion Energy =            301.2413759186306379
    One-Electron Energy =               -1116.6778755333752997
    Two-Electron Energy =                 435.7147925381481173
    Total Energy =                       -379.7217070765965445
  Basis Set: (AUG-CC-PVTZ AUX)
    Blend: AUG-CC-PVTZ-RI
    Molecular point group: c1

    Geometry (in Angstrom), charge = 0, multiplicity = 1:

       Center              X                  Y                   Z               Mass
    ------------   -----------------  -----------------  -----------------  -----------------
         O           -0.003190039556    -0.678944023390    -0.000292166451    15.994914619570
         O           -1.250594639556     1.140661276610    -0.617379866451    15.994914619570
         O            1.264538960444     1.140332976610     0.616420833549    15.994914619570
         C           -1.204006039556     0.029697976610    -0.146559166451    12.000000000000
         C            1.197390960444     0.029905976610     0.146808833549    12.000000000000
         C           -2.343718039556    -0.833443023390     0.309843833549    12.000000000000
         C            2.337529960444    -0.833099023390    -0.308810166451    12.000000000000
         H           -3.284899039556    -0.326187023390     0.101554833549     1.007825032230
         H           -2.248040039556    -1.023020023390     1.382002833549     1.007825032230
         H           -2.309149039556    -1.797191023390    -0.203143166451     1.007825032230
         H            2.305556960444    -1.794756023390     0.208327833549     1.007825032230
         H            3.278319960444    -0.323612023390    -0.104247166451     1.007825032230
         H            2.239977960444    -1.027397023390    -1.379918166451     1.007825032230

  Basis Set: AUG-CC-PVTZ
    Blend: AUG-CC-PVTZ
  Basis Set: (AUG-CC-PVTZ AUX)
    Blend: AUG-CC-PVTZ-JKFIT
	 Reference Energy          =    -379.7217070765965445 [Eh]
	 Singles Energy            =      -0.0000000000000000 [Eh]
	 Same-Spin Energy          =      -0.3640731157111343 [Eh]
	 Opposite-Spin Energy      =      -1.1309286193441830 [Eh]
	 Correlation Energy        =      -1.4950017350553173 [Eh]
	 Total Energy              =    -381.2167088116518698 [Eh]

	 ================> DF-SCS-MP2 Energies <==================
	-----------------------------------------------------------
	 SCS Same-Spin Scale       =       0.3333333333333333 [-]
	 SCS Opposite-Spin Scale   =       1.2000000000000000 [-]
	 SCS Same-Spin Energy      =      -0.1213577052370448 [Eh]
	 SCS Opposite-Spin Energy  =      -1.3571143432130195 [Eh]
	 SCS Correlation Energy    =      -1.4784720484500642 [Eh]
	 SCS Total Energy          =    -381.2001791250465885 [Eh]
	-----------------------------------------------------------

  Dipole Moment: [D]
     X:    -0.0641      Y:    -3.8689      Z:     0.0073     Total:     3.8695

*** Psi4 exiting successfully. Buy a developer a beer!
