                               Psi4 1.3.2 release

  ==> Input File <==

--------------------------------------------------------------------------
#psi4
#
memory 32 gb

molecule  {
0 1
  O       -0.0519160    -0.6945896     0.0378792
  O       -1.2683150     1.1981060    -0.6159220
  O        1.2678170     1.1981120     0.6161180
  C       -1.2007280     0.0874770    -0.1468620
  C        1.2006690     0.0876850     0.1465060
  C       -2.3404400    -0.7756640     0.3095410
  C        2.3408080    -0.7753200    -0.3091130
  H       -3.2816210    -0.2684080     0.1012520
  H       -2.2447620    -0.9652410     1.3817000
  H       -2.3058710    -1.7394120    -0.2034460
  H        2.3088350    -1.7369770     0.2080250
  H        3.2815980    -0.2658330    -0.1045500
  H        2.2432560    -0.9696180    -1.3802210
units angstrom
no_reorient  #important for SAPT in psi4, default
symmetry c1  #important for SAPT in psi4, default
}

set PROPERTIES_ORIGIN ["COM"]
properties('MP2/aug-cc-pvtz', properties = ['dipole'])
--------------------------------------------------------------------------

    Molecular point group: c1
  Charge       = 0
  Multiplicity = 1
  Basis Set: AUG-CC-PVTZ
    Blend: AUG-CC-PVTZ
  Basis Set: (AUG-CC-PVTZ AUX)
    Blend: AUG-CC-PVTZ-JKFIT

    Orbital Energies [Eh]
    ---------------------

    Doubly Occupied:

       1A    -20.630182     2A    -20.581077     3A    -20.564930
       4A    -11.414876     5A    -11.399596     6A    -11.261288
       7A    -11.247618     8A     -1.472190     9A     -1.411268
      10A     -1.365322    11A     -1.054509    12A     -1.017791
      13A     -0.848984    14A     -0.748102    15A     -0.700824
      16A     -0.695301    17A     -0.677644    18A     -0.629610
      19A     -0.624099    20A     -0.603929    21A     -0.588524
      22A     -0.574394    23A     -0.552465    24A     -0.525632
      25A     -0.487983    26A     -0.482200    27A     -0.444666

  @DF-RHF Final Energy:  -379.71071320581871

   => Energetics <=

    Nuclear Repulsion Energy =            299.4493672903183210
    One-Electron Energy =               -1113.1101562090257175
    Two-Electron Energy =                 433.9500757128886335
    Total Energy =                       -379.7107132058187062
  Basis Set: (AUG-CC-PVTZ AUX)
    Blend: AUG-CC-PVTZ-RI
    Molecular point group: c1

    Geometry (in Angstrom), charge = 0, multiplicity = 1:

       Center              X                  Y                   Z               Mass
    ------------   -----------------  -----------------  -----------------  -----------------
         O           -0.043749878348    -0.740805870082     0.031874642535    15.994914619570
         O           -1.260148878348     1.151889729918    -0.621926557465    15.994914619570
         O            1.275983121652     1.151895729918     0.610113442535    15.994914619570
         C           -1.192561878348     0.041260729918    -0.152866557465    12.000000000000
         C            1.208835121652     0.041468729918     0.140501442535    12.000000000000
         C           -2.332273878348    -0.821880270082     0.303536442535    12.000000000000
         C            2.348974121652    -0.821536270082    -0.315117557465    12.000000000000
         H           -3.273454878348    -0.314624270082     0.095247442535     1.007825032230
         H           -2.236595878348    -1.011457270082     1.375695442535     1.007825032230
         H           -2.297704878348    -1.785628270082    -0.209450557465     1.007825032230
         H            2.317001121652    -1.783193270082     0.202020442535     1.007825032230
         H            3.289764121652    -0.312049270082    -0.110554557465     1.007825032230
         H            2.251422121652    -1.015834270082    -1.386225557465     1.007825032230

  Basis Set: AUG-CC-PVTZ
    Blend: AUG-CC-PVTZ
  Basis Set: (AUG-CC-PVTZ AUX)
    Blend: AUG-CC-PVTZ-JKFIT
	 Reference Energy          =    -379.7107132058187062 [Eh]
	 Singles Energy            =      -0.0000000000000000 [Eh]
	 Same-Spin Energy          =      -0.3655762460864392 [Eh]
	 Opposite-Spin Energy      =      -1.1348884068969436 [Eh]
	 Correlation Energy        =      -1.5004646529833827 [Eh]
	 Total Energy              =    -381.2111778588021025 [Eh]

	 ================> DF-SCS-MP2 Energies <==================
	-----------------------------------------------------------
	 SCS Same-Spin Scale       =       0.3333333333333333 [-]
	 SCS Opposite-Spin Scale   =       1.2000000000000000 [-]
	 SCS Same-Spin Energy      =      -0.1218587486954797 [Eh]
	 SCS Opposite-Spin Energy  =      -1.3618660882763323 [Eh]
	 SCS Correlation Energy    =      -1.4837248369718119 [Eh]
	 SCS Total Energy          =    -381.1944380427905230 [Eh]
	-----------------------------------------------------------

  Dipole Moment: [D]
     X:     0.5779      Y:    -3.6107      Z:     0.0066     Total:     3.6567

*** Psi4 exiting successfully. Buy a developer a beer!
