                               Psi4 1.3.2 release

  ==> Input File <==

--------------------------------------------------------------------------
#psi4
#
memory 32 gb

molecule  {
0 1
  O        0.0000880    -0.6211650    -0.0005950
  O       -1.2683150     1.1981060    -0.6159220
  O        1.2678170     1.1981120     0.6161180
  C       -1.1150761     0.0369309    -0.1364291
  C        1.2006690     0.0876850     0.1465060
  C       -2.3404400    -0.7756640     0.3095410
  C        2.3408080    -0.7753200    -0.3091130
  H       -3.2816210    -0.2684080     0.1012520
  H       -2.2447620    -0.9652410     1.3817000
  H       -2.3058710    -1.7394120    -0.2034460
  H        2.3088350    -1.7369770     0.2080250
  H        3.2815980    -0.2658330    -0.1045500
  H        2.2432560    -0.9696180    -1.3802210
units angstrom
no_reorient  #important for SAPT in psi4, default
symmetry c1  #important for SAPT in psi4, default
}

set PROPERTIES_ORIGIN ["COM"]
properties('MP2/aug-cc-pvtz', properties = ['dipole'])
--------------------------------------------------------------------------

    Molecular point group: c1
  Charge       = 0
  Multiplicity = 1
  Basis Set: AUG-CC-PVTZ
    Blend: AUG-CC-PVTZ
  Basis Set: (AUG-CC-PVTZ AUX)
    Blend: AUG-CC-PVTZ-JKFIT

    Orbital Energies [Eh]
    ---------------------

    Doubly Occupied:

       1A    -20.654282     2A    -20.579588     3A    -20.547747
       4A    -11.418284     5A    -11.403888     6A    -11.264766
       7A    -11.251112     8A     -1.525095     9A     -1.408194
      10A     -1.343187    11A     -1.068222    12A     -1.014832
      13A     -0.901283    14A     -0.752916    15A     -0.717751
      16A     -0.706548    17A     -0.689533    18A     -0.628556
      19A     -0.620127    20A     -0.601866    21A     -0.583239
      22A     -0.575435    23A     -0.562838    24A     -0.521153
      25A     -0.486376    26A     -0.467641    27A     -0.438174

  @DF-RHF Final Energy:  -379.70829700560461

   => Energetics <=

    Nuclear Repulsion Energy =            301.7989594750788456
    One-Electron Energy =               -1117.5492451948878170
    Two-Electron Energy =                 436.0419887142043649
    Total Energy =                       -379.7082970056046065
  Basis Set: (AUG-CC-PVTZ AUX)
    Blend: AUG-CC-PVTZ-RI
    Molecular point group: c1

    Geometry (in Angstrom), charge = 0, multiplicity = 1:

       Center              X                  Y                   Z               Mass
    ------------   -----------------  -----------------  -----------------  -----------------
         O           -0.009971806646    -0.672946864314    -0.001795199872    15.994914619570
         O           -1.278374806646     1.146324135686    -0.617122199872    15.994914619570
         O            1.257757193354     1.146330135686     0.614917800128    15.994914619570
         C           -1.125135906646    -0.014850964314    -0.137629299872    12.000000000000
         C            1.190609193354     0.035903135686     0.145305800128    12.000000000000
         C           -2.350499806646    -0.827445864314     0.308340800128    12.000000000000
         C            2.330748193354    -0.827101864314    -0.310313199872    12.000000000000
         H           -3.291680806646    -0.320189864314     0.100051800128     1.007825032230
         H           -2.254821806646    -1.017022864314     1.380499800128     1.007825032230
         H           -2.315930806646    -1.791193864314    -0.204646199872     1.007825032230
         H            2.298775193354    -1.788758864314     0.206824800128     1.007825032230
         H            3.271538193354    -0.317614864314    -0.105750199872     1.007825032230
         H            2.233196193354    -1.021399864314    -1.381421199872     1.007825032230

  Basis Set: AUG-CC-PVTZ
    Blend: AUG-CC-PVTZ
  Basis Set: (AUG-CC-PVTZ AUX)
    Blend: AUG-CC-PVTZ-JKFIT
	 Reference Energy          =    -379.7082970056046065 [Eh]
	 Singles Energy            =      -0.0000000000000000 [Eh]
	 Same-Spin Energy          =      -0.3646518269731497 [Eh]
	 Opposite-Spin Energy      =      -1.1323205954832969 [Eh]
	 Correlation Energy        =      -1.4969724224564467 [Eh]
	 Total Energy              =    -381.2052694280610581 [Eh]

	 ================> DF-SCS-MP2 Energies <==================
	-----------------------------------------------------------
	 SCS Same-Spin Scale       =       0.3333333333333333 [-]
	 SCS Opposite-Spin Scale   =       1.2000000000000000 [-]
	 SCS Same-Spin Energy      =      -0.1215506089910499 [Eh]
	 SCS Opposite-Spin Energy  =      -1.3587847145799563 [Eh]
	 SCS Correlation Energy    =      -1.4803353235710062 [Eh]
	 SCS Total Energy          =    -381.1886323291756185 [Eh]
	-----------------------------------------------------------

  Dipole Moment: [D]
     X:     0.9584      Y:    -4.1608      Z:     0.1400     Total:     4.2721

*** Psi4 exiting successfully. Buy a developer a beer!
