                               Psi4 1.3.2 release

  ==> Input File <==

--------------------------------------------------------------------------
#psi4
#
memory 32 gb

molecule  {
0 1
  O        0.0000880    -0.6211650    -0.0005950
  O       -1.2683150     1.1981060    -0.6159220
  O        1.2678170     1.1981120     0.6161180
  C       -1.3088953     0.1917030    -0.1928295
  C        1.2006690     0.0876850     0.1465060
  C       -2.3404400    -0.7756640     0.3095410
  C        2.3408080    -0.7753200    -0.3091130
  H       -3.2816210    -0.2684080     0.1012520
  H       -2.2447620    -0.9652410     1.3817000
  H       -2.3058710    -1.7394120    -0.2034460
  H        2.3088350    -1.7369770     0.2080250
  H        3.2815980    -0.2658330    -0.1045500
  H        2.2432560    -0.9696180    -1.3802210
units angstrom
no_reorient  #important for SAPT in psi4, default
symmetry c1  #important for SAPT in psi4, default
}

set PROPERTIES_ORIGIN ["COM"]
properties('MP2/aug-cc-pvtz', properties = ['dipole'])
--------------------------------------------------------------------------

    Molecular point group: c1
  Charge       = 0
  Multiplicity = 1
  Basis Set: AUG-CC-PVTZ
    Blend: AUG-CC-PVTZ
  Basis Set: (AUG-CC-PVTZ AUX)
    Blend: AUG-CC-PVTZ-JKFIT

    Orbital Energies [Eh]
    ---------------------

    Doubly Occupied:

       1A    -20.599500     2A    -20.586445     3A    -20.546527
       4A    -11.402206     5A    -11.381612     6A    -11.265780
       7A    -11.240494     8A     -1.526498     9A     -1.421556
      10A     -1.335899    11A     -1.050820    12A     -1.011258
      13A     -0.827585    14A     -0.755267    15A     -0.709989
      16A     -0.694103    17A     -0.679467    18A     -0.643944
      19A     -0.627505    20A     -0.596527    21A     -0.588219
      22A     -0.573932    23A     -0.563320    24A     -0.533198
      25A     -0.470267    26A     -0.469371    27A     -0.434132

  @DF-RHF Final Energy:  -379.69845909030744

   => Energetics <=

    Nuclear Repulsion Energy =            300.6967980765080597
    One-Electron Energy =               -1115.7196679912381114
    Two-Electron Energy =                 435.3244108244226709
    Total Energy =                       -379.6984590903074377
  Basis Set: (AUG-CC-PVTZ AUX)
    Blend: AUG-CC-PVTZ-RI
    Molecular point group: c1

    Geometry (in Angstrom), charge = 0, multiplicity = 1:

       Center              X                  Y                   Z               Mass
    ------------   -----------------  -----------------  -----------------  -----------------
         O            0.012823369124    -0.691149690576     0.004838080172    15.994914619570
         O           -1.255579630876     1.128121309424    -0.610488919828    15.994914619570
         O            1.280552369124     1.128127309424     0.621551080172    15.994914619570
         C           -1.296159930876     0.121718309424    -0.187396419828    12.000000000000
         C            1.213404369124     0.017700309424     0.151939080172    12.000000000000
         C           -2.327704630876    -0.845648690576     0.314974080172    12.000000000000
         C            2.353543369124    -0.845304690576    -0.303679919828    12.000000000000
         H           -3.268885630876    -0.338392690576     0.106685080172     1.007825032230
         H           -2.232026630876    -1.035225690576     1.387133080172     1.007825032230
         H           -2.293135630876    -1.809396690576    -0.198012919828     1.007825032230
         H            2.321570369124    -1.806961690576     0.213458080172     1.007825032230
         H            3.294333369124    -0.335817690576    -0.099116919828     1.007825032230
         H            2.255991369124    -1.039602690576    -1.374787919828     1.007825032230

  Basis Set: AUG-CC-PVTZ
    Blend: AUG-CC-PVTZ
  Basis Set: (AUG-CC-PVTZ AUX)
    Blend: AUG-CC-PVTZ-JKFIT
	 Reference Energy          =    -379.6984590903074377 [Eh]
	 Singles Energy            =      -0.0000000000000000 [Eh]
	 Same-Spin Energy          =      -0.3630825142927927 [Eh]
	 Opposite-Spin Energy      =      -1.1283340408786369 [Eh]
	 Correlation Energy        =      -1.4914165551714296 [Eh]
	 Total Energy              =    -381.1898756454788781 [Eh]

	 ================> DF-SCS-MP2 Energies <==================
	-----------------------------------------------------------
	 SCS Same-Spin Scale       =       0.3333333333333333 [-]
	 SCS Opposite-Spin Scale   =       1.2000000000000000 [-]
	 SCS Same-Spin Energy      =      -0.1210275047642642 [Eh]
	 SCS Opposite-Spin Energy  =      -1.3540008490543642 [Eh]
	 SCS Correlation Energy    =      -1.4750283538186284 [Eh]
	 SCS Total Energy          =    -381.1734874441260672 [Eh]
	-----------------------------------------------------------

  Dipole Moment: [D]
     X:    -1.5031      Y:    -3.1486      Z:    -0.3483     Total:     3.5063

*** Psi4 exiting successfully. Buy a developer a beer!
