                               Psi4 1.4a3.dev225

  ==> Input File <==

--------------------------------------------------------------------------
#psi4
#
memory 32 gb

molecule  {
0 1
  O        0.0000060    -0.6211290    -0.0000190
  O       -1.2681660     1.1980960    -0.6161090
  O        1.2681470     1.1980900     0.6161180
  C       -1.2007670     0.0876200    -0.1466910
  C        1.2007550     0.0876130     0.1466860
  C       -2.3786190    -0.8042856     0.3245909
  C        2.3406600    -0.7755100    -0.3093860
  H       -3.2816790    -0.2673730     0.1026340
  H       -2.2442300    -0.9671190     1.3811090
  H       -2.3071230    -1.7383610    -0.2054080
  H        2.3071510    -1.7383490     0.2054030
  H        3.2816780    -0.2673330    -0.1025910
  H        2.2442800    -0.9670870    -1.3811040
units angstrom
no_reorient  #important for SAPT in psi4, default
symmetry c1  #important for SAPT in psi4, default
}

set PROPERTIES_ORIGIN ["COM"]
properties('MP2/aug-cc-pvtz', properties = ['dipole'])
--------------------------------------------------------------------------

    Molecular point group: c1
  Charge       = 0
  Multiplicity = 1
  Basis Set: AUG-CC-PVTZ
    Blend: AUG-CC-PVTZ
  Basis Set: (AUG-CC-PVTZ AUX)
    Blend: AUG-CC-PVTZ-JKFIT

    Orbital Energies [Eh]
    ---------------------

    Doubly Occupied:

       1A    -20.631011     2A    -20.566908     3A    -20.566491
       4A    -11.405839     5A    -11.404654     6A    -11.255921
       7A    -11.255430     8A     -1.486827     9A     -1.406714
      10A     -1.366641    11A     -1.054101    12A     -1.017705
      13A     -0.871740    14A     -0.741506    15A     -0.701908
      16A     -0.696594    17A     -0.684121    18A     -0.627225
      19A     -0.621669    20A     -0.603376    21A     -0.586475
      22A     -0.583558    23A     -0.561334    24A     -0.522898
      25A     -0.483891    26A     -0.480823    27A     -0.443263

  @DF-RHF Final Energy:  -379.71982931272777

   => Energetics <=

    Nuclear Repulsion Energy =            300.2143730240180730
    One-Electron Energy =               -1114.6111559279302128
    Two-Electron Energy =                 434.6769535911843718
    Total Energy =                       -379.7198293127277680
  Basis Set: (AUG-CC-PVTZ AUX)
    Blend: AUG-CC-PVTZ-RI
    Molecular point group: c1

    Geometry (in Angstrom), charge = 0, multiplicity = 1:

       Center              X                  Y                   Z               Mass
    ------------   -----------------  -----------------  -----------------  -----------------
         O            0.004473066195    -0.675474733721    -0.001805525148    15.994914619570
         O           -1.263698933805     1.143750266279    -0.617895525148    15.994914619570
         O            1.272614066195     1.143744266279     0.614331474852    15.994914619570
         C           -1.196299933805     0.033274266279    -0.148477525148    12.000000000000
         C            1.205222066195     0.033267266279     0.144899474852    12.000000000000
         C           -2.374151933805    -0.858631333721     0.322804374852    12.000000000000
         C            2.345127066195    -0.829855733721    -0.311172525148    12.000000000000
         H           -3.277211933805    -0.321718733721     0.100847474852     1.007825032230
         H           -2.239762933805    -1.021464733721     1.379322474852     1.007825032230
         H           -2.302655933805    -1.792706733721    -0.207194525148     1.007825032230
         H            2.311618066195    -1.792694733721     0.203616474852     1.007825032230
         H            3.286145066195    -0.321678733721    -0.104377525148     1.007825032230
         H            2.248747066195    -1.021432733721    -1.382890525148     1.007825032230

  Basis Set: AUG-CC-PVTZ
    Blend: AUG-CC-PVTZ
  Basis Set: (AUG-CC-PVTZ AUX)
    Blend: AUG-CC-PVTZ-JKFIT
	 Reference Energy          =    -379.7198293127277680 [Eh]
	 Singles Energy            =      -0.0000000000000000 [Eh]
	 Same-Spin Energy          =      -0.3638237808970101 [Eh]
	 Opposite-Spin Energy      =      -1.1308959726611216 [Eh]
	 Correlation Energy        =      -1.4947197535581318 [Eh]
	 Total Energy              =    -381.2145490662858833 [Eh]

	 ================> DF-SCS-MP2 Energies <==================
	-----------------------------------------------------------
	 SCS Same-Spin Scale       =       0.3333333333333333 [-]
	 SCS Opposite-Spin Scale   =       1.2000000000000000 [-]
	 SCS Same-Spin Energy      =      -0.1212745936323367 [Eh]
	 SCS Opposite-Spin Energy  =      -1.3570751671933459 [Eh]
	 SCS Correlation Energy    =      -1.4783497608256826 [Eh]
	 SCS Total Energy          =    -381.1981790735534332 [Eh]
	-----------------------------------------------------------

  Dipole Moment: [D]
     X:     0.0542      Y:    -3.8177      Z:    -0.0217     Total:     3.8181

*** Psi4 exiting successfully. Buy a developer a beer!
