                               Psi4 1.3.2 release

  ==> Input File <==

--------------------------------------------------------------------------
#psi4
#
memory 32 gb

molecule  {
0 1
  O        0.0000880    -0.6211650    -0.0005950
  O       -1.2683150     1.1981060    -0.6159220
  O        1.2678170     1.1981120     0.6161180
  C       -1.2676672    -0.0428522    -0.1551190
  C        1.2006690     0.0876850     0.1465060
  C       -2.3404400    -0.7756640     0.3095410
  C        2.3408080    -0.7753200    -0.3091130
  H       -3.2816210    -0.2684080     0.1012520
  H       -2.2447620    -0.9652410     1.3817000
  H       -2.3058710    -1.7394120    -0.2034460
  H        2.3088350    -1.7369770     0.2080250
  H        3.2815980    -0.2658330    -0.1045500
  H        2.2432560    -0.9696180    -1.3802210
units angstrom
no_reorient  #important for SAPT in psi4, default
symmetry c1  #important for SAPT in psi4, default
}

set PROPERTIES_ORIGIN ["COM"]
properties('MP2/aug-cc-pvtz', properties = ['dipole'])
--------------------------------------------------------------------------

    Molecular point group: c1
  Charge       = 0
  Multiplicity = 1
  Basis Set: AUG-CC-PVTZ
    Blend: AUG-CC-PVTZ
  Basis Set: (AUG-CC-PVTZ AUX)
    Blend: AUG-CC-PVTZ-JKFIT

    Orbital Energies [Eh]
    ---------------------

    Doubly Occupied:

       1A    -20.631227     2A    -20.564503     3A    -20.553312
       4A    -11.416917     5A    -11.406025     6A    -11.261674
       7A    -11.256615     8A     -1.477699     9A     -1.387843
      10A     -1.312422    11A     -1.092530    12A     -1.033695
      13A     -0.878255    14A     -0.739224    15A     -0.702525
      16A     -0.697099    17A     -0.682306    18A     -0.635472
      19A     -0.625859    20A     -0.610041    21A     -0.586467
      22A     -0.562387    23A     -0.559282    24A     -0.503566
      25A     -0.472263    26A     -0.453232    27A     -0.444632

  @DF-RHF Final Energy:  -379.67883262467251

   => Energetics <=

    Nuclear Repulsion Energy =            299.9181644776562052
    One-Electron Energy =               -1114.0998540723999213
    Two-Electron Energy =                 434.5028569700712069
    Total Energy =                       -379.6788326246725092
  Basis Set: (AUG-CC-PVTZ AUX)
    Blend: AUG-CC-PVTZ-RI
    Molecular point group: c1

    Geometry (in Angstrom), charge = 0, multiplicity = 1:

       Center              X                  Y                   Z               Mass
    ------------   -----------------  -----------------  -----------------  -----------------
         O            0.007974511084    -0.663563532901     0.000402928877    15.994914619570
         O           -1.260428488916     1.155707467099    -0.614924071123    15.994914619570
         O            1.275703511084     1.155713467099     0.617115928877    15.994914619570
         C           -1.259780688916    -0.085250732901    -0.154121071123    12.000000000000
         C            1.208555511084     0.045286467099     0.147503928877    12.000000000000
         C           -2.332553488916    -0.818062532901     0.310538928877    12.000000000000
         C            2.348694511084    -0.817718532901    -0.308115071123    12.000000000000
         H           -3.273734488916    -0.310806532901     0.102249928877     1.007825032230
         H           -2.236875488916    -1.007639532901     1.382697928877     1.007825032230
         H           -2.297984488916    -1.781810532901    -0.202448071123     1.007825032230
         H            2.316721511084    -1.779375532901     0.209022928877     1.007825032230
         H            3.289484511084    -0.308231532901    -0.103552071123     1.007825032230
         H            2.251142511084    -1.012016532901    -1.379223071123     1.007825032230

  Basis Set: AUG-CC-PVTZ
    Blend: AUG-CC-PVTZ
  Basis Set: (AUG-CC-PVTZ AUX)
    Blend: AUG-CC-PVTZ-JKFIT
	 Reference Energy          =    -379.6788326246725092 [Eh]
	 Singles Energy            =      -0.0000000000000000 [Eh]
	 Same-Spin Energy          =      -0.3683457165466846 [Eh]
	 Opposite-Spin Energy      =      -1.1389093844216225 [Eh]
	 Correlation Energy        =      -1.5072551009683071 [Eh]
	 Total Energy              =    -381.1860877256407889 [Eh]

	 ================> DF-SCS-MP2 Energies <==================
	-----------------------------------------------------------
	 SCS Same-Spin Scale       =       0.3333333333333333 [-]
	 SCS Opposite-Spin Scale   =       1.2000000000000000 [-]
	 SCS Same-Spin Energy      =      -0.1227819055155615 [Eh]
	 SCS Opposite-Spin Energy  =      -1.3666912613059470 [Eh]
	 SCS Correlation Energy    =      -1.4894731668215084 [Eh]
	 SCS Total Energy          =    -381.1683057914939923 [Eh]
	-----------------------------------------------------------

  Dipole Moment: [D]
     X:    -0.2471      Y:    -4.4177      Z:     0.2369     Total:     4.4310

*** Psi4 exiting successfully. Buy a developer a beer!
