                               Psi4 1.4a3.dev225

  ==> Input File <==

--------------------------------------------------------------------------
#psi4
#
memory 32 gb

molecule  {
0 1
  O        0.0000060    -0.6211290    -0.0000190
  O       -1.2681660     1.1980960    -0.6161090
  O        1.2681470     1.1980900     0.6161180
  C       -1.1996507     0.0692270    -0.1389160
  C        1.2007550     0.0876130     0.1466860
  C       -2.3406430    -0.7755290     0.3093960
  C        2.3406600    -0.7755100    -0.3093860
  H       -3.2816790    -0.2673730     0.1026340
  H       -2.2442300    -0.9671190     1.3811090
  H       -2.3071230    -1.7383610    -0.2054080
  H        2.3071510    -1.7383490     0.2054030
  H        3.2816780    -0.2673330    -0.1025910
  H        2.2442800    -0.9670870    -1.3811040
units angstrom
no_reorient  #important for SAPT in psi4, default
symmetry c1  #important for SAPT in psi4, default
}

set PROPERTIES_ORIGIN ["COM"]
properties('MP2/aug-cc-pvtz', properties = ['dipole'])
--------------------------------------------------------------------------

    Molecular point group: c1
  Charge       = 0
  Multiplicity = 1
  Basis Set: AUG-CC-PVTZ
    Blend: AUG-CC-PVTZ
  Basis Set: (AUG-CC-PVTZ AUX)
    Blend: AUG-CC-PVTZ-JKFIT

    Orbital Energies [Eh]
    ---------------------

    Doubly Occupied:

       1A    -20.633476     2A    -20.567496     3A    -20.562831
       4A    -11.406164     5A    -11.405950     6A    -11.256880
       7A    -11.256180     8A     -1.488926     9A     -1.401031
      10A     -1.361561    11A     -1.061325    12A     -1.023150
      13A     -0.874827    14A     -0.742074    15A     -0.704419
      16A     -0.698140    17A     -0.686084    18A     -0.627260
      19A     -0.622624    20A     -0.602082    21A     -0.584481
      22A     -0.579943    23A     -0.560211    24A     -0.517453
      25A     -0.481018    26A     -0.479666    27A     -0.446952

  @DF-RHF Final Energy:  -379.71931702297286

   => Energetics <=

    Nuclear Repulsion Energy =            300.9823289430980822
    One-Electron Energy =               -1116.1388854247777545
    Two-Electron Energy =                 435.4372394587068129
    Total Energy =                       -379.7193170229728594
  Basis Set: (AUG-CC-PVTZ AUX)
    Blend: AUG-CC-PVTZ-RI
    Molecular point group: c1

    Geometry (in Angstrom), charge = 0, multiplicity = 1:

       Center              X                  Y                   Z               Mass
    ------------   -----------------  -----------------  -----------------  -----------------
         O           -0.000124599308    -0.676693602046    -0.000932866894    15.994914619570
         O           -1.268296599308     1.142531397954    -0.617022866894    15.994914619570
         O            1.268016400692     1.142525397954     0.615204133106    15.994914619570
         C           -1.199781299308     0.013662397954    -0.139829866894    12.000000000000
         C            1.200624400692     0.032048397954     0.145772133106    12.000000000000
         C           -2.340773599308    -0.831093602046     0.308482133106    12.000000000000
         C            2.340529400692    -0.831074602046    -0.310299866894    12.000000000000
         H           -3.281809599308    -0.322937602046     0.101720133106     1.007825032230
         H           -2.244360599308    -1.022683602046     1.380195133106     1.007825032230
         H           -2.307253599308    -1.793925602046    -0.206321866894     1.007825032230
         H            2.307020400692    -1.793913602046     0.204489133106     1.007825032230
         H            3.281547400692    -0.322897602046    -0.103504866894     1.007825032230
         H            2.244149400692    -1.022651602046    -1.382017866894     1.007825032230

  Basis Set: AUG-CC-PVTZ
    Blend: AUG-CC-PVTZ
  Basis Set: (AUG-CC-PVTZ AUX)
    Blend: AUG-CC-PVTZ-JKFIT
	 Reference Energy          =    -379.7193170229728594 [Eh]
	 Singles Energy            =      -0.0000000000000000 [Eh]
	 Same-Spin Energy          =      -0.3645103347451386 [Eh]
	 Opposite-Spin Energy      =      -1.1318261272108969 [Eh]
	 Correlation Energy        =      -1.4963364619560355 [Eh]
	 Total Energy              =    -381.2156534849289073 [Eh]

	 ================> DF-SCS-MP2 Energies <==================
	-----------------------------------------------------------
	 SCS Same-Spin Scale       =       0.3333333333333333 [-]
	 SCS Opposite-Spin Scale   =       1.2000000000000000 [-]
	 SCS Same-Spin Energy      =      -0.1215034449150462 [Eh]
	 SCS Opposite-Spin Energy  =      -1.3581913526530762 [Eh]
	 SCS Correlation Energy    =      -1.4796947975681225 [Eh]
	 SCS Total Energy          =    -381.1990118205409885 [Eh]
	-----------------------------------------------------------

  Dipole Moment: [D]
     X:     0.0691      Y:    -3.9696      Z:     0.0533     Total:     3.9706

*** Psi4 exiting successfully. Buy a developer a beer!
