                               Psi4 1.4a3.dev225

  ==> Input File <==

--------------------------------------------------------------------------
#psi4
#
memory 32 gb

molecule  {
0 1
  O        0.0000060    -0.6211290    -0.0000190
  O       -1.2681660     1.1980960    -0.6161090
  O        1.2681470     1.1980900     0.6161180
  C       -1.2435896     0.1128958    -0.1519217
  C        1.2007550     0.0876130     0.1466860
  C       -2.3406430    -0.7755290     0.3093960
  C        2.3406600    -0.7755100    -0.3093860
  H       -3.2816790    -0.2673730     0.1026340
  H       -2.2442300    -0.9671190     1.3811090
  H       -2.3071230    -1.7383610    -0.2054080
  H        2.3071510    -1.7383490     0.2054030
  H        3.2816780    -0.2673330    -0.1025910
  H        2.2442800    -0.9670870    -1.3811040
units angstrom
no_reorient  #important for SAPT in psi4, default
symmetry c1  #important for SAPT in psi4, default
}

set PROPERTIES_ORIGIN ["COM"]
properties('MP2/aug-cc-pvtz', properties = ['dipole'])
--------------------------------------------------------------------------

    Molecular point group: c1
  Charge       = 0
  Multiplicity = 1
  Basis Set: AUG-CC-PVTZ
    Blend: AUG-CC-PVTZ
  Basis Set: (AUG-CC-PVTZ AUX)
    Blend: AUG-CC-PVTZ-JKFIT

    Orbital Energies [Eh]
    ---------------------

    Doubly Occupied:

       1A    -20.617711     2A    -20.575647     3A    -20.559808
       4A    -11.405236     5A    -11.397464     6A    -11.258941
       7A    -11.251170     8A     -1.478481     9A     -1.418031
      10A     -1.360109    11A     -1.057383    12A     -1.020582
      13A     -0.855854    14A     -0.742279    15A     -0.701992
      16A     -0.696158    17A     -0.678719    18A     -0.634409
      19A     -0.625173    20A     -0.600828    21A     -0.585635
      22A     -0.576654    23A     -0.554995    24A     -0.527246
      25A     -0.482384    26A     -0.479745    27A     -0.445367

  @DF-RHF Final Energy:  -379.72034790665185

   => Energetics <=

    Nuclear Repulsion Energy =            300.7485169264312503
    One-Electron Energy =               -1115.7617214143431283
    Two-Electron Energy =                 435.2928565812600823
    Total Energy =                       -379.7203479066518526
  Basis Set: (AUG-CC-PVTZ AUX)
    Blend: AUG-CC-PVTZ-RI
    Molecular point group: c1

    Geometry (in Angstrom), charge = 0, multiplicity = 1:

       Center              X                  Y                   Z               Mass
    ------------   -----------------  -----------------  -----------------  -----------------
         O            0.005043077313    -0.681829512068     0.000596740170    15.994914619570
         O           -1.263128922687     1.137395487932    -0.615493259830    15.994914619570
         O            1.273184077313     1.137389487932     0.616733740170    15.994914619570
         C           -1.238552522687     0.052195287932    -0.151305959830    12.000000000000
         C            1.205792077313     0.026912487932     0.147301740170    12.000000000000
         C           -2.335605922687    -0.836229512068     0.310011740170    12.000000000000
         C            2.345697077313    -0.836210512068    -0.308770259830    12.000000000000
         H           -3.276641922687    -0.328073512068     0.103249740170     1.007825032230
         H           -2.239192922687    -1.027819512068     1.381724740170     1.007825032230
         H           -2.302085922687    -1.799061512068    -0.204792259830     1.007825032230
         H            2.312188077313    -1.799049512068     0.206018740170     1.007825032230
         H            3.286715077313    -0.328033512068    -0.101975259830     1.007825032230
         H            2.249317077313    -1.027787512068    -1.380488259830     1.007825032230

  Basis Set: AUG-CC-PVTZ
    Blend: AUG-CC-PVTZ
  Basis Set: (AUG-CC-PVTZ AUX)
    Blend: AUG-CC-PVTZ-JKFIT
	 Reference Energy          =    -379.7203479066518526 [Eh]
	 Singles Energy            =      -0.0000000000000000 [Eh]
	 Same-Spin Energy          =      -0.3640244442752670 [Eh]
	 Opposite-Spin Energy      =      -1.1306766430345321 [Eh]
	 Correlation Energy        =      -1.4947010873097990 [Eh]
	 Total Energy              =    -381.2150489939616591 [Eh]

	 ================> DF-SCS-MP2 Energies <==================
	-----------------------------------------------------------
	 SCS Same-Spin Scale       =       0.3333333333333333 [-]
	 SCS Opposite-Spin Scale   =       1.2000000000000000 [-]
	 SCS Same-Spin Energy      =      -0.1213414814250890 [Eh]
	 SCS Opposite-Spin Energy  =      -1.3568119716414384 [Eh]
	 SCS Correlation Energy    =      -1.4781534530665275 [Eh]
	 SCS Total Energy          =    -381.1985013597183638 [Eh]
	-----------------------------------------------------------

  Dipole Moment: [D]
     X:    -0.5015      Y:    -3.7057      Z:    -0.0705     Total:     3.7401

*** Psi4 exiting successfully. Buy a developer a beer!
