                               Psi4 1.3.2 release

  ==> Input File <==

--------------------------------------------------------------------------
#psi4
#
memory 32 gb

molecule  {
0 1
  O        0.0000880    -0.6211650    -0.0005950
  O       -1.2683150     1.1981060    -0.6159220
  O        1.2678170     1.1981120     0.6161180
  C       -1.2007280     0.0874770    -0.1468620
  C        1.2006690     0.0876850     0.1465060
  C       -2.1885546    -0.6606363     0.2487178
  C        2.3408080    -0.7753200    -0.3091130
  H       -3.2816210    -0.2684080     0.1012520
  H       -2.2447620    -0.9652410     1.3817000
  H       -2.3058710    -1.7394120    -0.2034460
  H        2.3088350    -1.7369770     0.2080250
  H        3.2815980    -0.2658330    -0.1045500
  H        2.2432560    -0.9696180    -1.3802210
units angstrom
no_reorient  #important for SAPT in psi4, default
symmetry c1  #important for SAPT in psi4, default
}

set PROPERTIES_ORIGIN ["COM"]
properties('MP2/aug-cc-pvtz', properties = ['dipole'])
--------------------------------------------------------------------------

    Molecular point group: c1
  Charge       = 0
  Multiplicity = 1
  Basis Set: AUG-CC-PVTZ
    Blend: AUG-CC-PVTZ
  Basis Set: (AUG-CC-PVTZ AUX)
    Blend: AUG-CC-PVTZ-JKFIT

    Orbital Energies [Eh]
    ---------------------

    Doubly Occupied:

       1A    -20.626804     2A    -20.564659     3A    -20.561642
       4A    -11.402587     5A    -11.391962     6A    -11.263298
       7A    -11.254524     8A     -1.488545     9A     -1.407471
      10A     -1.365662    11A     -1.091495    12A     -1.028711
      13A     -0.863559    14A     -0.749800    15A     -0.718794
      16A     -0.700889    17A     -0.688198    18A     -0.640871
      19A     -0.623847    20A     -0.599065    21A     -0.583596
      22A     -0.557276    23A     -0.535838    24A     -0.504545
      25A     -0.480202    26A     -0.476063    27A     -0.451625

  @DF-RHF Final Energy:  -379.66958093719472

   => Energetics <=

    Nuclear Repulsion Energy =            304.7891532570545223
    One-Electron Energy =               -1123.6744162015672828
    Two-Electron Energy =                 439.2156820073180370
    Total Energy =                       -379.6695809371947234
  Basis Set: (AUG-CC-PVTZ AUX)
    Blend: AUG-CC-PVTZ-RI
    Molecular point group: c1

    Geometry (in Angstrom), charge = 0, multiplicity = 1:

       Center              X                  Y                   Z               Mass
    ------------   -----------------  -----------------  -----------------  -----------------
         O           -0.017761562637    -0.692420084067     0.006585266687    15.994914619570
         O           -1.286164562637     1.126850915933    -0.608741733313    15.994914619570
         O            1.249967437363     1.126856915933     0.623298266687    15.994914619570
         C           -1.218577562637     0.016221915933    -0.139681733313    12.000000000000
         C            1.182819437363     0.016429915933     0.153686266687    12.000000000000
         C           -2.206404162637    -0.731891384067     0.255898066687    12.000000000000
         C            2.322958437363    -0.846575084067    -0.301932733313    12.000000000000
         H           -3.299470562637    -0.339663084067     0.108432266687     1.007825032230
         H           -2.262611562637    -1.036496084067     1.388880266687     1.007825032230
         H           -2.323720562637    -1.810667084067    -0.196265733313     1.007825032230
         H            2.290985437363    -1.808232084067     0.215205266687     1.007825032230
         H            3.263748437363    -0.337088084067    -0.097369733313     1.007825032230
         H            2.225406437363    -1.040873084067    -1.373040733313     1.007825032230

  Basis Set: AUG-CC-PVTZ
    Blend: AUG-CC-PVTZ
  Basis Set: (AUG-CC-PVTZ AUX)
    Blend: AUG-CC-PVTZ-JKFIT
	 Reference Energy          =    -379.6695809371947234 [Eh]
	 Singles Energy            =      -0.0000000000000000 [Eh]
	 Same-Spin Energy          =      -0.3672351742239193 [Eh]
	 Opposite-Spin Energy      =      -1.1349704929082542 [Eh]
	 Correlation Energy        =      -1.5022056671321735 [Eh]
	 Total Energy              =    -381.1717866043268828 [Eh]

	 ================> DF-SCS-MP2 Energies <==================
	-----------------------------------------------------------
	 SCS Same-Spin Scale       =       0.3333333333333333 [-]
	 SCS Opposite-Spin Scale   =       1.2000000000000000 [-]
	 SCS Same-Spin Energy      =      -0.1224117247413064 [Eh]
	 SCS Opposite-Spin Energy  =      -1.3619645914899050 [Eh]
	 SCS Correlation Energy    =      -1.4843763162312114 [Eh]
	 SCS Total Energy          =    -381.1539572534259150 [Eh]
	-----------------------------------------------------------

  Dipole Moment: [D]
     X:    -0.3052      Y:    -4.1000      Z:     0.1230     Total:     4.1132

*** Psi4 exiting successfully. Buy a developer a beer!
