                               Psi4 1.4a3.dev225

  ==> Input File <==

--------------------------------------------------------------------------
#psi4
#
memory 32 gb

molecule  {
0 1
  O        0.0000060    -0.6211290    -0.0000190
  O       -1.2681660     1.1980960    -0.6161090
  O        1.2681470     1.1980900     0.6161180
  C       -1.2178960     0.0977303    -0.1487833
  C        1.2007550     0.0876130     0.1466860
  C       -2.3406430    -0.7755290     0.3093960
  C        2.3406600    -0.7755100    -0.3093860
  H       -3.2816790    -0.2673730     0.1026340
  H       -2.2442300    -0.9671190     1.3811090
  H       -2.3071230    -1.7383610    -0.2054080
  H        2.3071510    -1.7383490     0.2054030
  H        3.2816780    -0.2673330    -0.1025910
  H        2.2442800    -0.9670870    -1.3811040
units angstrom
no_reorient  #important for SAPT in psi4, default
symmetry c1  #important for SAPT in psi4, default
}

set PROPERTIES_ORIGIN ["COM"]
properties('MP2/aug-cc-pvtz', properties = ['dipole'])
--------------------------------------------------------------------------

    Molecular point group: c1
  Charge       = 0
  Multiplicity = 1
  Basis Set: AUG-CC-PVTZ
    Blend: AUG-CC-PVTZ
  Basis Set: (AUG-CC-PVTZ AUX)
    Blend: AUG-CC-PVTZ-JKFIT

    Orbital Energies [Eh]
    ---------------------

    Doubly Occupied:

       1A    -20.625543     2A    -20.570059     3A    -20.563754
       4A    -11.404756     5A    -11.401723     6A    -11.256989
       7A    -11.253975     8A     -1.482617     9A     -1.411404
      10A     -1.365040    11A     -1.057326    12A     -1.020898
      13A     -0.864651    14A     -0.741901    15A     -0.702317
      16A     -0.698594    17A     -0.682185    18A     -0.630610
      19A     -0.623814    20A     -0.600689    21A     -0.585934
      22A     -0.578520    23A     -0.556982    24A     -0.523251
      25A     -0.483752    26A     -0.480781    27A     -0.446456

  @DF-RHF Final Energy:  -379.72177279243107

   => Energetics <=

    Nuclear Repulsion Energy =            300.9278358123354451
    One-Electron Energy =               -1116.0701770296457198
    Two-Electron Energy =                 435.4205684248792636
    Total Energy =                       -379.7217727924310680
  Basis Set: (AUG-CC-PVTZ AUX)
    Blend: AUG-CC-PVTZ-RI
    Molecular point group: c1

    Geometry (in Angstrom), charge = 0, multiplicity = 1:

       Center              X                  Y                   Z               Mass
    ------------   -----------------  -----------------  -----------------  -----------------
         O            0.002021239806    -0.680045889815     0.000227631333    15.994914619570
         O           -1.266150760194     1.139179110185    -0.615862368667    15.994914619570
         O            1.270162239806     1.139173110185     0.616364631333    15.994914619570
         C           -1.215880760194     0.038813410185    -0.148536668667    12.000000000000
         C            1.202770239806     0.028696110185     0.146932631333    12.000000000000
         C           -2.338627760194    -0.834445889815     0.309642631333    12.000000000000
         C            2.342675239806    -0.834426889815    -0.309139368667    12.000000000000
         H           -3.279663760194    -0.326289889815     0.102880631333     1.007825032230
         H           -2.242214760194    -1.026035889815     1.381355631333     1.007825032230
         H           -2.305107760194    -1.797277889815    -0.205161368667     1.007825032230
         H            2.309166239806    -1.797265889815     0.205649631333     1.007825032230
         H            3.283693239806    -0.326249889815    -0.102344368667     1.007825032230
         H            2.246295239806    -1.026003889815    -1.380857368667     1.007825032230

  Basis Set: AUG-CC-PVTZ
    Blend: AUG-CC-PVTZ
  Basis Set: (AUG-CC-PVTZ AUX)
    Blend: AUG-CC-PVTZ-JKFIT
	 Reference Energy          =    -379.7217727924310680 [Eh]
	 Singles Energy            =      -0.0000000000000000 [Eh]
	 Same-Spin Energy          =      -0.3640217664057267 [Eh]
	 Opposite-Spin Energy      =      -1.1308017367740955 [Eh]
	 Correlation Energy        =      -1.4948235031798220 [Eh]
	 Total Energy              =    -381.2165962956108842 [Eh]

	 ================> DF-SCS-MP2 Energies <==================
	-----------------------------------------------------------
	 SCS Same-Spin Scale       =       0.3333333333333333 [-]
	 SCS Opposite-Spin Scale   =       1.2000000000000000 [-]
	 SCS Same-Spin Energy      =      -0.1213405888019089 [Eh]
	 SCS Opposite-Spin Energy  =      -1.3569620841289145 [Eh]
	 SCS Correlation Energy    =      -1.4783026729308233 [Eh]
	 SCS Total Energy          =    -381.2000754653619197 [Eh]
	-----------------------------------------------------------

  Dipole Moment: [D]
     X:    -0.1985      Y:    -3.7999      Z:    -0.0280     Total:     3.8052

*** Psi4 exiting successfully. Buy a developer a beer!
