                               Psi4 1.3.2 release

  ==> Input File <==

--------------------------------------------------------------------------
#psi4
#
memory 32 gb

molecule  {
0 1
  O        0.0000880    -0.6211650    -0.0005950
  O       -1.3936499     1.1890067    -0.6023788
  O        1.2678170     1.1981120     0.6161180
  C       -1.2007280     0.0874770    -0.1468620
  C        1.2006690     0.0876850     0.1465060
  C       -2.3404400    -0.7756640     0.3095410
  C        2.3408080    -0.7753200    -0.3091130
  H       -3.2816210    -0.2684080     0.1012520
  H       -2.2447620    -0.9652410     1.3817000
  H       -2.3058710    -1.7394120    -0.2034460
  H        2.3088350    -1.7369770     0.2080250
  H        3.2815980    -0.2658330    -0.1045500
  H        2.2432560    -0.9696180    -1.3802210
units angstrom
no_reorient  #important for SAPT in psi4, default
symmetry c1  #important for SAPT in psi4, default
}

set PROPERTIES_ORIGIN ["COM"]
properties('MP2/aug-cc-pvtz', properties = ['dipole'])
--------------------------------------------------------------------------

    Molecular point group: c1
  Charge       = 0
  Multiplicity = 1
  Basis Set: AUG-CC-PVTZ
    Blend: AUG-CC-PVTZ
  Basis Set: (AUG-CC-PVTZ AUX)
    Blend: AUG-CC-PVTZ-JKFIT

    Orbital Energies [Eh]
    ---------------------

    Doubly Occupied:

       1A    -20.638890     2A    -20.571181     3A    -20.567617
       4A    -11.408811     5A    -11.404910     6A    -11.258707
       7A    -11.248607     8A     -1.489435     9A     -1.410556
      10A     -1.373437    11A     -1.058073    12A     -1.018287
      13A     -0.873763    14A     -0.745269    15A     -0.705396
      16A     -0.701492    17A     -0.688022    18A     -0.629431
      19A     -0.622895    20A     -0.600467    21A     -0.587435
      22A     -0.579003    23A     -0.558788    24A     -0.522303
      25A     -0.488200    26A     -0.482257    27A     -0.447089

  @DF-RHF Final Energy:  -379.71850437916538

   => Energetics <=

    Nuclear Repulsion Energy =            300.1081308412688600
    One-Electron Energy =               -1114.2926308428018274
    Two-Electron Energy =                 434.4659956223676431
    Total Energy =                       -379.7185043791653811
  Basis Set: (AUG-CC-PVTZ AUX)
    Blend: AUG-CC-PVTZ-RI
    Molecular point group: c1

    Geometry (in Angstrom), charge = 0, multiplicity = 1:

       Center              X                  Y                   Z               Mass
    ------------   -----------------  -----------------  -----------------  -----------------
         O            0.019749779892    -0.677465172843    -0.002691269750    15.994914619570
         O           -1.373988120108     1.132706527157    -0.604475069750    15.994914619570
         O            1.287478779892     1.141811827157     0.614021730250    15.994914619570
         C           -1.181066220108     0.031176827157    -0.148958269750    12.000000000000
         C            1.220330779892     0.031384827157     0.144409730250    12.000000000000
         C           -2.320778220108    -0.831964172843     0.307444730250    12.000000000000
         C            2.360469779892    -0.831620172843    -0.311209269750    12.000000000000
         H           -3.261959220108    -0.324708172843     0.099155730250     1.007825032230
         H           -2.225100220108    -1.021541172843     1.379603730250     1.007825032230
         H           -2.286209220108    -1.795712172843    -0.205542269750     1.007825032230
         H            2.328496779892    -1.793277172843     0.205928730250     1.007825032230
         H            3.301259779892    -0.322133172843    -0.106646269750     1.007825032230
         H            2.262917779892    -1.025918172843    -1.382317269750     1.007825032230

  Basis Set: AUG-CC-PVTZ
    Blend: AUG-CC-PVTZ
  Basis Set: (AUG-CC-PVTZ AUX)
    Blend: AUG-CC-PVTZ-JKFIT
	 Reference Energy          =    -379.7185043791653811 [Eh]
	 Singles Energy            =      -0.0000000000000000 [Eh]
	 Same-Spin Energy          =      -0.3640811594799936 [Eh]
	 Opposite-Spin Energy      =      -1.1312879194548164 [Eh]
	 Correlation Energy        =      -1.4953690789348100 [Eh]
	 Total Energy              =    -381.2138734581001813 [Eh]

	 ================> DF-SCS-MP2 Energies <==================
	-----------------------------------------------------------
	 SCS Same-Spin Scale       =       0.3333333333333333 [-]
	 SCS Opposite-Spin Scale   =       1.2000000000000000 [-]
	 SCS Same-Spin Energy      =      -0.1213603864933312 [Eh]
	 SCS Opposite-Spin Energy  =      -1.3575455033457797 [Eh]
	 SCS Correlation Energy    =      -1.4789058898391110 [Eh]
	 SCS Total Energy          =    -381.1974102690044788 [Eh]
	-----------------------------------------------------------

  Dipole Moment: [D]
     X:     0.3869      Y:    -3.8018      Z:    -0.0465     Total:     3.8217

*** Psi4 exiting successfully. Buy a developer a beer!
