                               Psi4 1.3.2 release

  ==> Input File <==

--------------------------------------------------------------------------
#psi4
#
memory 32 gb

molecule  {
0 1
  O        0.0000880    -0.6211650    -0.0005950
  O       -1.2683150     1.1981060    -0.6159220
  O        1.2678170     1.1981120     0.6161180
  C       -1.1354860     0.0126644    -0.1134056
  C        1.2006690     0.0876850     0.1465060
  C       -2.3404400    -0.7756640     0.3095410
  C        2.3408080    -0.7753200    -0.3091130
  H       -3.2816210    -0.2684080     0.1012520
  H       -2.2447620    -0.9652410     1.3817000
  H       -2.3058710    -1.7394120    -0.2034460
  H        2.3088350    -1.7369770     0.2080250
  H        3.2815980    -0.2658330    -0.1045500
  H        2.2432560    -0.9696180    -1.3802210
units angstrom
no_reorient  #important for SAPT in psi4, default
symmetry c1  #important for SAPT in psi4, default
}

set PROPERTIES_ORIGIN ["COM"]
properties('MP2/aug-cc-pvtz', properties = ['dipole'])
--------------------------------------------------------------------------

    Molecular point group: c1
  Charge       = 0
  Multiplicity = 1
  Basis Set: AUG-CC-PVTZ
    Blend: AUG-CC-PVTZ
  Basis Set: (AUG-CC-PVTZ AUX)
    Blend: AUG-CC-PVTZ-JKFIT

    Orbital Energies [Eh]
    ---------------------

    Doubly Occupied:

       1A    -20.653745     2A    -20.578376     3A    -20.544482
       4A    -11.418041     5A    -11.406498     6A    -11.264569
       7A    -11.253754     8A     -1.522078     9A     -1.406440
      10A     -1.325208    11A     -1.070844    12A     -1.023488
      13A     -0.902435    14A     -0.750405    15A     -0.716791
      16A     -0.705612    17A     -0.689144    18A     -0.628732
      19A     -0.621038    20A     -0.603581    21A     -0.586902
      22A     -0.573313    23A     -0.561794    24A     -0.518304
      25A     -0.484225    26A     -0.458093    27A     -0.438777

  @DF-RHF Final Energy:  -379.70253754568307

   => Energetics <=

    Nuclear Repulsion Energy =            301.4947716697301416
    One-Electron Energy =               -1116.9812797085444345
    Two-Electron Energy =                 435.7839704931311644
    Total Energy =                       -379.7025375456830716
  Basis Set: (AUG-CC-PVTZ AUX)
    Blend: AUG-CC-PVTZ-RI
    Molecular point group: c1

    Geometry (in Angstrom), charge = 0, multiplicity = 1:

       Center              X                  Y                   Z               Mass
    ------------   -----------------  -----------------  -----------------  -----------------
         O           -0.007571387813    -0.670092868772    -0.004503005545    15.994914619570
         O           -1.275974387813     1.149178131228    -0.619830005545    15.994914619570
         O            1.260157612187     1.149184131228     0.612209994455    15.994914619570
         C           -1.143145387813    -0.036263468772    -0.117313605545    12.000000000000
         C            1.193009612187     0.038757131228     0.142597994455    12.000000000000
         C           -2.348099387813    -0.824591868772     0.305632994455    12.000000000000
         C            2.333148612187    -0.824247868772    -0.313021005545    12.000000000000
         H           -3.289280387813    -0.317335868772     0.097343994455     1.007825032230
         H           -2.252421387813    -1.014168868772     1.377791994455     1.007825032230
         H           -2.313530387813    -1.788339868772    -0.207354005545     1.007825032230
         H            2.301175612187    -1.785904868772     0.204116994455     1.007825032230
         H            3.273938612187    -0.314760868772    -0.108458005545     1.007825032230
         H            2.235596612187    -1.018545868772    -1.384129005545     1.007825032230

  Basis Set: AUG-CC-PVTZ
    Blend: AUG-CC-PVTZ
  Basis Set: (AUG-CC-PVTZ AUX)
    Blend: AUG-CC-PVTZ-JKFIT
	 Reference Energy          =    -379.7025375456830716 [Eh]
	 Singles Energy            =      -0.0000000000000000 [Eh]
	 Same-Spin Energy          =      -0.3655235491825780 [Eh]
	 Opposite-Spin Energy      =      -1.1339069233174097 [Eh]
	 Correlation Energy        =      -1.4994304724999878 [Eh]
	 Total Energy              =    -381.2019680181830381 [Eh]

	 ================> DF-SCS-MP2 Energies <==================
	-----------------------------------------------------------
	 SCS Same-Spin Scale       =       0.3333333333333333 [-]
	 SCS Opposite-Spin Scale   =       1.2000000000000000 [-]
	 SCS Same-Spin Energy      =      -0.1218411830608593 [Eh]
	 SCS Opposite-Spin Energy  =      -1.3606883079808916 [Eh]
	 SCS Correlation Energy    =      -1.4825294910417508 [Eh]
	 SCS Total Energy          =    -381.1850670367248313 [Eh]
	-----------------------------------------------------------

  Dipole Moment: [D]
     X:     0.8329      Y:    -4.3048      Z:     0.2205     Total:     4.3901

*** Psi4 exiting successfully. Buy a developer a beer!
