                               Psi4 1.3.2 release

  ==> Input File <==

--------------------------------------------------------------------------
#psi4
#
memory 32 gb

molecule  {
0 1
  O        0.0000880    -0.6211650    -0.0005950
  O       -1.2683150     1.1981060    -0.6159220
  O        1.2678170     1.1981120     0.6161180
  C       -1.1895336    -0.0964765    -0.0691716
  C        1.2006690     0.0876850     0.1465060
  C       -2.3404400    -0.7756640     0.3095410
  C        2.3408080    -0.7753200    -0.3091130
  H       -3.2816210    -0.2684080     0.1012520
  H       -2.2447620    -0.9652410     1.3817000
  H       -2.3058710    -1.7394120    -0.2034460
  H        2.3088350    -1.7369770     0.2080250
  H        3.2815980    -0.2658330    -0.1045500
  H        2.2432560    -0.9696180    -1.3802210
units angstrom
no_reorient  #important for SAPT in psi4, default
symmetry c1  #important for SAPT in psi4, default
}

set PROPERTIES_ORIGIN ["COM"]
properties('MP2/aug-cc-pvtz', properties = ['dipole'])
--------------------------------------------------------------------------

    Molecular point group: c1
  Charge       = 0
  Multiplicity = 1
  Basis Set: AUG-CC-PVTZ
    Blend: AUG-CC-PVTZ
  Basis Set: (AUG-CC-PVTZ AUX)
    Blend: AUG-CC-PVTZ-JKFIT

    Orbital Energies [Eh]
    ---------------------

    Doubly Occupied:

       1A    -20.655718     2A    -20.577007     3A    -20.528104
       4A    -11.419899     5A    -11.414992     6A    -11.265590
       7A    -11.259991     8A     -1.519417     9A     -1.404536
      10A     -1.262339    11A     -1.092160    12A     -1.044604
      13A     -0.911900    14A     -0.745529    15A     -0.718103
      16A     -0.709517    17A     -0.693775    18A     -0.635855
      19A     -0.627958    20A     -0.611559    21A     -0.595016
      22A     -0.578736    23A     -0.533604    24A     -0.507816
      25A     -0.479019    26A     -0.429612    27A     -0.418759

  @DF-RHF Final Energy:  -379.65194134070640

   => Energetics <=

    Nuclear Repulsion Energy =            300.6920869670969410
    One-Electron Energy =               -1115.4058271826665987
    Two-Electron Energy =                 435.0617988748633138
    Total Energy =                       -379.6519413407064008
  Basis Set: (AUG-CC-PVTZ AUX)
    Blend: AUG-CC-PVTZ-RI
    Molecular point group: c1

    Geometry (in Angstrom), charge = 0, multiplicity = 1:

       Center              X                  Y                   Z               Mass
    ------------   -----------------  -----------------  -----------------  -----------------
         O           -0.001214821787    -0.657256751405    -0.009705389030    15.994914619570
         O           -1.269617821787     1.162014248595    -0.625032389030    15.994914619570
         O            1.266514178213     1.162020248595     0.607007610970    15.994914619570
         C           -1.190836421787    -0.132568251405    -0.078281989030    12.000000000000
         C            1.199366178213     0.051593248595     0.137395610970    12.000000000000
         C           -2.341742821787    -0.811755751405     0.300430610970    12.000000000000
         C            2.339505178213    -0.811411751405    -0.318223389030    12.000000000000
         H           -3.282923821787    -0.304499751405     0.092141610970     1.007825032230
         H           -2.246064821787    -1.001332751405     1.372589610970     1.007825032230
         H           -2.307173821787    -1.775503751405    -0.212556389030     1.007825032230
         H            2.307532178213    -1.773068751405     0.198914610970     1.007825032230
         H            3.280295178213    -0.301924751405    -0.113660389030     1.007825032230
         H            2.241953178213    -1.005709751405    -1.389331389030     1.007825032230

  Basis Set: AUG-CC-PVTZ
    Blend: AUG-CC-PVTZ
  Basis Set: (AUG-CC-PVTZ AUX)
    Blend: AUG-CC-PVTZ-JKFIT
	 Reference Energy          =    -379.6519413407064008 [Eh]
	 Singles Energy            =      -0.0000000000000000 [Eh]
	 Same-Spin Energy          =      -0.3695259239046852 [Eh]
	 Opposite-Spin Energy      =      -1.1410314510260209 [Eh]
	 Correlation Energy        =      -1.5105573749307060 [Eh]
	 Total Energy              =    -381.1624987156371276 [Eh]

	 ================> DF-SCS-MP2 Energies <==================
	-----------------------------------------------------------
	 SCS Same-Spin Scale       =       0.3333333333333333 [-]
	 SCS Opposite-Spin Scale   =       1.2000000000000000 [-]
	 SCS Same-Spin Energy      =      -0.1231753079682284 [Eh]
	 SCS Opposite-Spin Energy  =      -1.3692377412312251 [Eh]
	 SCS Correlation Energy    =      -1.4924130491994534 [Eh]
	 SCS Total Energy          =    -381.1443543899058568 [Eh]
	-----------------------------------------------------------

  Dipole Moment: [D]
     X:     0.6187      Y:    -4.7905      Z:     0.4666     Total:     4.8528

*** Psi4 exiting successfully. Buy a developer a beer!
