                               Psi4 1.4a3.dev225

  ==> Input File <==

--------------------------------------------------------------------------
#psi4
#
memory 32 gb

molecule  {
0 1
  O        0.0000060    -0.6211290    -0.0000190
  O       -1.2681660     1.1980960    -0.6161090
  O        1.2681470     1.1980900     0.6161180
  C       -1.1579444     0.0623442    -0.1414603
  C        1.2007550     0.0876130     0.1466860
  C       -2.3406430    -0.7755290     0.3093960
  C        2.3406600    -0.7755100    -0.3093860
  H       -3.2816790    -0.2673730     0.1026340
  H       -2.2442300    -0.9671190     1.3811090
  H       -2.3071230    -1.7383610    -0.2054080
  H        2.3071510    -1.7383490     0.2054030
  H        3.2816780    -0.2673330    -0.1025910
  H        2.2442800    -0.9670870    -1.3811040
units angstrom
no_reorient  #important for SAPT in psi4, default
symmetry c1  #important for SAPT in psi4, default
}

set PROPERTIES_ORIGIN ["COM"]
properties('MP2/aug-cc-pvtz', properties = ['dipole'])
--------------------------------------------------------------------------

    Molecular point group: c1
  Charge       = 0
  Multiplicity = 1
  Basis Set: AUG-CC-PVTZ
    Blend: AUG-CC-PVTZ
  Basis Set: (AUG-CC-PVTZ AUX)
    Blend: AUG-CC-PVTZ-JKFIT

    Orbital Energies [Eh]
    ---------------------

    Doubly Occupied:

       1A    -20.642695     2A    -20.572929     3A    -20.557186
       4A    -11.411424     5A    -11.404157     6A    -11.260310
       7A    -11.253252     8A     -1.503571     9A     -1.402912
      10A     -1.360992    11A     -1.061869    12A     -1.018282
      13A     -0.885943    14A     -0.745929    15A     -0.710196
      16A     -0.697977    17A     -0.692153    18A     -0.626312
      19A     -0.620509    20A     -0.600840    21A     -0.583694
      22A     -0.580286    23A     -0.562431    24A     -0.519066
      25A     -0.483394    26A     -0.478137    27A     -0.444196

  @DF-RHF Final Energy:  -379.71801260874844

   => Energetics <=

    Nuclear Repulsion Energy =            301.3989325792617819
    One-Electron Energy =               -1116.8726073510558763
    Two-Electron Energy =                 435.7556621630456561
    Total Energy =                       -379.7180126087484382
  Basis Set: (AUG-CC-PVTZ AUX)
    Blend: AUG-CC-PVTZ-RI
    Molecular point group: c1

    Geometry (in Angstrom), charge = 0, multiplicity = 1:

       Center              X                  Y                   Z               Mass
    ------------   -----------------  -----------------  -----------------  -----------------
         O           -0.005029698695    -0.675884112399    -0.000633630463    15.994914619570
         O           -1.273201698695     1.143340887601    -0.616723630463    15.994914619570
         O            1.263111301305     1.143334887601     0.615503369537    15.994914619570
         C           -1.162980098695     0.007589087601    -0.142074930463    12.000000000000
         C            1.195719301305     0.032857887601     0.146071369537    12.000000000000
         C           -2.345678698695    -0.830284112399     0.308781369537    12.000000000000
         C            2.335624301305    -0.830265112399    -0.310000630463    12.000000000000
         H           -3.286714698695    -0.322128112399     0.102019369537     1.007825032230
         H           -2.249265698695    -1.021874112399     1.380494369537     1.007825032230
         H           -2.312158698695    -1.793116112399    -0.206022630463     1.007825032230
         H            2.302115301305    -1.793104112399     0.204788369537     1.007825032230
         H            3.276642301305    -0.322088112399    -0.103205630463     1.007825032230
         H            2.239244301305    -1.021842112399    -1.381718630463     1.007825032230

  Basis Set: AUG-CC-PVTZ
    Blend: AUG-CC-PVTZ
  Basis Set: (AUG-CC-PVTZ AUX)
    Blend: AUG-CC-PVTZ-JKFIT
	 Reference Energy          =    -379.7180126087484382 [Eh]
	 Singles Energy            =      -0.0000000000000000 [Eh]
	 Same-Spin Energy          =      -0.3642652050335906 [Eh]
	 Opposite-Spin Energy      =      -1.1314919819416094 [Eh]
	 Correlation Energy        =      -1.4957571869752000 [Eh]
	 Total Energy              =    -381.2137697957236355 [Eh]

	 ================> DF-SCS-MP2 Energies <==================
	-----------------------------------------------------------
	 SCS Same-Spin Scale       =       0.3333333333333333 [-]
	 SCS Opposite-Spin Scale   =       1.2000000000000000 [-]
	 SCS Same-Spin Energy      =      -0.1214217350111969 [Eh]
	 SCS Opposite-Spin Energy  =      -1.3577903783299312 [Eh]
	 SCS Correlation Energy    =      -1.4792121133411280 [Eh]
	 SCS Total Energy          =    -381.1972247220895724 [Eh]
	-----------------------------------------------------------

  Dipole Moment: [D]
     X:     0.4846      Y:    -4.0122      Z:     0.0695     Total:     4.0420

*** Psi4 exiting successfully. Buy a developer a beer!
