                               Psi4 1.3.2 release

  ==> Input File <==

--------------------------------------------------------------------------
#psi4
#
memory 32 gb

molecule  {
0 1
  O        0.0000880    -0.6211650    -0.0005950
  O       -1.2683150     1.1981060    -0.6159220
  O        1.2678170     1.1981120     0.6161180
  C       -1.2007280     0.0874770    -0.1468620
  C        1.2006690     0.0876850     0.1465060
  C       -2.4923254    -0.8906917     0.3703642
  C        2.3408080    -0.7753200    -0.3091130
  H       -3.2816210    -0.2684080     0.1012520
  H       -2.2447620    -0.9652410     1.3817000
  H       -2.3058710    -1.7394120    -0.2034460
  H        2.3088350    -1.7369770     0.2080250
  H        3.2815980    -0.2658330    -0.1045500
  H        2.2432560    -0.9696180    -1.3802210
units angstrom
no_reorient  #important for SAPT in psi4, default
symmetry c1  #important for SAPT in psi4, default
}

set PROPERTIES_ORIGIN ["COM"]
properties('MP2/aug-cc-pvtz', properties = ['dipole'])
--------------------------------------------------------------------------

    Molecular point group: c1
  Charge       = 0
  Multiplicity = 1
  Basis Set: AUG-CC-PVTZ
    Blend: AUG-CC-PVTZ
  Basis Set: (AUG-CC-PVTZ AUX)
    Blend: AUG-CC-PVTZ-JKFIT

    Orbital Energies [Eh]
    ---------------------

    Doubly Occupied:

       1A    -20.631450     2A    -20.567611     3A    -20.566373
       4A    -11.406696     5A    -11.404503     6A    -11.258929
       7A    -11.255920     8A     -1.485328     9A     -1.405442
      10A     -1.365871    11A     -1.047672    12A     -1.010266
      13A     -0.873648    14A     -0.739741    15A     -0.700294
      16A     -0.689392    17A     -0.681071    18A     -0.632903
      19A     -0.625579    20A     -0.608981    21A     -0.589712
      22A     -0.585693    23A     -0.558607    24A     -0.525232
      25A     -0.483941    26A     -0.478124    27A     -0.427337

  @DF-RHF Final Energy:  -379.69368567172933

   => Energetics <=

    Nuclear Repulsion Energy =            297.8382631525138322
    One-Electron Energy =               -1109.8512625175728772
    Two-Electron Energy =                 432.3193136933297183
    Total Energy =                       -379.6936856717293267
  Basis Set: (AUG-CC-PVTZ AUX)
    Blend: AUG-CC-PVTZ-RI
    Molecular point group: c1

    Geometry (in Angstrom), charge = 0, multiplicity = 1:

       Center              X                  Y                   Z               Mass
    ------------   -----------------  -----------------  -----------------  -----------------
         O            0.017965077344    -0.665363150183    -0.007721628965    15.994914619570
         O           -1.250437922656     1.153907849817    -0.623048628965    15.994914619570
         O            1.285694077344     1.153913849817     0.608991371035    15.994914619570
         C           -1.182850922656     0.043278849817    -0.153988628965    12.000000000000
         C            1.218546077344     0.043486849817     0.139379371035    12.000000000000
         C           -2.474448322656    -0.934889850183     0.363237571035    12.000000000000
         C            2.358685077344    -0.819518150183    -0.316239628965    12.000000000000
         H           -3.263743922656    -0.312606150183     0.094125371035     1.007825032230
         H           -2.226884922656    -1.009439150183     1.374573371035     1.007825032230
         H           -2.287993922656    -1.783610150183    -0.210572628965     1.007825032230
         H            2.326712077344    -1.781175150183     0.200898371035     1.007825032230
         H            3.299475077344    -0.310031150183    -0.111676628965     1.007825032230
         H            2.261133077344    -1.013816150183    -1.387347628965     1.007825032230

  Basis Set: AUG-CC-PVTZ
    Blend: AUG-CC-PVTZ
  Basis Set: (AUG-CC-PVTZ AUX)
    Blend: AUG-CC-PVTZ-JKFIT
	 Reference Energy          =    -379.6936856717293267 [Eh]
	 Singles Energy            =      -0.0000000000000000 [Eh]
	 Same-Spin Energy          =      -0.3641436976576924 [Eh]
	 Opposite-Spin Energy      =      -1.1325879225137268 [Eh]
	 Correlation Energy        =      -1.4967316201714191 [Eh]
	 Total Energy              =    -381.1904172919007578 [Eh]

	 ================> DF-SCS-MP2 Energies <==================
	-----------------------------------------------------------
	 SCS Same-Spin Scale       =       0.3333333333333333 [-]
	 SCS Opposite-Spin Scale   =       1.2000000000000000 [-]
	 SCS Same-Spin Energy      =      -0.1213812325525641 [Eh]
	 SCS Opposite-Spin Energy  =      -1.3591055070164721 [Eh]
	 SCS Correlation Energy    =      -1.4804867395690362 [Eh]
	 SCS Total Energy          =    -381.1741724112983434 [Eh]
	-----------------------------------------------------------

  Dipole Moment: [D]
     X:     0.2054      Y:    -3.6948      Z:    -0.0801     Total:     3.7014

*** Psi4 exiting successfully. Buy a developer a beer!
