                               Psi4 1.3.2 release

  ==> Input File <==

--------------------------------------------------------------------------
#psi4
#
memory 32 gb

molecule  {
0 1
  O        0.0000880    -0.6211650    -0.0005950
  O       -1.2683150     1.1981060    -0.6159220
  O        1.2678170     1.1981120     0.6161180
  C       -1.3720318     0.1885691    -0.1677279
  C        1.2006690     0.0876850     0.1465060
  C       -2.3404400    -0.7756640     0.3095410
  C        2.3408080    -0.7753200    -0.3091130
  H       -3.2816210    -0.2684080     0.1012520
  H       -2.2447620    -0.9652410     1.3817000
  H       -2.3058710    -1.7394120    -0.2034460
  H        2.3088350    -1.7369770     0.2080250
  H        3.2815980    -0.2658330    -0.1045500
  H        2.2432560    -0.9696180    -1.3802210
units angstrom
no_reorient  #important for SAPT in psi4, default
symmetry c1  #important for SAPT in psi4, default
}

set PROPERTIES_ORIGIN ["COM"]
properties('MP2/aug-cc-pvtz', properties = ['dipole'])
--------------------------------------------------------------------------

    Molecular point group: c1
  Charge       = 0
  Multiplicity = 1
  Basis Set: AUG-CC-PVTZ
    Blend: AUG-CC-PVTZ
  Basis Set: (AUG-CC-PVTZ AUX)
    Blend: AUG-CC-PVTZ-JKFIT

    Orbital Energies [Eh]
    ---------------------

    Doubly Occupied:

       1A    -20.606759     2A    -20.573039     3A    -20.539164
       4A    -11.411086     5A    -11.374519     6A    -11.272689
       7A    -11.235718     8A     -1.517797     9A     -1.411250
      10A     -1.321314    11A     -1.072040    12A     -1.007762
      13A     -0.819017    14A     -0.756054    15A     -0.708830
      16A     -0.691069    17A     -0.678173    18A     -0.643557
      19A     -0.624570    20A     -0.600031    21A     -0.588378
      22A     -0.574838    23A     -0.559175    24A     -0.526955
      25A     -0.462480    26A     -0.460294    27A     -0.429761

  @DF-RHF Final Energy:  -379.69208623629532

   => Energetics <=

    Nuclear Repulsion Energy =            299.9739792836708716
    One-Electron Energy =               -1114.3994901340818160
    Two-Electron Energy =                 434.7334246141156768
    Total Energy =                       -379.6920862362953244
  Basis Set: (AUG-CC-PVTZ AUX)
    Blend: AUG-CC-PVTZ-RI
    Molecular point group: c1

    Geometry (in Angstrom), charge = 0, multiplicity = 1:

       Center              X                  Y                   Z               Mass
    ------------   -----------------  -----------------  -----------------  -----------------
         O            0.020248885352    -0.690781110985     0.001885868089    15.994914619570
         O           -1.248154114648     1.128489889015    -0.613441131911    15.994914619570
         O            1.287977885352     1.128495889015     0.618598868089    15.994914619570
         C           -1.351870914648     0.118952989015    -0.165247031911    12.000000000000
         C            1.220829885352     0.018068889015     0.148986868089    12.000000000000
         C           -2.320279114648    -0.845280110985     0.312021868089    12.000000000000
         C            2.360968885352    -0.844936110985    -0.306632131911    12.000000000000
         H           -3.261460114648    -0.338024110985     0.103732868089     1.007825032230
         H           -2.224601114648    -1.034857110985     1.384180868089     1.007825032230
         H           -2.285710114648    -1.809028110985    -0.200965131911     1.007825032230
         H            2.328995885352    -1.806593110985     0.210505868089     1.007825032230
         H            3.301758885352    -0.335449110985    -0.102069131911     1.007825032230
         H            2.263416885352    -1.039234110985    -1.377740131911     1.007825032230

  Basis Set: AUG-CC-PVTZ
    Blend: AUG-CC-PVTZ
  Basis Set: (AUG-CC-PVTZ AUX)
    Blend: AUG-CC-PVTZ-JKFIT
	 Reference Energy          =    -379.6920862362953244 [Eh]
	 Singles Energy            =      -0.0000000000000000 [Eh]
	 Same-Spin Energy          =      -0.3646424569313842 [Eh]
	 Opposite-Spin Energy      =      -1.1309342121294916 [Eh]
	 Correlation Energy        =      -1.4955766690608758 [Eh]
	 Total Energy              =    -381.1876629053562056 [Eh]

	 ================> DF-SCS-MP2 Energies <==================
	-----------------------------------------------------------
	 SCS Same-Spin Scale       =       0.3333333333333333 [-]
	 SCS Opposite-Spin Scale   =       1.2000000000000000 [-]
	 SCS Same-Spin Energy      =      -0.1215474856437947 [Eh]
	 SCS Opposite-Spin Energy  =      -1.3571210545553900 [Eh]
	 SCS Correlation Energy    =      -1.4786685401991848 [Eh]
	 SCS Total Energy          =    -381.1707547764945048 [Eh]
	-----------------------------------------------------------

  Dipole Moment: [D]
     X:    -2.1284      Y:    -3.1968      Z:    -0.2915     Total:     3.8516

*** Psi4 exiting successfully. Buy a developer a beer!
