                               Psi4 1.3.2 release

  ==> Input File <==

--------------------------------------------------------------------------
#psi4
#
memory 32 gb

molecule  {
0 1
  O        0.0000880    -0.6211650    -0.0005950
  O       -1.2683150     1.1981060    -0.6159220
  O        1.2678170     1.1981120     0.6161180
  C       -1.1754508     0.1292629    -0.1437486
  C        1.2006690     0.0876850     0.1465060
  C       -2.3404400    -0.7756640     0.3095410
  C        2.3408080    -0.7753200    -0.3091130
  H       -3.2816210    -0.2684080     0.1012520
  H       -2.2447620    -0.9652410     1.3817000
  H       -2.3058710    -1.7394120    -0.2034460
  H        2.3088350    -1.7369770     0.2080250
  H        3.2815980    -0.2658330    -0.1045500
  H        2.2432560    -0.9696180    -1.3802210
units angstrom
no_reorient  #important for SAPT in psi4, default
symmetry c1  #important for SAPT in psi4, default
}

set PROPERTIES_ORIGIN ["COM"]
properties('MP2/aug-cc-pvtz', properties = ['dipole'])
--------------------------------------------------------------------------

    Molecular point group: c1
  Charge       = 0
  Multiplicity = 1
  Basis Set: AUG-CC-PVTZ
    Blend: AUG-CC-PVTZ
  Basis Set: (AUG-CC-PVTZ AUX)
    Blend: AUG-CC-PVTZ-JKFIT

    Orbital Energies [Eh]
    ---------------------

    Doubly Occupied:

       1A    -20.630809     2A    -20.570249     3A    -20.567347
       4A    -11.404421     5A    -11.400444     6A    -11.255721
       7A    -11.252793     8A     -1.493394     9A     -1.422784
      10A     -1.374452    11A     -1.052179    12A     -1.011724
      13A     -0.868178    14A     -0.745157    15A     -0.705972
      16A     -0.702124    17A     -0.687198    18A     -0.629875
      19A     -0.622853    20A     -0.597328    21A     -0.589007
      22A     -0.576775    23A     -0.557721    24A     -0.530107
      25A     -0.489554    26A     -0.482716    27A     -0.443619

  @DF-RHF Final Energy:  -379.72216236355729

   => Energetics <=

    Nuclear Repulsion Energy =            301.5061055284571694
    One-Electron Energy =               -1117.1275379146277373
    Two-Electron Energy =                 435.8992700226132797
    Total Energy =                       -379.7221623635572882
  Basis Set: (AUG-CC-PVTZ AUX)
    Blend: AUG-CC-PVTZ-RI
    Molecular point group: c1

    Geometry (in Angstrom), charge = 0, multiplicity = 1:

       Center              X                  Y                   Z               Mass
    ------------   -----------------  -----------------  -----------------  -----------------
         O           -0.002871107136    -0.683806078309    -0.000934349714    15.994914619570
         O           -1.271274107136     1.135464921691    -0.616261349714    15.994914619570
         O            1.264857892864     1.135470921691     0.615778650286    15.994914619570
         C           -1.178409907136     0.066621821691    -0.144087949714    12.000000000000
         C            1.197709892864     0.025043921691     0.146166650286    12.000000000000
         C           -2.343399107136    -0.838305078309     0.309201650286    12.000000000000
         C            2.337848892864    -0.837961078309    -0.309452349714    12.000000000000
         H           -3.284580107136    -0.331049078309     0.100912650286     1.007825032230
         H           -2.247721107136    -1.027882078309     1.381360650286     1.007825032230
         H           -2.308830107136    -1.802053078309    -0.203785349714     1.007825032230
         H            2.305875892864    -1.799618078309     0.207685650286     1.007825032230
         H            3.278638892864    -0.328474078309    -0.104889349714     1.007825032230
         H            2.240296892864    -1.032259078309    -1.380560349714     1.007825032230

  Basis Set: AUG-CC-PVTZ
    Blend: AUG-CC-PVTZ
  Basis Set: (AUG-CC-PVTZ AUX)
    Blend: AUG-CC-PVTZ-JKFIT
	 Reference Energy          =    -379.7221623635572882 [Eh]
	 Singles Energy            =      -0.0000000000000000 [Eh]
	 Same-Spin Energy          =      -0.3630996287038016 [Eh]
	 Opposite-Spin Energy      =      -1.1291872074330520 [Eh]
	 Correlation Energy        =      -1.4922868361368535 [Eh]
	 Total Energy              =    -381.2144491996941156 [Eh]

	 ================> DF-SCS-MP2 Energies <==================
	-----------------------------------------------------------
	 SCS Same-Spin Scale       =       0.3333333333333333 [-]
	 SCS Opposite-Spin Scale   =       1.2000000000000000 [-]
	 SCS Same-Spin Energy      =      -0.1210332095679339 [Eh]
	 SCS Opposite-Spin Energy  =      -1.3550246489196625 [Eh]
	 SCS Correlation Energy    =      -1.4760578584875963 [Eh]
	 SCS Total Energy          =    -381.1982202220448812 [Eh]
	-----------------------------------------------------------

  Dipole Moment: [D]
     X:     0.1166      Y:    -3.6497      Z:    -0.0828     Total:     3.6525

*** Psi4 exiting successfully. Buy a developer a beer!
