                               Psi4 1.3.2 release

  ==> Input File <==

--------------------------------------------------------------------------
#psi4
#
memory 32 gb

molecule  {
0 1
  O        0.0000880    -0.6211650    -0.0005950
  O       -1.2683150     1.1981060    -0.6159220
  O        1.2678170     1.1981120     0.6161180
  C       -1.2354521     0.1233284    -0.1627662
  C        1.2006690     0.0876850     0.1465060
  C       -2.3404400    -0.7756640     0.3095410
  C        2.3408080    -0.7753200    -0.3091130
  H       -3.2816210    -0.2684080     0.1012520
  H       -2.2447620    -0.9652410     1.3817000
  H       -2.3058710    -1.7394120    -0.2034460
  H        2.3088350    -1.7369770     0.2080250
  H        3.2815980    -0.2658330    -0.1045500
  H        2.2432560    -0.9696180    -1.3802210
units angstrom
no_reorient  #important for SAPT in psi4, default
symmetry c1  #important for SAPT in psi4, default
}

set PROPERTIES_ORIGIN ["COM"]
properties('MP2/aug-cc-pvtz', properties = ['dipole'])
--------------------------------------------------------------------------

    Molecular point group: c1
  Charge       = 0
  Multiplicity = 1
  Basis Set: AUG-CC-PVTZ
    Blend: AUG-CC-PVTZ
  Basis Set: (AUG-CC-PVTZ AUX)
    Blend: AUG-CC-PVTZ-JKFIT

    Orbital Energies [Eh]
    ---------------------

    Doubly Occupied:

       1A    -20.617379     2A    -20.576991     3A    -20.560117
       4A    -11.403436     5A    -11.397347     6A    -11.258040
       7A    -11.251086     8A     -1.482628     9A     -1.423563
      10A     -1.361655    11A     -1.053633    12A     -1.018559
      13A     -0.855275    14A     -0.743168    15A     -0.703291
      16A     -0.697011    17A     -0.679446    18A     -0.635189
      19A     -0.624838    20A     -0.599292    21A     -0.586676
      22A     -0.576205    23A     -0.555269    24A     -0.530723
      25A     -0.483752    26A     -0.480073    27A     -0.444612

  @DF-RHF Final Energy:  -379.72091161190798

   => Energetics <=

    Nuclear Repulsion Energy =            300.9074328173226718
    One-Electron Energy =               -1116.0581822378528614
    Two-Electron Energy =                 435.4298378086222669
    Total Energy =                       -379.7209116119079795
  Basis Set: (AUG-CC-PVTZ AUX)
    Blend: AUG-CC-PVTZ-RI
    Molecular point group: c1

    Geometry (in Angstrom), charge = 0, multiplicity = 1:

       Center              X                  Y                   Z               Mass
    ------------   -----------------  -----------------  -----------------  -----------------
         O            0.004185676609    -0.683108118713     0.001302320001    15.994914619570
         O           -1.264217323391     1.136162881287    -0.614024679999    15.994914619570
         O            1.271914676609     1.136168881287     0.618015320001    15.994914619570
         C           -1.231354423391     0.061385281287    -0.160868879999    12.000000000000
         C            1.204766676609     0.025741881287     0.148403320001    12.000000000000
         C           -2.336342323391    -0.837607118713     0.311438320001    12.000000000000
         C            2.344905676609    -0.837263118713    -0.307215679999    12.000000000000
         H           -3.277523323391    -0.330351118713     0.103149320001     1.007825032230
         H           -2.240664323391    -1.027184118713     1.383597320001     1.007825032230
         H           -2.301773323391    -1.801355118713    -0.201548679999     1.007825032230
         H            2.312932676609    -1.798920118713     0.209922320001     1.007825032230
         H            3.285695676609    -0.327776118713    -0.102652679999     1.007825032230
         H            2.247353676609    -1.031561118713    -1.378323679999     1.007825032230

  Basis Set: AUG-CC-PVTZ
    Blend: AUG-CC-PVTZ
  Basis Set: (AUG-CC-PVTZ AUX)
    Blend: AUG-CC-PVTZ-JKFIT
	 Reference Energy          =    -379.7209116119079795 [Eh]
	 Singles Energy            =      -0.0000000000000000 [Eh]
	 Same-Spin Energy          =      -0.3635983238352083 [Eh]
	 Opposite-Spin Energy      =      -1.1298716458447502 [Eh]
	 Correlation Energy        =      -1.4934699696799585 [Eh]
	 Total Energy              =    -381.2143815815879293 [Eh]

	 ================> DF-SCS-MP2 Energies <==================
	-----------------------------------------------------------
	 SCS Same-Spin Scale       =       0.3333333333333333 [-]
	 SCS Opposite-Spin Scale   =       1.2000000000000000 [-]
	 SCS Same-Spin Energy      =      -0.1211994412784028 [Eh]
	 SCS Opposite-Spin Energy  =      -1.3558459750137002 [Eh]
	 SCS Correlation Energy    =      -1.4770454162921030 [Eh]
	 SCS Total Energy          =    -381.1979570282001077 [Eh]
	-----------------------------------------------------------

  Dipole Moment: [D]
     X:    -0.4623      Y:    -3.6297      Z:    -0.1137     Total:     3.6607

*** Psi4 exiting successfully. Buy a developer a beer!
