                               Psi4 1.3.2 release

  ==> Input File <==

--------------------------------------------------------------------------
#psi4
#
memory 32 gb

molecule  {
0 1
  O        0.0000880    -0.6211650    -0.0005950
  O       -1.2683150     1.1981060    -0.6159220
  O        1.2678170     1.1981120     0.6161180
  C       -1.1487415     0.1701346    -0.1404607
  C        1.2006690     0.0876850     0.1465060
  C       -2.3404400    -0.7756640     0.3095410
  C        2.3408080    -0.7753200    -0.3091130
  H       -3.2816210    -0.2684080     0.1012520
  H       -2.2447620    -0.9652410     1.3817000
  H       -2.3058710    -1.7394120    -0.2034460
  H        2.3088350    -1.7369770     0.2080250
  H        3.2815980    -0.2658330    -0.1045500
  H        2.2432560    -0.9696180    -1.3802210
units angstrom
no_reorient  #important for SAPT in psi4, default
symmetry c1  #important for SAPT in psi4, default
}

set PROPERTIES_ORIGIN ["COM"]
properties('MP2/aug-cc-pvtz', properties = ['dipole'])
--------------------------------------------------------------------------

    Molecular point group: c1
  Charge       = 0
  Multiplicity = 1
  Basis Set: AUG-CC-PVTZ
    Blend: AUG-CC-PVTZ
  Basis Set: (AUG-CC-PVTZ AUX)
    Blend: AUG-CC-PVTZ-JKFIT

    Orbital Energies [Eh]
    ---------------------

    Doubly Occupied:

       1A    -20.631406     2A    -20.574189     3A    -20.568600
       4A    -11.404634     5A    -11.396869     6A    -11.255793
       7A    -11.249031     8A     -1.502608     9A     -1.439358
      10A     -1.378807    11A     -1.048872    12A     -1.001186
      13A     -0.865755    14A     -0.748813    15A     -0.710017
      16A     -0.705634    17A     -0.690055    18A     -0.632310
      19A     -0.624016    20A     -0.596609    21A     -0.590598
      22A     -0.572678    23A     -0.556786    24A     -0.539086
      25A     -0.494000    26A     -0.483006    27A     -0.438534

  @DF-RHF Final Energy:  -379.71524418192234

   => Energetics <=

    Nuclear Repulsion Energy =            301.9763961641766059
    One-Electron Energy =               -1117.9847794294255436
    Two-Electron Energy =                 436.2931390833266505
    Total Energy =                       -379.7152441819223441
  Basis Set: (AUG-CC-PVTZ AUX)
    Blend: AUG-CC-PVTZ-RI
    Molecular point group: c1

    Geometry (in Angstrom), charge = 0, multiplicity = 1:

       Center              X                  Y                   Z               Mass
    ------------   -----------------  -----------------  -----------------  -----------------
         O           -0.006012401642    -0.688613019962    -0.001321041323    15.994914619570
         O           -1.274415401642     1.130657980038    -0.616648041323    15.994914619570
         O            1.261716598358     1.130663980038     0.615391958677    15.994914619570
         C           -1.154841901642     0.102686580038    -0.141186741323    12.000000000000
         C            1.194568598358     0.020236980038     0.145779958677    12.000000000000
         C           -2.346540401642    -0.843112019962     0.308814958677    12.000000000000
         C            2.334707598358    -0.842768019962    -0.309839041323    12.000000000000
         H           -3.287721401642    -0.335856019962     0.100525958677     1.007825032230
         H           -2.250862401642    -1.032689019962     1.380973958677     1.007825032230
         H           -2.311971401642    -1.806860019962    -0.204172041323     1.007825032230
         H            2.302734598358    -1.804425019962     0.207298958677     1.007825032230
         H            3.275497598358    -0.333281019962    -0.105276041323     1.007825032230
         H            2.237155598358    -1.037066019962    -1.380947041323     1.007825032230

  Basis Set: AUG-CC-PVTZ
    Blend: AUG-CC-PVTZ
  Basis Set: (AUG-CC-PVTZ AUX)
    Blend: AUG-CC-PVTZ-JKFIT
	 Reference Energy          =    -379.7152441819223441 [Eh]
	 Singles Energy            =      -0.0000000000000000 [Eh]
	 Same-Spin Energy          =      -0.3624018275430664 [Eh]
	 Opposite-Spin Energy      =      -1.1279285016921961 [Eh]
	 Correlation Energy        =      -1.4903303292352623 [Eh]
	 Total Energy              =    -381.2055745111575789 [Eh]

	 ================> DF-SCS-MP2 Energies <==================
	-----------------------------------------------------------
	 SCS Same-Spin Scale       =       0.3333333333333333 [-]
	 SCS Opposite-Spin Scale   =       1.2000000000000000 [-]
	 SCS Same-Spin Energy      =      -0.1208006091810221 [Eh]
	 SCS Opposite-Spin Energy  =      -1.3535142020306352 [Eh]
	 SCS Correlation Energy    =      -1.4743148112116573 [Eh]
	 SCS Total Energy          =    -381.1895589931340282 [Eh]
	-----------------------------------------------------------

  Dipole Moment: [D]
     X:     0.2564      Y:    -3.4254      Z:    -0.1695     Total:     3.4391

*** Psi4 exiting successfully. Buy a developer a beer!
