                               Psi4 1.3.2 release

  ==> Input File <==

--------------------------------------------------------------------------
#psi4
#
memory 32 gb

molecule  {
0 1
  O        0.0122978    -0.6018660    -0.0093806
  O       -1.2683150     1.1981060    -0.6159220
  O        1.2678170     1.1981120     0.6161180
  C       -1.2007280     0.0874770    -0.1468620
  C        1.2006690     0.0876850     0.1465060
  C       -2.3404400    -0.7756640     0.3095410
  C        2.3408080    -0.7753200    -0.3091130
  H       -3.2816210    -0.2684080     0.1012520
  H       -2.2447620    -0.9652410     1.3817000
  H       -2.3058710    -1.7394120    -0.2034460
  H        2.3088350    -1.7369770     0.2080250
  H        3.2815980    -0.2658330    -0.1045500
  H        2.2432560    -0.9696180    -1.3802210
units angstrom
no_reorient  #important for SAPT in psi4, default
symmetry c1  #important for SAPT in psi4, default
}

set PROPERTIES_ORIGIN ["COM"]
properties('MP2/aug-cc-pvtz', properties = ['dipole'])
--------------------------------------------------------------------------

    Molecular point group: c1
  Charge       = 0
  Multiplicity = 1
  Basis Set: AUG-CC-PVTZ
    Blend: AUG-CC-PVTZ
  Basis Set: (AUG-CC-PVTZ AUX)
    Blend: AUG-CC-PVTZ-JKFIT

    Orbital Energies [Eh]
    ---------------------

    Doubly Occupied:

       1A    -20.630490     2A    -20.566790     3A    -20.562428
       4A    -11.405876     5A    -11.401809     6A    -11.257875
       7A    -11.254516     8A     -1.491795     9A     -1.406356
      10A     -1.366452    11A     -1.059179    12A     -1.021101
      13A     -0.876307    14A     -0.741058    15A     -0.705535
      16A     -0.699032    17A     -0.686934    18A     -0.628596
      19A     -0.622732    20A     -0.600608    21A     -0.584473
      22A     -0.580248    23A     -0.559938    24A     -0.520124
      25A     -0.482040    26A     -0.480890    27A     -0.446535

  @DF-RHF Final Energy:  -379.72300251985064

   => Energetics <=

    Nuclear Repulsion Energy =            301.4840210362266930
    One-Electron Energy =               -1117.1346163736054677
    Two-Electron Energy =                 435.9275928175280796
    Total Energy =                       -379.7230025198506382
  Basis Set: (AUG-CC-PVTZ AUX)
    Blend: AUG-CC-PVTZ-RI
    Molecular point group: c1

    Geometry (in Angstrom), charge = 0, multiplicity = 1:

       Center              X                  Y                   Z               Mass
    ------------   -----------------  -----------------  -----------------  -----------------
         O            0.010397498096    -0.662618008991    -0.007976513779    15.994914619570
         O           -1.270215301904     1.137353991009    -0.614517913779    15.994914619570
         O            1.265916698096     1.137359991009     0.617522086221    15.994914619570
         C           -1.202628301904     0.026724991009    -0.145457913779    12.000000000000
         C            1.198768698096     0.026932991009     0.147910086221    12.000000000000
         C           -2.342340301904    -0.836416008991     0.310945086221    12.000000000000
         C            2.338907698096    -0.836072008991    -0.307708913779    12.000000000000
         H           -3.283521301904    -0.329160008991     0.102656086221     1.007825032230
         H           -2.246662301904    -1.025993008991     1.383104086221     1.007825032230
         H           -2.307771301904    -1.800164008991    -0.202041913779     1.007825032230
         H            2.306934698096    -1.797729008991     0.209429086221     1.007825032230
         H            3.279697698096    -0.326585008991    -0.103145913779     1.007825032230
         H            2.241355698096    -1.030370008991    -1.378816913779     1.007825032230

  Basis Set: AUG-CC-PVTZ
    Blend: AUG-CC-PVTZ
  Basis Set: (AUG-CC-PVTZ AUX)
    Blend: AUG-CC-PVTZ-JKFIT
	 Reference Energy          =    -379.7230025198506382 [Eh]
	 Singles Energy            =      -0.0000000000000000 [Eh]
	 Same-Spin Energy          =      -0.3637440013388000 [Eh]
	 Opposite-Spin Energy      =      -1.1300827687619914 [Eh]
	 Correlation Energy        =      -1.4938267701007915 [Eh]
	 Total Energy              =    -381.2168292899514199 [Eh]

	 ================> DF-SCS-MP2 Energies <==================
	-----------------------------------------------------------
	 SCS Same-Spin Scale       =       0.3333333333333333 [-]
	 SCS Opposite-Spin Scale   =       1.2000000000000000 [-]
	 SCS Same-Spin Energy      =      -0.1212480004462667 [Eh]
	 SCS Opposite-Spin Energy  =      -1.3560993225143896 [Eh]
	 SCS Correlation Energy    =      -1.4773473229606562 [Eh]
	 SCS Total Energy          =    -381.2003498428113062 [Eh]
	-----------------------------------------------------------

  Dipole Moment: [D]
     X:    -0.1437      Y:    -3.9284      Z:    -0.0035     Total:     3.9310

*** Psi4 exiting successfully. Buy a developer a beer!
