                               Psi4 1.3.2 release

  ==> Input File <==

--------------------------------------------------------------------------
#psi4
#
memory 32 gb

molecule  {
0 1
  O       -0.0523703    -0.6961447     0.0340751
  O       -1.2683150     1.1981060    -0.6159220
  O        1.2678170     1.1981120     0.6161180
  C       -1.2007280     0.0874770    -0.1468620
  C        1.2006690     0.0876850     0.1465060
  C       -2.3404400    -0.7756640     0.3095410
  C        2.3408080    -0.7753200    -0.3091130
  H       -3.2816210    -0.2684080     0.1012520
  H       -2.2447620    -0.9652410     1.3817000
  H       -2.3058710    -1.7394120    -0.2034460
  H        2.3088350    -1.7369770     0.2080250
  H        3.2815980    -0.2658330    -0.1045500
  H        2.2432560    -0.9696180    -1.3802210
units angstrom
no_reorient  #important for SAPT in psi4, default
symmetry c1  #important for SAPT in psi4, default
}

set PROPERTIES_ORIGIN ["COM"]
properties('MP2/aug-cc-pvtz', properties = ['dipole'])
--------------------------------------------------------------------------

    Molecular point group: c1
  Charge       = 0
  Multiplicity = 1
  Basis Set: AUG-CC-PVTZ
    Blend: AUG-CC-PVTZ
  Basis Set: (AUG-CC-PVTZ AUX)
    Blend: AUG-CC-PVTZ-JKFIT

    Orbital Energies [Eh]
    ---------------------

    Doubly Occupied:

       1A    -20.630156     2A    -20.581376     3A    -20.564882
       4A    -11.415101     5A    -11.399486     6A    -11.261306
       7A    -11.247550     8A     -1.471950     9A     -1.411385
      10A     -1.365248    11A     -1.054460    12A     -1.017730
      13A     -0.848605    14A     -0.748217    15A     -0.700793
      16A     -0.695221    17A     -0.677508    18A     -0.629669
      19A     -0.624128    20A     -0.603965    21A     -0.588518
      22A     -0.574340    23A     -0.552360    24A     -0.525736
      25A     -0.488029    26A     -0.482211    27A     -0.444623

  @DF-RHF Final Energy:  -379.71046569472679

   => Energetics <=

    Nuclear Repulsion Energy =            299.4197276898994460
    One-Electron Energy =               -1113.0512795768852357
    Two-Electron Energy =                 433.9210861922589970
    Total Energy =                       -379.7104656947267927
  Basis Set: (AUG-CC-PVTZ AUX)
    Blend: AUG-CC-PVTZ-RI
    Molecular point group: c1

    Geometry (in Angstrom), charge = 0, multiplicity = 1:

       Center              X                  Y                   Z               Mass
    ------------   -----------------  -----------------  -----------------  -----------------
         O           -0.044132960382    -0.742117186109     0.028666889143    15.994914619570
         O           -1.260077660382     1.152133513891    -0.621330210857    15.994914619570
         O            1.276054339618     1.152139513891     0.610709789143    15.994914619570
         C           -1.192490660382     0.041504513891    -0.152270210857    12.000000000000
         C            1.208906339618     0.041712513891     0.141097789143    12.000000000000
         C           -2.332202660382    -0.821636486109     0.304132789143    12.000000000000
         C            2.349045339618    -0.821292486109    -0.314521210857    12.000000000000
         H           -3.273383660382    -0.314380486109     0.095843789143     1.007825032230
         H           -2.236524660382    -1.011213486109     1.376291789143     1.007825032230
         H           -2.297633660382    -1.785384486109    -0.208854210857     1.007825032230
         H            2.317072339618    -1.782949486109     0.202616789143     1.007825032230
         H            3.289835339618    -0.311805486109    -0.109958210857     1.007825032230
         H            2.251493339618    -1.015590486109    -1.385629210857     1.007825032230

  Basis Set: AUG-CC-PVTZ
    Blend: AUG-CC-PVTZ
  Basis Set: (AUG-CC-PVTZ AUX)
    Blend: AUG-CC-PVTZ-JKFIT
	 Reference Energy          =    -379.7104656947267927 [Eh]
	 Singles Energy            =      -0.0000000000000000 [Eh]
	 Same-Spin Energy          =      -0.3656078302585836 [Eh]
	 Opposite-Spin Energy      =      -1.1349662145867767 [Eh]
	 Correlation Energy        =      -1.5005740448453602 [Eh]
	 Total Energy              =    -381.2110397395721293 [Eh]

	 ================> DF-SCS-MP2 Energies <==================
	-----------------------------------------------------------
	 SCS Same-Spin Scale       =       0.3333333333333333 [-]
	 SCS Opposite-Spin Scale   =       1.2000000000000000 [-]
	 SCS Same-Spin Energy      =      -0.1218692767528612 [Eh]
	 SCS Opposite-Spin Energy  =      -1.3619594575041321 [Eh]
	 SCS Correlation Energy    =      -1.4838287342569934 [Eh]
	 SCS Total Energy          =    -381.1942944289837669 [Eh]
	-----------------------------------------------------------

  Dipole Moment: [D]
     X:     0.5834      Y:    -3.6057      Z:     0.0113     Total:     3.6526

*** Psi4 exiting successfully. Buy a developer a beer!
