                               Psi4 1.3.2 release

  ==> Input File <==

--------------------------------------------------------------------------
#psi4
#
memory 32 gb

molecule  {
0 1
  O        0.0000880    -0.6211650    -0.0005950
  O       -1.2892928     1.1974334    -0.6140184
  O        1.2678170     1.1981120     0.6161180
  C       -1.2007280     0.0874770    -0.1468620
  C        1.2006690     0.0876850     0.1465060
  C       -2.3404400    -0.7756640     0.3095410
  C        2.3408080    -0.7753200    -0.3091130
  H       -3.2816210    -0.2684080     0.1012520
  H       -2.2447620    -0.9652410     1.3817000
  H       -2.3058710    -1.7394120    -0.2034460
  H        2.3088350    -1.7369770     0.2080250
  H        3.2815980    -0.2658330    -0.1045500
  H        2.2432560    -0.9696180    -1.3802210
units angstrom
no_reorient  #important for SAPT in psi4, default
symmetry c1  #important for SAPT in psi4, default
}

set PROPERTIES_ORIGIN ["COM"]
properties('MP2/aug-cc-pvtz', properties = ['dipole'])
--------------------------------------------------------------------------

    Molecular point group: c1
  Charge       = 0
  Multiplicity = 1
  Basis Set: AUG-CC-PVTZ
    Blend: AUG-CC-PVTZ
  Basis Set: (AUG-CC-PVTZ AUX)
    Blend: AUG-CC-PVTZ-JKFIT

    Orbital Energies [Eh]
    ---------------------

    Doubly Occupied:

       1A    -20.632025     2A    -20.567192     3A    -20.566611
       4A    -11.405253     5A    -11.404569     6A    -11.256302
       7A    -11.254626     8A     -1.487601     9A     -1.407635
      10A     -1.367898    11A     -1.057965    12A     -1.020294
      13A     -0.871210    14A     -0.742832    15A     -0.703872
      16A     -0.699552    17A     -0.685537    18A     -0.628559
      19A     -0.622875    20A     -0.600570    21A     -0.586010
      22A     -0.579524    23A     -0.558677    24A     -0.521319
      25A     -0.484396    26A     -0.481564    27A     -0.446809

  @DF-RHF Final Energy:  -379.72164453372142

   => Energetics <=

    Nuclear Repulsion Energy =            300.8862092966696764
    One-Electron Energy =               -1115.9331577221103089
    Two-Electron Energy =                 435.3253038917192157
    Total Energy =                       -379.7216445337214168
  Basis Set: (AUG-CC-PVTZ AUX)
    Blend: AUG-CC-PVTZ-RI
    Molecular point group: c1

    Geometry (in Angstrom), charge = 0, multiplicity = 1:

       Center              X                  Y                   Z               Mass
    ------------   -----------------  -----------------  -----------------  -----------------
         O            0.003390324921    -0.678786177539    -0.000866597427    15.994914619570
         O           -1.285990475079     1.139812222461    -0.614289997427    15.994914619570
         O            1.271119324921     1.140490822461     0.615846402573    15.994914619570
         C           -1.197425675079     0.029855822461    -0.147133597427    12.000000000000
         C            1.203971324921     0.030063822461     0.146234402573    12.000000000000
         C           -2.337137675079    -0.833285177539     0.309269402573    12.000000000000
         C            2.344110324921    -0.832941177539    -0.309384597427    12.000000000000
         H           -3.278318675079    -0.326029177539     0.100980402573     1.007825032230
         H           -2.241459675079    -1.022862177539     1.381428402573     1.007825032230
         H           -2.302568675079    -1.797033177539    -0.203717597427     1.007825032230
         H            2.312137324921    -1.794598177539     0.207753402573     1.007825032230
         H            3.284900324921    -0.323454177539    -0.104821597427     1.007825032230
         H            2.246558324921    -1.027239177539    -1.380492597427     1.007825032230

  Basis Set: AUG-CC-PVTZ
    Blend: AUG-CC-PVTZ
  Basis Set: (AUG-CC-PVTZ AUX)
    Blend: AUG-CC-PVTZ-JKFIT
	 Reference Energy          =    -379.7216445337214168 [Eh]
	 Singles Energy            =      -0.0000000000000000 [Eh]
	 Same-Spin Energy          =      -0.3640436306093605 [Eh]
	 Opposite-Spin Energy      =      -1.1309631612276809 [Eh]
	 Correlation Energy        =      -1.4950067918370413 [Eh]
	 Total Energy              =    -381.2166513255584732 [Eh]

	 ================> DF-SCS-MP2 Energies <==================
	-----------------------------------------------------------
	 SCS Same-Spin Scale       =       0.3333333333333333 [-]
	 SCS Opposite-Spin Scale   =       1.2000000000000000 [-]
	 SCS Same-Spin Energy      =      -0.1213478768697868 [Eh]
	 SCS Opposite-Spin Energy  =      -1.3571557934732170 [Eh]
	 SCS Correlation Energy    =      -1.4785036703430039 [Eh]
	 SCS Total Energy          =    -381.2001482040644191 [Eh]
	-----------------------------------------------------------

  Dipole Moment: [D]
     X:     0.0656      Y:    -3.8540      Z:    -0.0061     Total:     3.8546

*** Psi4 exiting successfully. Buy a developer a beer!
