                               Psi4 1.3.2 release

  ==> Input File <==

--------------------------------------------------------------------------
#psi4
#
memory 32 gb

molecule  {
0 1
  O        0.0000880    -0.6211650    -0.0005950
  O       -1.2683150     1.1981060    -0.6159220
  O        1.2678170     1.1981120     0.6161180
  C       -1.2063252     0.1794537    -0.1857072
  C        1.2006690     0.0876850     0.1465060
  C       -2.3404400    -0.7756640     0.3095410
  C        2.3408080    -0.7753200    -0.3091130
  H       -3.2816210    -0.2684080     0.1012520
  H       -2.2447620    -0.9652410     1.3817000
  H       -2.3058710    -1.7394120    -0.2034460
  H        2.3088350    -1.7369770     0.2080250
  H        3.2815980    -0.2658330    -0.1045500
  H        2.2432560    -0.9696180    -1.3802210
units angstrom
no_reorient  #important for SAPT in psi4, default
symmetry c1  #important for SAPT in psi4, default
}

set PROPERTIES_ORIGIN ["COM"]
properties('MP2/aug-cc-pvtz', properties = ['dipole'])
--------------------------------------------------------------------------

    Molecular point group: c1
  Charge       = 0
  Multiplicity = 1
  Basis Set: AUG-CC-PVTZ
    Blend: AUG-CC-PVTZ
  Basis Set: (AUG-CC-PVTZ AUX)
    Blend: AUG-CC-PVTZ-JKFIT

    Orbital Energies [Eh]
    ---------------------

    Doubly Occupied:

       1A    -20.614219     2A    -20.584118     3A    -20.560359
       4A    -11.396096     5A    -11.395797     6A    -11.254063
       7A    -11.250009     8A     -1.511383     9A     -1.440041
      10A     -1.363610    11A     -1.042479    12A     -1.006902
      13A     -0.849838    14A     -0.749391    15A     -0.711600
      16A     -0.700363    17A     -0.683650    18A     -0.639600
      19A     -0.627237    20A     -0.595492    21A     -0.587965
      22A     -0.572318    23A     -0.559695    24A     -0.541869
      25A     -0.486944    26A     -0.478789    27A     -0.438983

  @DF-RHF Final Energy:  -379.71036561197428

   => Energetics <=

    Nuclear Repulsion Energy =            301.5924403574188659
    One-Electron Energy =               -1117.3199880591757847
    Two-Electron Energy =                 436.0171820897826933
    Total Energy =                       -379.7103656119742823
  Basis Set: (AUG-CC-PVTZ AUX)
    Blend: AUG-CC-PVTZ-RI
    Molecular point group: c1

    Geometry (in Angstrom), charge = 0, multiplicity = 1:

       Center              X                  Y                   Z               Mass
    ------------   -----------------  -----------------  -----------------  -----------------
         O            0.000760046923    -0.689709044105     0.004000422807    15.994914619570
         O           -1.267642953077     1.129561955895    -0.611326577193    15.994914619570
         O            1.268489046923     1.129567955895     0.620713422807    15.994914619570
         C           -1.205653153077     0.110909655895    -0.181111777193    12.000000000000
         C            1.201341046923     0.019140955895     0.151101422807    12.000000000000
         C           -2.339767953077    -0.844208044105     0.314136422807    12.000000000000
         C            2.341480046923    -0.843864044105    -0.304517577193    12.000000000000
         H           -3.280948953077    -0.336952044105     0.105847422807     1.007825032230
         H           -2.244089953077    -1.033785044105     1.386295422807     1.007825032230
         H           -2.305198953077    -1.807956044105    -0.198850577193     1.007825032230
         H            2.309507046923    -1.805521044105     0.212620422807     1.007825032230
         H            3.282270046923    -0.334377044105    -0.099954577193     1.007825032230
         H            2.243928046923    -1.038162044105    -1.375625577193     1.007825032230

  Basis Set: AUG-CC-PVTZ
    Blend: AUG-CC-PVTZ
  Basis Set: (AUG-CC-PVTZ AUX)
    Blend: AUG-CC-PVTZ-JKFIT
	 Reference Energy          =    -379.7103656119742823 [Eh]
	 Singles Energy            =      -0.0000000000000000 [Eh]
	 Same-Spin Energy          =      -0.3621453667866648 [Eh]
	 Opposite-Spin Energy      =      -1.1271047734110489 [Eh]
	 Correlation Energy        =      -1.4892501401977136 [Eh]
	 Total Energy              =    -381.1996157521720079 [Eh]

	 ================> DF-SCS-MP2 Energies <==================
	-----------------------------------------------------------
	 SCS Same-Spin Scale       =       0.3333333333333333 [-]
	 SCS Opposite-Spin Scale   =       1.2000000000000000 [-]
	 SCS Same-Spin Energy      =      -0.1207151222622216 [Eh]
	 SCS Opposite-Spin Energy  =      -1.3525257280932586 [Eh]
	 SCS Correlation Energy    =      -1.4732408503554801 [Eh]
	 SCS Total Energy          =    -381.1836064623297489 [Eh]
	-----------------------------------------------------------

  Dipole Moment: [D]
     X:    -0.3780      Y:    -3.2649      Z:    -0.2914     Total:     3.2996

*** Psi4 exiting successfully. Buy a developer a beer!
