                               Psi4 1.3.2 release

  ==> Input File <==

--------------------------------------------------------------------------
#psi4
#
memory 32 gb

molecule  {
0 1
  O       -0.0800337    -0.7298947     0.0567903
  O       -1.2683150     1.1981060    -0.6159220
  O        1.2678170     1.1981120     0.6161180
  C       -1.2007280     0.0874770    -0.1468620
  C        1.2006690     0.0876850     0.1465060
  C       -2.3404400    -0.7756640     0.3095410
  C        2.3408080    -0.7753200    -0.3091130
  H       -3.2816210    -0.2684080     0.1012520
  H       -2.2447620    -0.9652410     1.3817000
  H       -2.3058710    -1.7394120    -0.2034460
  H        2.3088350    -1.7369770     0.2080250
  H        3.2815980    -0.2658330    -0.1045500
  H        2.2432560    -0.9696180    -1.3802210
units angstrom
no_reorient  #important for SAPT in psi4, default
symmetry c1  #important for SAPT in psi4, default
}

set PROPERTIES_ORIGIN ["COM"]
properties('MP2/aug-cc-pvtz', properties = ['dipole'])
--------------------------------------------------------------------------

    Molecular point group: c1
  Charge       = 0
  Multiplicity = 1
  Basis Set: AUG-CC-PVTZ
    Blend: AUG-CC-PVTZ
  Basis Set: (AUG-CC-PVTZ AUX)
    Blend: AUG-CC-PVTZ-JKFIT

    Orbital Energies [Eh]
    ---------------------

    Doubly Occupied:

       1A    -20.629403     2A    -20.588054     3A    -20.564324
       4A    -11.419898     5A    -11.397343     6A    -11.264233
       7A    -11.243533     8A     -1.466293     9A     -1.413814
      10A     -1.363551    11A     -1.053591    12A     -1.015773
      13A     -0.838706    14A     -0.751189    15A     -0.700696
      16A     -0.692319    17A     -0.674350    18A     -0.631233
      19A     -0.624792    20A     -0.606799    21A     -0.588658
      22A     -0.571116    23A     -0.549215    24A     -0.528146
      25A     -0.489213    26A     -0.482054    27A     -0.442638

  @DF-RHF Final Energy:  -379.70191121013357

   => Energetics <=

    Nuclear Repulsion Energy =            298.6792434451742224
    One-Electron Energy =               -1111.5804447151165277
    Two-Electron Energy =                 433.1992900598086749
    Total Energy =                       -379.7019112101335736
  Basis Set: (AUG-CC-PVTZ AUX)
    Blend: AUG-CC-PVTZ-RI
    Molecular point group: c1

    Geometry (in Angstrom), charge = 0, multiplicity = 1:

       Center              X                  Y                   Z               Mass
    ------------   -----------------  -----------------  -----------------  -----------------
         O           -0.067459730228    -0.770576395111     0.047821159493    15.994914619570
         O           -1.255741030228     1.157424304889    -0.624891140507    15.994914619570
         O            1.280390969772     1.157430304889     0.607148859493    15.994914619570
         C           -1.188154030228     0.046795304889    -0.155831140507    12.000000000000
         C            1.213242969772     0.047003304889     0.137536859493    12.000000000000
         C           -2.327866030228    -0.816345695111     0.300571859493    12.000000000000
         C            2.353381969772    -0.816001695111    -0.318082140507    12.000000000000
         H           -3.269047030228    -0.309089695111     0.092282859493     1.007825032230
         H           -2.232188030228    -1.005922695111     1.372730859493     1.007825032230
         H           -2.293297030228    -1.780093695111    -0.212415140507     1.007825032230
         H            2.321408969772    -1.777658695111     0.199055859493     1.007825032230
         H            3.294171969772    -0.306514695111    -0.113519140507     1.007825032230
         H            2.255829969772    -1.010299695111    -1.389190140507     1.007825032230

  Basis Set: AUG-CC-PVTZ
    Blend: AUG-CC-PVTZ
  Basis Set: (AUG-CC-PVTZ AUX)
    Blend: AUG-CC-PVTZ-JKFIT
	 Reference Energy          =    -379.7019112101335736 [Eh]
	 Singles Energy            =      -0.0000000000000000 [Eh]
	 Same-Spin Energy          =      -0.3665227748038483 [Eh]
	 Opposite-Spin Energy      =      -1.1372157210725273 [Eh]
	 Correlation Energy        =      -1.5037384958763755 [Eh]
	 Total Energy              =    -381.2056497060099218 [Eh]

	 ================> DF-SCS-MP2 Energies <==================
	-----------------------------------------------------------
	 SCS Same-Spin Scale       =       0.3333333333333333 [-]
	 SCS Opposite-Spin Scale   =       1.2000000000000000 [-]
	 SCS Same-Spin Energy      =      -0.1221742582679494 [Eh]
	 SCS Opposite-Spin Energy  =      -1.3646588652870328 [Eh]
	 SCS Correlation Energy    =      -1.4868331235549823 [Eh]
	 SCS Total Energy          =    -381.1887443336885326 [Eh]
	-----------------------------------------------------------

  Dipole Moment: [D]
     X:     0.8682      Y:    -3.4904      Z:     0.0061     Total:     3.5968

*** Psi4 exiting successfully. Buy a developer a beer!
