                               Psi4 1.3.2 release

  ==> Input File <==

--------------------------------------------------------------------------
#psi4
#
memory 32 gb

molecule  {
0 1
  O        0.0000880    -0.6211650    -0.0005950
  O       -1.3520390     1.1933884    -0.6074562
  O        1.2678170     1.1981120     0.6161180
  C       -1.2007280     0.0874770    -0.1468620
  C        1.2006690     0.0876850     0.1465060
  C       -2.3404400    -0.7756640     0.3095410
  C        2.3408080    -0.7753200    -0.3091130
  H       -3.2816210    -0.2684080     0.1012520
  H       -2.2447620    -0.9652410     1.3817000
  H       -2.3058710    -1.7394120    -0.2034460
  H        2.3088350    -1.7369770     0.2080250
  H        3.2815980    -0.2658330    -0.1045500
  H        2.2432560    -0.9696180    -1.3802210
units angstrom
no_reorient  #important for SAPT in psi4, default
symmetry c1  #important for SAPT in psi4, default
}

set PROPERTIES_ORIGIN ["COM"]
properties('MP2/aug-cc-pvtz', properties = ['dipole'])
--------------------------------------------------------------------------

    Molecular point group: c1
  Charge       = 0
  Multiplicity = 1
  Basis Set: AUG-CC-PVTZ
    Blend: AUG-CC-PVTZ
  Basis Set: (AUG-CC-PVTZ AUX)
    Blend: AUG-CC-PVTZ-JKFIT

    Orbital Energies [Eh]
    ---------------------

    Doubly Occupied:

       1A    -20.636191     2A    -20.569612     3A    -20.567259
       4A    -11.407411     5A    -11.404760     6A    -11.257758
       7A    -11.251037     8A     -1.488640     9A     -1.409411
      10A     -1.371271    11A     -1.057967    12A     -1.019202
      13A     -0.872766    14A     -0.744297    15A     -0.704656
      16A     -0.700824    17A     -0.687043    18A     -0.629045
      19A     -0.622878    20A     -0.600464    21A     -0.586838
      22A     -0.579259    23A     -0.558805    24A     -0.521957
      25A     -0.486739    26A     -0.482061    27A     -0.447204

  @DF-RHF Final Energy:  -379.72026872994553

   => Energetics <=

    Nuclear Repulsion Energy =            300.4006977727123058
    One-Electron Energy =               -1114.9112228244446214
    Two-Electron Energy =                 434.7902563217867851
    Total Energy =                       -379.7202687299455306
  Basis Set: (AUG-CC-PVTZ AUX)
    Blend: AUG-CC-PVTZ-RI
    Molecular point group: c1

    Geometry (in Angstrom), charge = 0, multiplicity = 1:

       Center              X                  Y                   Z               Mass
    ------------   -----------------  -----------------  -----------------  -----------------
         O            0.013226681369    -0.678152066440    -0.001895315315    15.994914619570
         O           -1.338900318631     1.136401333560    -0.608756515315    15.994914619570
         O            1.280955681369     1.141124933560     0.614817684685    15.994914619570
         C           -1.187589318631     0.030489933560    -0.148162315315    12.000000000000
         C            1.213807681369     0.030697933560     0.145205684685    12.000000000000
         C           -2.327301318631    -0.832651066440     0.308240684685    12.000000000000
         C            2.353946681369    -0.832307066440    -0.310413315315    12.000000000000
         H           -3.268482318631    -0.325395066440     0.099951684685     1.007825032230
         H           -2.231623318631    -1.022228066440     1.380399684685     1.007825032230
         H           -2.292732318631    -1.796399066440    -0.204746315315     1.007825032230
         H            2.321973681369    -1.793964066440     0.206724684685     1.007825032230
         H            3.294736681369    -0.322820066440    -0.105850315315     1.007825032230
         H            2.256394681369    -1.026605066440    -1.381521315315     1.007825032230

  Basis Set: AUG-CC-PVTZ
    Blend: AUG-CC-PVTZ
  Basis Set: (AUG-CC-PVTZ AUX)
    Blend: AUG-CC-PVTZ-JKFIT
	 Reference Energy          =    -379.7202687299455306 [Eh]
	 Singles Energy            =      -0.0000000000000000 [Eh]
	 Same-Spin Energy          =      -0.3640472686992302 [Eh]
	 Opposite-Spin Energy      =      -1.1311173559404248 [Eh]
	 Correlation Energy        =      -1.4951646246396550 [Eh]
	 Total Energy              =    -381.2154333545851728 [Eh]

	 ================> DF-SCS-MP2 Energies <==================
	-----------------------------------------------------------
	 SCS Same-Spin Scale       =       0.3333333333333333 [-]
	 SCS Opposite-Spin Scale   =       1.2000000000000000 [-]
	 SCS Same-Spin Energy      =      -0.1213490895664101 [Eh]
	 SCS Opposite-Spin Energy  =      -1.3573408271285097 [Eh]
	 SCS Correlation Energy    =      -1.4786899166949197 [Eh]
	 SCS Total Energy          =    -381.1989586466404489 [Eh]
	-----------------------------------------------------------

  Dipole Moment: [D]
     X:     0.2590      Y:    -3.8253      Z:    -0.0292     Total:     3.8341

*** Psi4 exiting successfully. Buy a developer a beer!
