                               Psi4 1.3.2 release

  ==> Input File <==

--------------------------------------------------------------------------
#psi4
#
memory 32 gb

molecule  {
0 1
  O       -0.0123739    -0.6398591     0.0090977
  O       -1.2683150     1.1981060    -0.6159220
  O        1.2678170     1.1981120     0.6161180
  C       -1.2007280     0.0874770    -0.1468620
  C        1.2006690     0.0876850     0.1465060
  C       -2.3404400    -0.7756640     0.3095410
  C        2.3408080    -0.7753200    -0.3091130
  H       -3.2816210    -0.2684080     0.1012520
  H       -2.2447620    -0.9652410     1.3817000
  H       -2.3058710    -1.7394120    -0.2034460
  H        2.3088350    -1.7369770     0.2080250
  H        3.2815980    -0.2658330    -0.1045500
  H        2.2432560    -0.9696180    -1.3802210
units angstrom
no_reorient  #important for SAPT in psi4, default
symmetry c1  #important for SAPT in psi4, default
}

set PROPERTIES_ORIGIN ["COM"]
properties('MP2/aug-cc-pvtz', properties = ['dipole'])
--------------------------------------------------------------------------

    Molecular point group: c1
  Charge       = 0
  Multiplicity = 1
  Basis Set: AUG-CC-PVTZ
    Blend: AUG-CC-PVTZ
  Basis Set: (AUG-CC-PVTZ AUX)
    Blend: AUG-CC-PVTZ-JKFIT

    Orbital Energies [Eh]
    ---------------------

    Doubly Occupied:

       1A    -20.630633     2A    -20.570148     3A    -20.565975
       4A    -11.407145     5A    -11.403229     6A    -11.257129
       7A    -11.253758     8A     -1.483140     9A     -1.407878
      10A     -1.366731    11A     -1.056957    12A     -1.020010
      13A     -0.865173    14A     -0.743690    15A     -0.702213
      16A     -0.698834    17A     -0.683127    18A     -0.628431
      19A     -0.623120    20A     -0.601006    21A     -0.586831
      22A     -0.578572    23A     -0.557175    24A     -0.522101
      25A     -0.484934    26A     -0.481664    27A     -0.446356

  @DF-RHF Final Energy:  -379.71989556553854

   => Energetics <=

    Nuclear Repulsion Energy =            300.6501911439245873
    One-Electron Energy =               -1115.4882519016589413
    Two-Electron Energy =                 435.1181651921958746
    Total Energy =                       -379.7198955655385362
  Basis Set: (AUG-CC-PVTZ AUX)
    Blend: AUG-CC-PVTZ-RI
    Molecular point group: c1

    Geometry (in Angstrom), charge = 0, multiplicity = 1:

       Center              X                  Y                   Z               Mass
    ------------   -----------------  -----------------  -----------------  -----------------
         O           -0.010406563140    -0.694655151910     0.007605050716    15.994914619570
         O           -1.266347663140     1.143309948090    -0.617414649284    15.994914619570
         O            1.269784336860     1.143315948090     0.614625350716    15.994914619570
         C           -1.198760663140     0.032680948090    -0.148354649284    12.000000000000
         C            1.202636336860     0.032888948090     0.145013350716    12.000000000000
         C           -2.338472663140    -0.830460051910     0.308048350716    12.000000000000
         C            2.342775336860    -0.830116051910    -0.310605649284    12.000000000000
         H           -3.279653663140    -0.323204051910     0.099759350716     1.007825032230
         H           -2.242794663140    -1.020037051910     1.380207350716     1.007825032230
         H           -2.303903663140    -1.794208051910    -0.204938649284     1.007825032230
         H            2.310802336860    -1.791773051910     0.206532350716     1.007825032230
         H            3.283565336860    -0.320629051910    -0.106042649284     1.007825032230
         H            2.245223336860    -1.024414051910    -1.381713649284     1.007825032230

  Basis Set: AUG-CC-PVTZ
    Blend: AUG-CC-PVTZ
  Basis Set: (AUG-CC-PVTZ AUX)
    Blend: AUG-CC-PVTZ-JKFIT
	 Reference Energy          =    -379.7198955655385362 [Eh]
	 Singles Energy            =      -0.0000000000000000 [Eh]
	 Same-Spin Energy          =      -0.3643895691658513 [Eh]
	 Opposite-Spin Energy      =      -1.1318372170672313 [Eh]
	 Correlation Energy        =      -1.4962267862330827 [Eh]
	 Total Energy              =    -381.2161223517716166 [Eh]

	 ================> DF-SCS-MP2 Energies <==================
	-----------------------------------------------------------
	 SCS Same-Spin Scale       =       0.3333333333333333 [-]
	 SCS Opposite-Spin Scale   =       1.2000000000000000 [-]
	 SCS Same-Spin Energy      =      -0.1214631897219504 [Eh]
	 SCS Opposite-Spin Energy  =      -1.3582046604806775 [Eh]
	 SCS Correlation Energy    =      -1.4796678502026279 [Eh]
	 SCS Total Energy          =    -381.1995634157411814 [Eh]
	-----------------------------------------------------------

  Dipole Moment: [D]
     X:     0.1444      Y:    -3.7977      Z:     0.0032     Total:     3.8004

*** Psi4 exiting successfully. Buy a developer a beer!
