                               Psi4 1.3.2 release

  ==> Input File <==

--------------------------------------------------------------------------
#psi4
#
memory 32 gb

molecule  {
0 1
  O        0.0462417    -0.5442880    -0.0397818
  O       -1.2683150     1.1981060    -0.6159220
  O        1.2678170     1.1981120     0.6161180
  C       -1.2007280     0.0874770    -0.1468620
  C        1.2006690     0.0876850     0.1465060
  C       -2.3404400    -0.7756640     0.3095410
  C        2.3408080    -0.7753200    -0.3091130
  H       -3.2816210    -0.2684080     0.1012520
  H       -2.2447620    -0.9652410     1.3817000
  H       -2.3058710    -1.7394120    -0.2034460
  H        2.3088350    -1.7369770     0.2080250
  H        3.2815980    -0.2658330    -0.1045500
  H        2.2432560    -0.9696180    -1.3802210
units angstrom
no_reorient  #important for SAPT in psi4, default
symmetry c1  #important for SAPT in psi4, default
}

set PROPERTIES_ORIGIN ["COM"]
properties('MP2/aug-cc-pvtz', properties = ['dipole'])
--------------------------------------------------------------------------

    Molecular point group: c1
  Charge       = 0
  Multiplicity = 1
  Basis Set: AUG-CC-PVTZ
    Blend: AUG-CC-PVTZ
  Basis Set: (AUG-CC-PVTZ AUX)
    Blend: AUG-CC-PVTZ-JKFIT

    Orbital Energies [Eh]
    ---------------------

    Doubly Occupied:

       1A    -20.629695     2A    -20.568118     3A    -20.550550
       4A    -11.410041     5A    -11.393842     6A    -11.263986
       7A    -11.250841     8A     -1.506120     9A     -1.405770
      10A     -1.363797    11A     -1.062963    12A     -1.022403
      13A     -0.892540    14A     -0.738007    15A     -0.711662
      16A     -0.699543    17A     -0.691142    18A     -0.629992
      19A     -0.623118    20A     -0.602319    21A     -0.582519
      22A     -0.577717    23A     -0.563072    24A     -0.517917
      25A     -0.479694    26A     -0.476201    27A     -0.445309

  @DF-RHF Final Energy:  -379.72247599523547

   => Energetics <=

    Nuclear Repulsion Energy =            302.7366512195084738
    One-Electron Energy =               -1119.6004989228790691
    Two-Electron Energy =                 437.1413717081350683
    Total Energy =                       -379.7224759952354702
  Basis Set: (AUG-CC-PVTZ AUX)
    Blend: AUG-CC-PVTZ-RI
    Molecular point group: c1

    Geometry (in Angstrom), charge = 0, multiplicity = 1:

       Center              X                  Y                   Z               Mass
    ------------   -----------------  -----------------  -----------------  -----------------
         O            0.039020210524    -0.614066176816    -0.033611894659    15.994914619570
         O           -1.275536489476     1.128327823184    -0.609752094659    15.994914619570
         O            1.260595510524     1.128333823184     0.622287905341    15.994914619570
         C           -1.207949489476     0.017698823184    -0.140692094659    12.000000000000
         C            1.193447510524     0.017906823184     0.152675905341    12.000000000000
         C           -2.347661489476    -0.845442176816     0.315710905341    12.000000000000
         C            2.333586510524    -0.845098176816    -0.302943094659    12.000000000000
         H           -3.288842489476    -0.338186176816     0.107421905341     1.007825032230
         H           -2.251983489476    -1.035019176816     1.387869905341     1.007825032230
         H           -2.313092489476    -1.809190176816    -0.197276094659     1.007825032230
         H            2.301613510524    -1.806755176816     0.214194905341     1.007825032230
         H            3.274376510524    -0.335611176816    -0.098380094659     1.007825032230
         H            2.236034510524    -1.039396176816    -1.374051094659     1.007825032230

  Basis Set: AUG-CC-PVTZ
    Blend: AUG-CC-PVTZ
  Basis Set: (AUG-CC-PVTZ AUX)
    Blend: AUG-CC-PVTZ-JKFIT
	 Reference Energy          =    -379.7224759952354702 [Eh]
	 Singles Energy            =      -0.0000000000000000 [Eh]
	 Same-Spin Energy          =      -0.3630027597471058 [Eh]
	 Opposite-Spin Energy      =      -1.1279348527536024 [Eh]
	 Correlation Energy        =      -1.4909376125007081 [Eh]
	 Total Energy              =    -381.2134136077361859 [Eh]

	 ================> DF-SCS-MP2 Energies <==================
	-----------------------------------------------------------
	 SCS Same-Spin Scale       =       0.3333333333333333 [-]
	 SCS Opposite-Spin Scale   =       1.2000000000000000 [-]
	 SCS Same-Spin Energy      =      -0.1210009199157019 [Eh]
	 SCS Opposite-Spin Energy  =      -1.3535218233043229 [Eh]
	 SCS Correlation Energy    =      -1.4745227432200250 [Eh]
	 SCS Total Energy          =    -381.1969987384554770 [Eh]
	-----------------------------------------------------------

  Dipole Moment: [D]
     X:    -0.5660      Y:    -4.1282      Z:    -0.0158     Total:     4.1668

*** Psi4 exiting successfully. Buy a developer a beer!
