                               Psi4 1.3.2 release

  ==> Input File <==

--------------------------------------------------------------------------
#psi4
#
memory 32 gb

molecule  {
0 1
  O        0.0000880    -0.6211650    -0.0005950
  O       -1.2683150     1.1981060    -0.6159220
  O        1.2678170     1.1981120     0.6161180
  C       -1.2119224     0.2714305    -0.2245524
  C        1.2006690     0.0876850     0.1465060
  C       -2.3404400    -0.7756640     0.3095410
  C        2.3408080    -0.7753200    -0.3091130
  H       -3.2816210    -0.2684080     0.1012520
  H       -2.2447620    -0.9652410     1.3817000
  H       -2.3058710    -1.7394120    -0.2034460
  H        2.3088350    -1.7369770     0.2080250
  H        3.2815980    -0.2658330    -0.1045500
  H        2.2432560    -0.9696180    -1.3802210
units angstrom
no_reorient  #important for SAPT in psi4, default
symmetry c1  #important for SAPT in psi4, default
}

set PROPERTIES_ORIGIN ["COM"]
properties('MP2/aug-cc-pvtz', properties = ['dipole'])
--------------------------------------------------------------------------

    Molecular point group: c1
  Charge       = 0
  Multiplicity = 1
  Basis Set: AUG-CC-PVTZ
    Blend: AUG-CC-PVTZ
  Basis Set: (AUG-CC-PVTZ AUX)
    Blend: AUG-CC-PVTZ-JKFIT

    Orbital Energies [Eh]
    ---------------------

    Doubly Occupied:

       1A    -20.602921     2A    -20.594038     3A    -20.553429
       4A    -11.386022     5A    -11.385904     6A    -11.252981
       7A    -11.243307     8A     -1.594803     9A     -1.434090
      10A     -1.347845    11A     -1.028819    12A     -0.992713
      13A     -0.830254    14A     -0.770539    15A     -0.735187
      16A     -0.707267    17A     -0.699662    18A     -0.650767
      19A     -0.634007    20A     -0.594842    21A     -0.581584
      22A     -0.571753    23A     -0.564458    24A     -0.540056
      25A     -0.479443    26A     -0.467232    27A     -0.424249

  @DF-RHF Final Energy:  -379.64010316018437

   => Energetics <=

    Nuclear Repulsion Energy =            302.4938880292572776
    One-Electron Energy =               -1118.9316344018459404
    Two-Electron Energy =                 436.7976432124042958
    Total Energy =                       -379.6401031601843670
  Basis Set: (AUG-CC-PVTZ AUX)
    Blend: AUG-CC-PVTZ-RI
    Molecular point group: c1

    Geometry (in Angstrom), charge = 0, multiplicity = 1:

       Center              X                  Y                   Z               Mass
    ------------   -----------------  -----------------  -----------------  -----------------
         O            0.001418336493    -0.700526482845     0.008569026752    15.994914619570
         O           -1.266984663507     1.118744517155    -0.606757973248    15.994914619570
         O            1.269147336493     1.118750517155     0.625282026752    15.994914619570
         C           -1.210592063507     0.192069017155    -0.215388373248    12.000000000000
         C            1.201999336493     0.008323517155     0.155670026752    12.000000000000
         C           -2.339109663507    -0.855025482845     0.318705026752    12.000000000000
         C            2.342138336493    -0.854681482845    -0.299948973248    12.000000000000
         H           -3.280290663507    -0.347769482845     0.110416026752     1.007825032230
         H           -2.243431663507    -1.044602482845     1.390864026752     1.007825032230
         H           -2.304540663507    -1.818773482845    -0.194281973248     1.007825032230
         H            2.310165336493    -1.816338482845     0.217189026752     1.007825032230
         H            3.282928336493    -0.345194482845    -0.095385973248     1.007825032230
         H            2.244586336493    -1.048979482845    -1.371056973248     1.007825032230

  Basis Set: AUG-CC-PVTZ
    Blend: AUG-CC-PVTZ
  Basis Set: (AUG-CC-PVTZ AUX)
    Blend: AUG-CC-PVTZ-JKFIT
	 Reference Energy          =    -379.6401031601843670 [Eh]
	 Singles Energy            =      -0.0000000000000000 [Eh]
	 Same-Spin Energy          =      -0.3606364658981379 [Eh]
	 Opposite-Spin Energy      =      -1.1238902067600374 [Eh]
	 Correlation Energy        =      -1.4845266726581752 [Eh]
	 Total Energy              =    -381.1246298328425155 [Eh]

	 ================> DF-SCS-MP2 Energies <==================
	-----------------------------------------------------------
	 SCS Same-Spin Scale       =       0.3333333333333333 [-]
	 SCS Opposite-Spin Scale   =       1.2000000000000000 [-]
	 SCS Same-Spin Energy      =      -0.1202121552993793 [Eh]
	 SCS Opposite-Spin Energy  =      -1.3486682481120449 [Eh]
	 SCS Correlation Energy    =      -1.4688804034114242 [Eh]
	 SCS Total Energy          =    -381.1089835635958138 [Eh]
	-----------------------------------------------------------

  Dipole Moment: [D]
     X:    -0.8159      Y:    -2.5970      Z:    -0.6152     Total:     2.7908

*** Psi4 exiting successfully. Buy a developer a beer!
