                               Psi4 1.4a3.dev225

  ==> Input File <==

--------------------------------------------------------------------------
#psi4
#
memory 32 gb

molecule  {
0 1
  O        0.0000060    -0.6211290    -0.0000190
  O       -1.2681660     1.1980960    -0.6161090
  O        1.2681470     1.1980900     0.6161180
  C       -1.2018833     0.1060130    -0.1544660
  C        1.2007550     0.0876130     0.1466860
  C       -2.3406430    -0.7755290     0.3093960
  C        2.3406600    -0.7755100    -0.3093860
  H       -3.2816790    -0.2673730     0.1026340
  H       -2.2442300    -0.9671190     1.3811090
  H       -2.3071230    -1.7383610    -0.2054080
  H        2.3071510    -1.7383490     0.2054030
  H        3.2816780    -0.2673330    -0.1025910
  H        2.2442800    -0.9670870    -1.3811040
units angstrom
no_reorient  #important for SAPT in psi4, default
symmetry c1  #important for SAPT in psi4, default
}

set PROPERTIES_ORIGIN ["COM"]
properties('MP2/aug-cc-pvtz', properties = ['dipole'])
--------------------------------------------------------------------------

    Molecular point group: c1
  Charge       = 0
  Multiplicity = 1
  Basis Set: AUG-CC-PVTZ
    Blend: AUG-CC-PVTZ
  Basis Set: (AUG-CC-PVTZ AUX)
    Blend: AUG-CC-PVTZ-JKFIT

    Orbital Energies [Eh]
    ---------------------

    Doubly Occupied:

       1A    -20.627584     2A    -20.569907     3A    -20.565227
       4A    -11.403012     5A    -11.402847     6A    -11.255449
       7A    -11.254712     8A     -1.486756     9A     -1.415415
      10A     -1.368839    11A     -1.054732    12A     -1.017941
      13A     -0.866477    14A     -0.742882    15A     -0.703595
      16A     -0.699924    17A     -0.684054    18A     -0.630274
      19A     -0.623113    20A     -0.599212    21A     -0.587161
      22A     -0.578337    23A     -0.557274    24A     -0.525694
      25A     -0.485984    26A     -0.481611    27A     -0.445719

  @DF-RHF Final Energy:  -379.72283290704564

   => Energetics <=

    Nuclear Repulsion Energy =            301.1365869941357118
    One-Electron Energy =               -1116.4513736193850946
    Two-Electron Energy =                 435.5919537182036834
    Total Energy =                       -379.7228329070456425
  Basis Set: (AUG-CC-PVTZ AUX)
    Blend: AUG-CC-PVTZ-RI
    Molecular point group: c1

    Geometry (in Angstrom), charge = 0, multiplicity = 1:

       Center              X                  Y                   Z               Mass
    ------------   -----------------  -----------------  -----------------  -----------------
         O            0.000137977926    -0.681020022421     0.000895976602    15.994914619570
         O           -1.268034022074     1.138204977579    -0.615194023398    15.994914619570
         O            1.268278977926     1.138198977579     0.617032976602    15.994914619570
         C           -1.201751322074     0.046121977579    -0.153551023398    12.000000000000
         C            1.200886977926     0.027721977579     0.147600976602    12.000000000000
         C           -2.340511022074    -0.835420022421     0.310310976602    12.000000000000
         C            2.340791977926    -0.835401022421    -0.308471023398    12.000000000000
         H           -3.281547022074    -0.327264022421     0.103548976602     1.007825032230
         H           -2.244098022074    -1.027010022421     1.382023976602     1.007825032230
         H           -2.306991022074    -1.798252022421    -0.204493023398     1.007825032230
         H            2.307282977926    -1.798240022421     0.206317976602     1.007825032230
         H            3.281809977926    -0.327224022421    -0.101676023398     1.007825032230
         H            2.244411977926    -1.026978022421    -1.380189023398     1.007825032230

  Basis Set: AUG-CC-PVTZ
    Blend: AUG-CC-PVTZ
  Basis Set: (AUG-CC-PVTZ AUX)
    Blend: AUG-CC-PVTZ-JKFIT
	 Reference Energy          =    -379.7228329070456425 [Eh]
	 Singles Energy            =      -0.0000000000000000 [Eh]
	 Same-Spin Energy          =      -0.3636252868404285 [Eh]
	 Opposite-Spin Energy      =      -1.1300961816739787 [Eh]
	 Correlation Energy        =      -1.4937214685144071 [Eh]
	 Total Energy              =    -381.2165543755600652 [Eh]

	 ================> DF-SCS-MP2 Energies <==================
	-----------------------------------------------------------
	 SCS Same-Spin Scale       =       0.3333333333333333 [-]
	 SCS Opposite-Spin Scale   =       1.2000000000000000 [-]
	 SCS Same-Spin Energy      =      -0.1212084289468095 [Eh]
	 SCS Opposite-Spin Energy  =      -1.3561154180087744 [Eh]
	 SCS Correlation Energy    =      -1.4773238469555838 [Eh]
	 SCS Total Energy          =    -381.2001567540012275 [Eh]
	-----------------------------------------------------------

  Dipole Moment: [D]
     X:    -0.0714      Y:    -3.7495      Z:    -0.0551     Total:     3.7506

*** Psi4 exiting successfully. Buy a developer a beer!
