                               Psi4 1.3.2 release

  ==> Input File <==

--------------------------------------------------------------------------
#psi4
#
memory 32 gb

molecule  {
0 1
  O        0.0000880    -0.6211650    -0.0005950
  O       -1.2683150     1.1981060    -0.6159220
  O        1.2678170     1.1981120     0.6161180
  C       -1.2007280     0.0874770    -0.1468620
  C        1.2006690     0.0876850     0.1465060
  C       -2.3404400    -0.7756640     0.3095410
  C        2.3408080    -0.7753200    -0.3091130
  H       -3.2816210    -0.2684080     0.1012520
  H       -2.2447620    -0.9652410     1.3817000
  H       -2.3058710    -1.7394120    -0.2034460
  H        2.3088350    -1.7369770     0.2080250
  H        3.2815980    -0.2658330    -0.1045500
  H        2.2432560    -0.9696180    -1.3802210
units angstrom
no_reorient  #important for SAPT in psi4, default
symmetry c1  #important for SAPT in psi4, default
}

set PROPERTIES_ORIGIN ["COM"]
properties('MP2/aug-cc-pvtz', properties = ['dipole'])
--------------------------------------------------------------------------

    Molecular point group: c1
  Charge       = 0
  Multiplicity = 1
  Basis Set: AUG-CC-PVTZ
    Blend: AUG-CC-PVTZ
  Basis Set: (AUG-CC-PVTZ AUX)
    Blend: AUG-CC-PVTZ-JKFIT

    Orbital Energies [Eh]
    ---------------------

    Doubly Occupied:

       1A    -20.630605     2A    -20.566368     3A    -20.566364
       4A    -11.404526     5A    -11.404509     6A    -11.255809
       7A    -11.255806     8A     -1.487302     9A     -1.407023
      10A     -1.366738    11A     -1.058009    12A     -1.020580
      13A     -0.870676    14A     -0.742342    15A     -0.703698
      16A     -0.699057    17A     -0.685026    18A     -0.628423
      19A     -0.622879    20A     -0.600636    21A     -0.585752
      22A     -0.579573    23A     -0.558596    24A     -0.521075
      25A     -0.483575    26A     -0.481328    27A     -0.446544

  @DF-RHF Final Energy:  -379.72176201786010

   => Energetics <=

    Nuclear Repulsion Energy =            301.0606188869119819
    One-Electron Energy =               -1116.2991282489867899
    Two-Electron Energy =                 435.5167473442147639
    Total Energy =                       -379.7217620178601010
  Basis Set: (AUG-CC-PVTZ AUX)
    Blend: AUG-CC-PVTZ-RI
    Molecular point group: c1

    Geometry (in Angstrom), charge = 0, multiplicity = 1:

       Center              X                  Y                   Z               Mass
    ------------   -----------------  -----------------  -----------------  -----------------
         O            0.000101757353    -0.678891617125    -0.000568181139    15.994914619570
         O           -1.268301242647     1.140379382875    -0.615895181139    15.994914619570
         O            1.267830757353     1.140385382875     0.616144818861    15.994914619570
         C           -1.200714242647     0.029750382875    -0.146835181139    12.000000000000
         C            1.200682757353     0.029958382875     0.146532818861    12.000000000000
         C           -2.340426242647    -0.833390617125     0.309567818861    12.000000000000
         C            2.340821757353    -0.833046617125    -0.309086181139    12.000000000000
         H           -3.281607242647    -0.326134617125     0.101278818861     1.007825032230
         H           -2.244748242647    -1.022967617125     1.381726818861     1.007825032230
         H           -2.305857242647    -1.797138617125    -0.203419181139     1.007825032230
         H            2.308848757353    -1.794703617125     0.208051818861     1.007825032230
         H            3.281611757353    -0.323559617125    -0.104523181139     1.007825032230
         H            2.243269757353    -1.027344617125    -1.380194181139     1.007825032230

  Basis Set: AUG-CC-PVTZ
    Blend: AUG-CC-PVTZ
  Basis Set: (AUG-CC-PVTZ AUX)
    Blend: AUG-CC-PVTZ-JKFIT
	 Reference Energy          =    -379.7217620178601010 [Eh]
	 Singles Energy            =      -0.0000000000000000 [Eh]
	 Same-Spin Energy          =      -0.3640551432486443 [Eh]
	 Opposite-Spin Energy      =      -1.1309390587066657 [Eh]
	 Correlation Energy        =      -1.4949942019553100 [Eh]
	 Total Energy              =    -381.2167562198154087 [Eh]

	 ================> DF-SCS-MP2 Energies <==================
	-----------------------------------------------------------
	 SCS Same-Spin Scale       =       0.3333333333333333 [-]
	 SCS Opposite-Spin Scale   =       1.2000000000000000 [-]
	 SCS Same-Spin Energy      =      -0.1213517144162148 [Eh]
	 SCS Opposite-Spin Energy  =      -1.3571268704479988 [Eh]
	 SCS Correlation Energy    =      -1.4784785848642137 [Eh]
	 SCS Total Energy          =    -381.2002406027243069 [Eh]
	-----------------------------------------------------------

  Dipole Moment: [D]
     X:     0.0008      Y:    -3.8619      Z:     0.0008     Total:     3.8619

*** Psi4 exiting successfully. Buy a developer a beer!
