                               Psi4 1.3.2 release

  ==> Input File <==

--------------------------------------------------------------------------
#psi4
#
memory 32 gb

molecule  {
0 1
  O        0.0000880    -0.6211650    -0.0005950
  O       -1.2683150     1.1981060    -0.6159220
  O        1.2678170     1.1981120     0.6161180
  C       -1.2128198     0.0662571    -0.1483521
  C        1.2006690     0.0876850     0.1465060
  C       -2.3404400    -0.7756640     0.3095410
  C        2.3408080    -0.7753200    -0.3091130
  H       -3.2816210    -0.2684080     0.1012520
  H       -2.2447620    -0.9652410     1.3817000
  H       -2.3058710    -1.7394120    -0.2034460
  H        2.3088350    -1.7369770     0.2080250
  H        3.2815980    -0.2658330    -0.1045500
  H        2.2432560    -0.9696180    -1.3802210
units angstrom
no_reorient  #important for SAPT in psi4, default
symmetry c1  #important for SAPT in psi4, default
}

set PROPERTIES_ORIGIN ["COM"]
properties('MP2/aug-cc-pvtz', properties = ['dipole'])
--------------------------------------------------------------------------

    Molecular point group: c1
  Charge       = 0
  Multiplicity = 1
  Basis Set: AUG-CC-PVTZ
    Blend: AUG-CC-PVTZ
  Basis Set: (AUG-CC-PVTZ AUX)
    Blend: AUG-CC-PVTZ-JKFIT

    Orbital Energies [Eh]
    ---------------------

    Doubly Occupied:

       1A    -20.630612     2A    -20.565961     3A    -20.564386
       4A    -11.406642     5A    -11.404663     6A    -11.257071
       7A    -11.255898     8A     -1.485036     9A     -1.400883
      10A     -1.360643    11A     -1.062121    12A     -1.024094
      13A     -0.871940    14A     -0.741253    15A     -0.702913
      16A     -0.698062    17A     -0.684159    18A     -0.628283
      19A     -0.623053    20A     -0.602774    21A     -0.584459
      22A     -0.579586    23A     -0.559021    24A     -0.517018
      25A     -0.480415    26A     -0.479540    27A     -0.447338

  @DF-RHF Final Energy:  -379.71885749390106

   => Energetics <=

    Nuclear Repulsion Energy =            300.8489360274278965
    One-Electron Energy =               -1115.8999348857089444
    Two-Electron Energy =                 435.3321413643799360
    Total Energy =                       -379.7188574939010550
  Basis Set: (AUG-CC-PVTZ AUX)
    Blend: AUG-CC-PVTZ-RI
    Molecular point group: c1

    Geometry (in Angstrom), charge = 0, multiplicity = 1:

       Center              X                  Y                   Z               Mass
    ------------   -----------------  -----------------  -----------------  -----------------
         O            0.001523880169    -0.676395933775    -0.000392929712    15.994914619570
         O           -1.266879119831     1.142875066225    -0.615719929712    15.994914619570
         O            1.269252880169     1.142881066225     0.616320070288    15.994914619570
         C           -1.211383919831     0.011026166225    -0.148150029712    12.000000000000
         C            1.202104880169     0.032454066225     0.146708070288    12.000000000000
         C           -2.339004119831    -0.830894933775     0.309743070288    12.000000000000
         C            2.342243880169    -0.830550933775    -0.308910929712    12.000000000000
         H           -3.280185119831    -0.323638933775     0.101454070288     1.007825032230
         H           -2.243326119831    -1.020471933775     1.381902070288     1.007825032230
         H           -2.304435119831    -1.794642933775    -0.203243929712     1.007825032230
         H            2.310270880169    -1.792207933775     0.208227070288     1.007825032230
         H            3.283033880169    -0.321063933775    -0.104347929712     1.007825032230
         H            2.244691880169    -1.024848933775    -1.380018929712     1.007825032230

  Basis Set: AUG-CC-PVTZ
    Blend: AUG-CC-PVTZ
  Basis Set: (AUG-CC-PVTZ AUX)
    Blend: AUG-CC-PVTZ-JKFIT
	 Reference Energy          =    -379.7188574939010550 [Eh]
	 Singles Energy            =      -0.0000000000000000 [Eh]
	 Same-Spin Energy          =      -0.3646272541226259 [Eh]
	 Opposite-Spin Energy      =      -1.1319955887744686 [Eh]
	 Correlation Energy        =      -1.4966228428970945 [Eh]
	 Total Energy              =    -381.2154803367981231 [Eh]

	 ================> DF-SCS-MP2 Energies <==================
	-----------------------------------------------------------
	 SCS Same-Spin Scale       =       0.3333333333333333 [-]
	 SCS Opposite-Spin Scale   =       1.2000000000000000 [-]
	 SCS Same-Spin Energy      =      -0.1215424180408753 [Eh]
	 SCS Opposite-Spin Energy  =      -1.3583947065293622 [Eh]
	 SCS Correlation Energy    =      -1.4799371245702375 [Eh]
	 SCS Total Energy          =    -381.1987946184713110 [Eh]
	-----------------------------------------------------------

  Dipole Moment: [D]
     X:    -0.0496      Y:    -3.9632      Z:     0.0415     Total:     3.9637

*** Psi4 exiting successfully. Buy a developer a beer!
