                               Psi4 1.4a3.dev225

  ==> Input File <==

--------------------------------------------------------------------------
#psi4
#
memory 32 gb

molecule  {
0 1
  O        0.0000060    -0.6211290    -0.0000190
  O       -1.2681660     1.1980960    -0.6161090
  O        1.2681470     1.1980900     0.6161180
  C       -1.1836380     0.0775097    -0.1445987
  C        1.2007550     0.0876130     0.1466860
  C       -2.3406430    -0.7755290     0.3093960
  C        2.3406600    -0.7755100    -0.3093860
  H       -3.2816790    -0.2673730     0.1026340
  H       -2.2442300    -0.9671190     1.3811090
  H       -2.3071230    -1.7383610    -0.2054080
  H        2.3071510    -1.7383490     0.2054030
  H        3.2816780    -0.2673330    -0.1025910
  H        2.2442800    -0.9670870    -1.3811040
units angstrom
no_reorient  #important for SAPT in psi4, default
symmetry c1  #important for SAPT in psi4, default
}

set PROPERTIES_ORIGIN ["COM"]
properties('MP2/aug-cc-pvtz', properties = ['dipole'])
--------------------------------------------------------------------------

    Molecular point group: c1
  Charge       = 0
  Multiplicity = 1
  Basis Set: AUG-CC-PVTZ
    Blend: AUG-CC-PVTZ
  Basis Set: (AUG-CC-PVTZ AUX)
    Blend: AUG-CC-PVTZ-JKFIT

    Orbital Energies [Eh]
    ---------------------

    Doubly Occupied:

       1A    -20.635512     2A    -20.568989     3A    -20.562710
       4A    -11.407294     5A    -11.404349     6A    -11.257621
       7A    -11.254727     8A     -1.493082     9A     -1.403911
      10A     -1.366349    11A     -1.059194    12A     -1.019873
      13A     -0.876735    14A     -0.743351    15A     -0.706022
      16A     -0.698524    17A     -0.688106    18A     -0.626940
      19A     -0.621886    20A     -0.600636    21A     -0.585104
      22A     -0.580353    23A     -0.560240    24A     -0.519660
      25A     -0.482682    26A     -0.481565    27A     -0.446066

  @DF-RHF Final Energy:  -379.72092143646984

   => Energetics <=

    Nuclear Repulsion Energy =            301.1869001993933352
    One-Electron Energy =               -1116.5126769702130787
    Two-Electron Energy =                 435.6048553343499066
    Total Energy =                       -379.7209214364698369
  Basis Set: (AUG-CC-PVTZ AUX)
    Blend: AUG-CC-PVTZ-RI
    Molecular point group: c1

    Geometry (in Angstrom), charge = 0, multiplicity = 1:

       Center              X                  Y                   Z               Mass
    ------------   -----------------  -----------------  -----------------  -----------------
         O           -0.002007861188    -0.677667734652    -0.000264521625    15.994914619570
         O           -1.270179861188     1.141557265348    -0.616354521625    15.994914619570
         O            1.266133138812     1.141551265348     0.615872478375    15.994914619570
         C           -1.185651861188     0.020970965348    -0.144844221625    12.000000000000
         C            1.198741138812     0.031074265348     0.146440478375    12.000000000000
         C           -2.342656861188    -0.832067734652     0.309150478375    12.000000000000
         C            2.338646138812    -0.832048734652    -0.309631521625    12.000000000000
         H           -3.283692861188    -0.323911734652     0.102388478375     1.007825032230
         H           -2.246243861188    -1.023657734652     1.380863478375     1.007825032230
         H           -2.309136861188    -1.794899734652    -0.205653521625     1.007825032230
         H            2.305137138812    -1.794887734652     0.205157478375     1.007825032230
         H            3.279664138812    -0.323871734652    -0.102836521625     1.007825032230
         H            2.242266138812    -1.023625734652    -1.381349521625     1.007825032230

  Basis Set: AUG-CC-PVTZ
    Blend: AUG-CC-PVTZ
  Basis Set: (AUG-CC-PVTZ AUX)
    Blend: AUG-CC-PVTZ-JKFIT
	 Reference Energy          =    -379.7209214364698369 [Eh]
	 Singles Energy            =      -0.0000000000000000 [Eh]
	 Same-Spin Energy          =      -0.3641169487889055 [Eh]
	 Opposite-Spin Energy      =      -1.1311259335349151 [Eh]
	 Correlation Energy        =      -1.4952428823238206 [Eh]
	 Total Energy              =    -381.2161643187936306 [Eh]

	 ================> DF-SCS-MP2 Energies <==================
	-----------------------------------------------------------
	 SCS Same-Spin Scale       =       0.3333333333333333 [-]
	 SCS Opposite-Spin Scale   =       1.2000000000000000 [-]
	 SCS Same-Spin Energy      =      -0.1213723162629685 [Eh]
	 SCS Opposite-Spin Energy  =      -1.3573511202418980 [Eh]
	 SCS Correlation Energy    =      -1.4787234365048665 [Eh]
	 SCS Total Energy          =    -381.1996448729747158 [Eh]
	-----------------------------------------------------------

  Dipole Moment: [D]
     X:     0.1955      Y:    -3.9223      Z:     0.0278     Total:     3.9273

*** Psi4 exiting successfully. Buy a developer a beer!
