                               Psi4 1.3.2 release

  ==> Input File <==

--------------------------------------------------------------------------
#psi4
#
memory 32 gb

molecule  {
0 1
  O        0.0000880    -0.6211650    -0.0005950
  O       -1.2683150     1.1981060    -0.6159220
  O        1.2678170     1.1981120     0.6161180
  C       -1.1951308    -0.0044997    -0.1080168
  C        1.2006690     0.0876850     0.1465060
  C       -2.3404400    -0.7756640     0.3095410
  C        2.3408080    -0.7753200    -0.3091130
  H       -3.2816210    -0.2684080     0.1012520
  H       -2.2447620    -0.9652410     1.3817000
  H       -2.3058710    -1.7394120    -0.2034460
  H        2.3088350    -1.7369770     0.2080250
  H        3.2815980    -0.2658330    -0.1045500
  H        2.2432560    -0.9696180    -1.3802210
units angstrom
no_reorient  #important for SAPT in psi4, default
symmetry c1  #important for SAPT in psi4, default
}

set PROPERTIES_ORIGIN ["COM"]
properties('MP2/aug-cc-pvtz', properties = ['dipole'])
--------------------------------------------------------------------------

    Molecular point group: c1
  Charge       = 0
  Multiplicity = 1
  Basis Set: AUG-CC-PVTZ
    Blend: AUG-CC-PVTZ
  Basis Set: (AUG-CC-PVTZ AUX)
    Blend: AUG-CC-PVTZ-JKFIT

    Orbital Energies [Eh]
    ---------------------

    Doubly Occupied:

       1A    -20.644056     2A    -20.571822     3A    -20.548165
       4A    -11.412479     5A    -11.410793     6A    -11.260930
       7A    -11.257707     8A     -1.500704     9A     -1.398002
      10A     -1.319290    11A     -1.075125    12A     -1.032981
      13A     -0.891471    14A     -0.742749    15A     -0.709533
      16A     -0.699385    17A     -0.689586    18A     -0.628986
      19A     -0.622320    20A     -0.607240    21A     -0.588413
      22A     -0.569095    23A     -0.563628    24A     -0.511714
      25A     -0.478680    26A     -0.455921    27A     -0.442931

  @DF-RHF Final Energy:  -379.69809775731301

   => Energetics <=

    Nuclear Repulsion Energy =            300.7904016680017776
    One-Electron Energy =               -1115.7095869960230630
    Two-Electron Energy =                 435.2210875707082778
    Total Energy =                       -379.6980977573130076
  Basis Set: (AUG-CC-PVTZ AUX)
    Blend: AUG-CC-PVTZ-RI
    Molecular point group: c1

    Geometry (in Angstrom), charge = 0, multiplicity = 1:

       Center              X                  Y                   Z               Mass
    ------------   -----------------  -----------------  -----------------  -----------------
         O           -0.000556532217    -0.668074190146    -0.005136785084    15.994914619570
         O           -1.268959532217     1.151196809854    -0.620463785084    15.994914619570
         O            1.267172467783     1.151202809854     0.611576214916    15.994914619570
         C           -1.195775332217    -0.051408890146    -0.112558585084    12.000000000000
         C            1.200024467783     0.040775809854     0.141964214916    12.000000000000
         C           -2.341084532217    -0.822573190146     0.304999214916    12.000000000000
         C            2.340163467783    -0.822229190146    -0.313654785084    12.000000000000
         H           -3.282265532217    -0.315317190146     0.096710214916     1.007825032230
         H           -2.245406532217    -1.012150190146     1.377158214916     1.007825032230
         H           -2.306515532217    -1.786321190146    -0.207987785084     1.007825032230
         H            2.308190467783    -1.783886190146     0.203483214916     1.007825032230
         H            3.280953467783    -0.312742190146    -0.109091785084     1.007825032230
         H            2.242611467783    -1.016527190146    -1.384762785084     1.007825032230

  Basis Set: AUG-CC-PVTZ
    Blend: AUG-CC-PVTZ
  Basis Set: (AUG-CC-PVTZ AUX)
    Blend: AUG-CC-PVTZ-JKFIT
	 Reference Energy          =    -379.6980977573130076 [Eh]
	 Singles Energy            =      -0.0000000000000000 [Eh]
	 Same-Spin Energy          =      -0.3665803163919319 [Eh]
	 Opposite-Spin Energy      =      -1.1357338884775645 [Eh]
	 Correlation Energy        =      -1.5023142048694964 [Eh]
	 Total Energy              =    -381.2004119621824998 [Eh]

	 ================> DF-SCS-MP2 Energies <==================
	-----------------------------------------------------------
	 SCS Same-Spin Scale       =       0.3333333333333333 [-]
	 SCS Opposite-Spin Scale   =       1.2000000000000000 [-]
	 SCS Same-Spin Energy      =      -0.1221934387973106 [Eh]
	 SCS Opposite-Spin Energy  =      -1.3628806661730775 [Eh]
	 SCS Correlation Energy    =      -1.4850741049703882 [Eh]
	 SCS Total Energy          =    -381.1831718622834160 [Eh]
	-----------------------------------------------------------

  Dipole Moment: [D]
     X:     0.3284      Y:    -4.3639      Z:     0.2501     Total:     4.3833

*** Psi4 exiting successfully. Buy a developer a beer!
