                               Psi4 1.3.2 release

  ==> Input File <==

--------------------------------------------------------------------------
#psi4
#
memory 32 gb

molecule  {
0 1
  O        0.0000880    -0.6211650    -0.0005950
  O       -1.3102437     1.1964227    -0.6119724
  O        1.2678170     1.1981120     0.6161180
  C       -1.2007280     0.0874770    -0.1468620
  C        1.2006690     0.0876850     0.1465060
  C       -2.3404400    -0.7756640     0.3095410
  C        2.3408080    -0.7753200    -0.3091130
  H       -3.2816210    -0.2684080     0.1012520
  H       -2.2447620    -0.9652410     1.3817000
  H       -2.3058710    -1.7394120    -0.2034460
  H        2.3088350    -1.7369770     0.2080250
  H        3.2815980    -0.2658330    -0.1045500
  H        2.2432560    -0.9696180    -1.3802210
units angstrom
no_reorient  #important for SAPT in psi4, default
symmetry c1  #important for SAPT in psi4, default
}

set PROPERTIES_ORIGIN ["COM"]
properties('MP2/aug-cc-pvtz', properties = ['dipole'])
--------------------------------------------------------------------------

    Molecular point group: c1
  Charge       = 0
  Multiplicity = 1
  Basis Set: AUG-CC-PVTZ
    Blend: AUG-CC-PVTZ
  Basis Set: (AUG-CC-PVTZ AUX)
    Blend: AUG-CC-PVTZ-JKFIT

    Orbital Energies [Eh]
    ---------------------

    Doubly Occupied:

       1A    -20.633429     2A    -20.568007     3A    -20.566842
       4A    -11.405980     5A    -11.404628     6A    -11.256791
       7A    -11.253437     8A     -1.487924     9A     -1.408236
      10A     -1.369040    11A     -1.057944    12A     -1.019968
      13A     -0.871737    14A     -0.743322    15A     -0.704088
      16A     -0.700013    17A     -0.686044    18A     -0.628708
      19A     -0.622873    20A     -0.600519    21A     -0.586277
      22A     -0.579454    23A     -0.558740    24A     -0.521547
      25A     -0.485197    26A     -0.481763    27A     -0.447010

  @DF-RHF Final Energy:  -379.72135590613891

   => Energetics <=

    Nuclear Repulsion Energy =            300.7181099477666066
    One-Electron Energy =               -1115.5798951981312257
    Two-Electron Energy =                 435.1404293442257085
    Total Energy =                       -379.7213559061389105
  Basis Set: (AUG-CC-PVTZ AUX)
    Blend: AUG-CC-PVTZ-RI
    Molecular point group: c1

    Geometry (in Angstrom), charge = 0, multiplicity = 1:

       Center              X                  Y                   Z               Mass
    ------------   -----------------  -----------------  -----------------  -----------------
         O            0.006674675532    -0.678627735985    -0.001187336935    15.994914619570
         O           -1.303657024468     1.138959964015    -0.612564736935    15.994914619570
         O            1.274403675532     1.140649264015     0.615525663065    15.994914619570
         C           -1.194141324468     0.030014264015    -0.147454336935    12.000000000000
         C            1.207255675532     0.030222264015     0.145913663065    12.000000000000
         C           -2.333853324468    -0.833126735985     0.308948663065    12.000000000000
         C            2.347394675532    -0.832782735985    -0.309705336935    12.000000000000
         H           -3.275034324468    -0.325870735985     0.100659663065     1.007825032230
         H           -2.238175324468    -1.022703735985     1.381107663065     1.007825032230
         H           -2.299284324468    -1.796874735985    -0.204038336935     1.007825032230
         H            2.315421675532    -1.794439735985     0.207432663065     1.007825032230
         H            3.288184675532    -0.323295735985    -0.105142336935     1.007825032230
         H            2.249842675532    -1.027080735985    -1.380813336935     1.007825032230

  Basis Set: AUG-CC-PVTZ
    Blend: AUG-CC-PVTZ
  Basis Set: (AUG-CC-PVTZ AUX)
    Blend: AUG-CC-PVTZ-JKFIT
	 Reference Energy          =    -379.7213559061389105 [Eh]
	 Singles Energy            =      -0.0000000000000000 [Eh]
	 Same-Spin Energy          =      -0.3640385118753865 [Eh]
	 Opposite-Spin Energy      =      -1.1310009247419881 [Eh]
	 Correlation Energy        =      -1.4950394366173745 [Eh]
	 Total Energy              =    -381.2163953427563001 [Eh]

	 ================> DF-SCS-MP2 Energies <==================
	-----------------------------------------------------------
	 SCS Same-Spin Scale       =       0.3333333333333333 [-]
	 SCS Opposite-Spin Scale   =       1.2000000000000000 [-]
	 SCS Same-Spin Energy      =      -0.1213461706251288 [Eh]
	 SCS Opposite-Spin Energy  =      -1.3572011096903858 [Eh]
	 SCS Correlation Energy    =      -1.4785472803155146 [Eh]
	 SCS Total Energy          =    -381.1999031864544349 [Eh]
	-----------------------------------------------------------

  Dipole Moment: [D]
     X:     0.1303      Y:    -3.8453      Z:    -0.0134     Total:     3.8475

*** Psi4 exiting successfully. Buy a developer a beer!
