                               Psi4 1.3.2 release

  ==> Input File <==

--------------------------------------------------------------------------
#psi4
#
memory 32 gb

molecule  {
0 1
  O        0.0466961    -0.5427329    -0.0359777
  O       -1.2683150     1.1981060    -0.6159220
  O        1.2678170     1.1981120     0.6161180
  C       -1.2007280     0.0874770    -0.1468620
  C        1.2006690     0.0876850     0.1465060
  C       -2.3404400    -0.7756640     0.3095410
  C        2.3408080    -0.7753200    -0.3091130
  H       -3.2816210    -0.2684080     0.1012520
  H       -2.2447620    -0.9652410     1.3817000
  H       -2.3058710    -1.7394120    -0.2034460
  H        2.3088350    -1.7369770     0.2080250
  H        3.2815980    -0.2658330    -0.1045500
  H        2.2432560    -0.9696180    -1.3802210
units angstrom
no_reorient  #important for SAPT in psi4, default
symmetry c1  #important for SAPT in psi4, default
}

set PROPERTIES_ORIGIN ["COM"]
properties('MP2/aug-cc-pvtz', properties = ['dipole'])
--------------------------------------------------------------------------

    Molecular point group: c1
  Charge       = 0
  Multiplicity = 1
  Basis Set: AUG-CC-PVTZ
    Blend: AUG-CC-PVTZ
  Basis Set: (AUG-CC-PVTZ AUX)
    Blend: AUG-CC-PVTZ-JKFIT

    Orbital Energies [Eh]
    ---------------------

    Doubly Occupied:

       1A    -20.629660     2A    -20.568192     3A    -20.550152
       4A    -11.410219     5A    -11.393565     6A    -11.264081
       7A    -11.250818     8A     -1.506607     9A     -1.405811
      10A     -1.363657    11A     -1.063099    12A     -1.022435
      13A     -0.893064    14A     -0.737926    15A     -0.711844
      16A     -0.699667    17A     -0.691193    18A     -0.630055
      19A     -0.623146    20A     -0.602345    21A     -0.582448
      22A     -0.577664    23A     -0.563155    24A     -0.517868
      25A     -0.479661    26A     -0.475996    27A     -0.445258

  @DF-RHF Final Energy:  -379.72240432628513

   => Energetics <=

    Nuclear Repulsion Energy =            302.7760412758718758
    One-Electron Energy =               -1119.6777219964264987
    Two-Electron Energy =                 437.1792763942694933
    Total Energy =                       -379.7224043262851296
  Basis Set: (AUG-CC-PVTZ AUX)
    Blend: AUG-CC-PVTZ-RI
    Molecular point group: c1

    Geometry (in Angstrom), charge = 0, multiplicity = 1:

       Center              X                  Y                   Z               Mass
    ------------   -----------------  -----------------  -----------------  -----------------
         O            0.039403376882    -0.612754860788    -0.030404141268    15.994914619570
         O           -1.275607723118     1.128084039212    -0.610348441268    15.994914619570
         O            1.260524276882     1.128090039212     0.621691558732    15.994914619570
         C           -1.208020723118     0.017455039212    -0.141288441268    12.000000000000
         C            1.193376276882     0.017663039212     0.152079558732    12.000000000000
         C           -2.347732723118    -0.845685960788     0.315114558732    12.000000000000
         C            2.333515276882    -0.845341960788    -0.303539441268    12.000000000000
         H           -3.288913723118    -0.338429960788     0.106825558732     1.007825032230
         H           -2.252054723118    -1.035262960788     1.387273558732     1.007825032230
         H           -2.313163723118    -1.809433960788    -0.197872441268     1.007825032230
         H            2.301542276882    -1.806998960788     0.213598558732     1.007825032230
         H            3.274305276882    -0.335854960788    -0.098976441268     1.007825032230
         H            2.235963276882    -1.039639960788    -1.374647441268     1.007825032230

  Basis Set: AUG-CC-PVTZ
    Blend: AUG-CC-PVTZ
  Basis Set: (AUG-CC-PVTZ AUX)
    Blend: AUG-CC-PVTZ-JKFIT
	 Reference Energy          =    -379.7224043262851296 [Eh]
	 Singles Energy            =      -0.0000000000000000 [Eh]
	 Same-Spin Energy          =      -0.3629828486561762 [Eh]
	 Opposite-Spin Energy      =      -1.1278716336324131 [Eh]
	 Correlation Energy        =      -1.4908544822885892 [Eh]
	 Total Energy              =    -381.2132588085736984 [Eh]

	 ================> DF-SCS-MP2 Energies <==================
	-----------------------------------------------------------
	 SCS Same-Spin Scale       =       0.3333333333333333 [-]
	 SCS Opposite-Spin Scale   =       1.2000000000000000 [-]
	 SCS Same-Spin Energy      =      -0.1209942828853921 [Eh]
	 SCS Opposite-Spin Energy  =      -1.3534459603588955 [Eh]
	 SCS Correlation Energy    =      -1.4744402432442876 [Eh]
	 SCS Total Energy          =    -381.1968445695293894 [Eh]
	-----------------------------------------------------------

  Dipole Moment: [D]
     X:    -0.5732      Y:    -4.1340      Z:    -0.0205     Total:     4.1736

*** Psi4 exiting successfully. Buy a developer a beer!
