                               Psi4 1.3.2 release

  ==> Input File <==

--------------------------------------------------------------------------
#psi4
#
memory 32 gb

molecule  {
0 1
  O        0.0000880    -0.6211650    -0.0005950
  O       -1.2263040     1.1984361    -0.6193001
  O        1.2678170     1.1981120     0.6161180
  C       -1.2007280     0.0874770    -0.1468620
  C        1.2006690     0.0876850     0.1465060
  C       -2.3404400    -0.7756640     0.3095410
  C        2.3408080    -0.7753200    -0.3091130
  H       -3.2816210    -0.2684080     0.1012520
  H       -2.2447620    -0.9652410     1.3817000
  H       -2.3058710    -1.7394120    -0.2034460
  H        2.3088350    -1.7369770     0.2080250
  H        3.2815980    -0.2658330    -0.1045500
  H        2.2432560    -0.9696180    -1.3802210
units angstrom
no_reorient  #important for SAPT in psi4, default
symmetry c1  #important for SAPT in psi4, default
}

set PROPERTIES_ORIGIN ["COM"]
properties('MP2/aug-cc-pvtz', properties = ['dipole'])
--------------------------------------------------------------------------

    Molecular point group: c1
  Charge       = 0
  Multiplicity = 1
  Basis Set: AUG-CC-PVTZ
    Blend: AUG-CC-PVTZ
  Basis Set: (AUG-CC-PVTZ AUX)
    Blend: AUG-CC-PVTZ-JKFIT

    Orbital Energies [Eh]
    ---------------------

    Doubly Occupied:

       1A    -20.627716     2A    -20.565826     3A    -20.564694
       4A    -11.404420     5A    -11.403033     6A    -11.258141
       7A    -11.254811     8A     -1.486788     9A     -1.405765
      10A     -1.364361    11A     -1.058167    12A     -1.021036
      13A     -0.869585    14A     -0.741360    15A     -0.703466
      16A     -0.697982    17A     -0.683988    18A     -0.628193
      19A     -0.622893    20A     -0.600819    21A     -0.585265
      22A     -0.579599    23A     -0.558378    24A     -0.520540
      25A     -0.481875    26A     -0.480724    27A     -0.445838

  @DF-RHF Final Energy:  -379.72147809662312

   => Energetics <=

    Nuclear Repulsion Energy =            301.4285207231887966
    One-Electron Energy =               -1117.0694735936592679
    Two-Electron Energy =                 435.9194747738474121
    Total Energy =                       -379.7214780966231160
  Basis Set: (AUG-CC-PVTZ AUX)
    Blend: AUG-CC-PVTZ-RI
    Molecular point group: c1

    Geometry (in Angstrom), charge = 0, multiplicity = 1:

       Center              X                  Y                   Z               Mass
    ------------   -----------------  -----------------  -----------------  -----------------
         O           -0.006484062517    -0.678943364980    -0.000038616070    15.994914619570
         O           -1.232876062517     1.140657735020    -0.618743716070    15.994914619570
         O            1.261244937483     1.140333635020     0.616674383930    15.994914619570
         C           -1.207300062517     0.029698635020    -0.146305616070    12.000000000000
         C            1.194096937483     0.029906635020     0.147062383930    12.000000000000
         C           -2.347012062517    -0.833442364980     0.310097383930    12.000000000000
         C            2.334235937483    -0.833098364980    -0.308556616070    12.000000000000
         H           -3.288193062517    -0.326186364980     0.101808383930     1.007825032230
         H           -2.251334062517    -1.023019364980     1.382256383930     1.007825032230
         H           -2.312443062517    -1.797190364980    -0.202889616070     1.007825032230
         H            2.302262937483    -1.794755364980     0.208581383930     1.007825032230
         H            3.275025937483    -0.323611364980    -0.103993616070     1.007825032230
         H            2.236683937483    -1.027396364980    -1.379664616070     1.007825032230

  Basis Set: AUG-CC-PVTZ
    Blend: AUG-CC-PVTZ
  Basis Set: (AUG-CC-PVTZ AUX)
    Blend: AUG-CC-PVTZ-JKFIT
	 Reference Energy          =    -379.7214780966231160 [Eh]
	 Singles Energy            =      -0.0000000000000000 [Eh]
	 Same-Spin Energy          =      -0.3640976247547053 [Eh]
	 Opposite-Spin Energy      =      -1.1309318285897714 [Eh]
	 Correlation Energy        =      -1.4950294533444768 [Eh]
	 Total Energy              =    -381.2165075499676163 [Eh]

	 ================> DF-SCS-MP2 Energies <==================
	-----------------------------------------------------------
	 SCS Same-Spin Scale       =       0.3333333333333333 [-]
	 SCS Opposite-Spin Scale   =       1.2000000000000000 [-]
	 SCS Same-Spin Energy      =      -0.1213658749182351 [Eh]
	 SCS Opposite-Spin Energy  =      -1.3571181943077255 [Eh]
	 SCS Correlation Energy    =      -1.4784840692259607 [Eh]
	 SCS Total Energy          =    -381.1999621658490582 [Eh]
	-----------------------------------------------------------

  Dipole Moment: [D]
     X:    -0.1291      Y:    -3.8751      Z:     0.0133     Total:     3.8773

*** Psi4 exiting successfully. Buy a developer a beer!
