                               Psi4 1.3.2 release

  ==> Input File <==

--------------------------------------------------------------------------
#psi4
#
memory 32 gb

molecule  {
0 1
  O        0.0000880    -0.6211650    -0.0005950
  O       -1.2683150     1.1981060    -0.6159220
  O        1.2678170     1.1981120     0.6161180
  C       -1.1838841     0.0691542    -0.1387002
  C        1.2006690     0.0876850     0.1465060
  C       -2.3404400    -0.7756640     0.3095410
  C        2.3408080    -0.7753200    -0.3091130
  H       -3.2816210    -0.2684080     0.1012520
  H       -2.2447620    -0.9652410     1.3817000
  H       -2.3058710    -1.7394120    -0.2034460
  H        2.3088350    -1.7369770     0.2080250
  H        3.2815980    -0.2658330    -0.1045500
  H        2.2432560    -0.9696180    -1.3802210
units angstrom
no_reorient  #important for SAPT in psi4, default
symmetry c1  #important for SAPT in psi4, default
}

set PROPERTIES_ORIGIN ["COM"]
properties('MP2/aug-cc-pvtz', properties = ['dipole'])
--------------------------------------------------------------------------

    Molecular point group: c1
  Charge       = 0
  Multiplicity = 1
  Basis Set: AUG-CC-PVTZ
    Blend: AUG-CC-PVTZ
  Basis Set: (AUG-CC-PVTZ AUX)
    Blend: AUG-CC-PVTZ-JKFIT

    Orbital Energies [Eh]
    ---------------------

    Doubly Occupied:

       1A    -20.636744     2A    -20.569406     3A    -20.561044
       4A    -11.407979     5A    -11.405077     6A    -11.258064
       7A    -11.255026     8A     -1.493951     9A     -1.401695
      10A     -1.362684    11A     -1.060772    12A     -1.021375
      13A     -0.878559    14A     -0.743277    15A     -0.706423
      16A     -0.698033    17A     -0.688493    18A     -0.626597
      19A     -0.621810    20A     -0.601347    21A     -0.584426
      22A     -0.580345    23A     -0.561126    24A     -0.518160
      25A     -0.481901    26A     -0.479796    27A     -0.446188

  @DF-RHF Final Energy:  -379.71956523374081

   => Energetics <=

    Nuclear Repulsion Energy =            301.1524094846588468
    One-Electron Energy =               -1116.4433547727169298
    Two-Electron Energy =                 435.5713800543172738
    Total Energy =                       -379.7195652337408092
  Basis Set: (AUG-CC-PVTZ AUX)
    Blend: AUG-CC-PVTZ-RI
    Molecular point group: c1

    Geometry (in Angstrom), charge = 0, multiplicity = 1:

       Center              X                  Y                   Z               Mass
    ------------   -----------------  -----------------  -----------------  -----------------
         O           -0.001879262386    -0.676736663196    -0.001528094633    15.994914619570
         O           -1.270282262386     1.142534336804    -0.616855094633    15.994914619570
         O            1.265849737614     1.142540336804     0.615184905367    15.994914619570
         C           -1.185851362386     0.013582536804    -0.139633294633    12.000000000000
         C            1.198701737614     0.032113336804     0.145572905367    12.000000000000
         C           -2.342407262386    -0.831235663196     0.308607905367    12.000000000000
         C            2.338840737614    -0.830891663196    -0.310046094633    12.000000000000
         H           -3.283588262386    -0.323979663196     0.100318905367     1.007825032230
         H           -2.246729262386    -1.020812663196     1.380766905367     1.007825032230
         H           -2.307838262386    -1.794983663196    -0.204379094633     1.007825032230
         H            2.306867737614    -1.792548663196     0.207091905367     1.007825032230
         H            3.279630737614    -0.321404663196    -0.105483094633     1.007825032230
         H            2.241288737614    -1.025189663196    -1.381154094633     1.007825032230

  Basis Set: AUG-CC-PVTZ
    Blend: AUG-CC-PVTZ
  Basis Set: (AUG-CC-PVTZ AUX)
    Blend: AUG-CC-PVTZ-JKFIT
	 Reference Energy          =    -379.7195652337408092 [Eh]
	 Singles Energy            =      -0.0000000000000000 [Eh]
	 Same-Spin Energy          =      -0.3643548794765360 [Eh]
	 Opposite-Spin Energy      =      -1.1315818632926193 [Eh]
	 Correlation Energy        =      -1.4959367427691554 [Eh]
	 Total Energy              =    -381.2155019765099837 [Eh]

	 ================> DF-SCS-MP2 Energies <==================
	-----------------------------------------------------------
	 SCS Same-Spin Scale       =       0.3333333333333333 [-]
	 SCS Opposite-Spin Scale   =       1.2000000000000000 [-]
	 SCS Same-Spin Energy      =      -0.1214516264921787 [Eh]
	 SCS Opposite-Spin Energy  =      -1.3578982359511431 [Eh]
	 SCS Correlation Energy    =      -1.4793498624433217 [Eh]
	 SCS Total Energy          =    -381.1989150961841233 [Eh]
	-----------------------------------------------------------

  Dipole Moment: [D]
     X:     0.2195      Y:    -3.9751      Z:     0.0568     Total:     3.9816

*** Psi4 exiting successfully. Buy a developer a beer!
