                               Psi4 1.3.2 release

  ==> Input File <==

--------------------------------------------------------------------------
#psi4
#
memory 32 gb

molecule  {
0 1
  O        0.0121842    -0.6022551    -0.0103323
  O       -1.2683150     1.1981060    -0.6159220
  O        1.2678170     1.1981120     0.6161180
  C       -1.2007280     0.0874770    -0.1468620
  C        1.2006690     0.0876850     0.1465060
  C       -2.3404400    -0.7756640     0.3095410
  C        2.3408080    -0.7753200    -0.3091130
  H       -3.2816210    -0.2684080     0.1012520
  H       -2.2447620    -0.9652410     1.3817000
  H       -2.3058710    -1.7394120    -0.2034460
  H        2.3088350    -1.7369770     0.2080250
  H        3.2815980    -0.2658330    -0.1045500
  H        2.2432560    -0.9696180    -1.3802210
units angstrom
no_reorient  #important for SAPT in psi4, default
symmetry c1  #important for SAPT in psi4, default
}

set PROPERTIES_ORIGIN ["COM"]
properties('MP2/aug-cc-pvtz', properties = ['dipole'])
--------------------------------------------------------------------------

    Molecular point group: c1
  Charge       = 0
  Multiplicity = 1
  Basis Set: AUG-CC-PVTZ
    Blend: AUG-CC-PVTZ
  Basis Set: (AUG-CC-PVTZ AUX)
    Blend: AUG-CC-PVTZ-JKFIT

    Orbital Energies [Eh]
    ---------------------

    Doubly Occupied:

       1A    -20.630493     2A    -20.566774     3A    -20.562516
       4A    -11.405839     5A    -11.401873     6A    -11.257854
       7A    -11.254521     8A     -1.491698     9A     -1.406366
      10A     -1.366462    11A     -1.059154    12A     -1.021091
      13A     -0.876188    14A     -0.741084    15A     -0.705497
      16A     -0.699030    17A     -0.686895    18A     -0.628591
      19A     -0.622734    20A     -0.600609    21A     -0.584506
      22A     -0.580229    23A     -0.559911    24A     -0.520142
      25A     -0.482073    26A     -0.480900    27A     -0.446536

  @DF-RHF Final Energy:  -379.72298086344409

   => Energetics <=

    Nuclear Repulsion Energy =            301.4751547237508476
    One-Electron Energy =               -1117.1171394341936320
    Two-Electron Energy =                 435.9190038469986916
    Total Energy =                       -379.7229808634440928
  Basis Set: (AUG-CC-PVTZ AUX)
    Blend: AUG-CC-PVTZ-RI
    Molecular point group: c1

    Geometry (in Angstrom), charge = 0, multiplicity = 1:

       Center              X                  Y                   Z               Mass
    ------------   -----------------  -----------------  -----------------  -----------------
         O            0.010301706507    -0.662946112049    -0.008779021311    15.994914619570
         O           -1.270197493493     1.137414987951    -0.614368721311    15.994914619570
         O            1.265934506507     1.137420987951     0.617671278689    15.994914619570
         C           -1.202610493493     0.026785987951    -0.145308721311    12.000000000000
         C            1.198786506507     0.026993987951     0.148059278689    12.000000000000
         C           -2.342322493493    -0.836355012049     0.311094278689    12.000000000000
         C            2.338925506507    -0.836011012049    -0.307559721311    12.000000000000
         H           -3.283503493493    -0.329099012049     0.102805278689     1.007825032230
         H           -2.246644493493    -1.025932012049     1.383253278689     1.007825032230
         H           -2.307753493493    -1.800103012049    -0.201892721311     1.007825032230
         H            2.306952506507    -1.797668012049     0.209578278689     1.007825032230
         H            3.279715506507    -0.326524012049    -0.102996721311     1.007825032230
         H            2.241373506507    -1.030309012049    -1.378667721311     1.007825032230

  Basis Set: AUG-CC-PVTZ
    Blend: AUG-CC-PVTZ
  Basis Set: (AUG-CC-PVTZ AUX)
    Blend: AUG-CC-PVTZ-JKFIT
	 Reference Energy          =    -379.7229808634440928 [Eh]
	 Singles Energy            =      -0.0000000000000000 [Eh]
	 Same-Spin Energy          =      -0.3637502402716738 [Eh]
	 Opposite-Spin Energy      =      -1.1301002747753539 [Eh]
	 Correlation Energy        =      -1.4938505150470278 [Eh]
	 Total Energy              =    -381.2168313784911220 [Eh]

	 ================> DF-SCS-MP2 Energies <==================
	-----------------------------------------------------------
	 SCS Same-Spin Scale       =       0.3333333333333333 [-]
	 SCS Opposite-Spin Scale   =       1.2000000000000000 [-]
	 SCS Same-Spin Energy      =      -0.1212500800905579 [Eh]
	 SCS Opposite-Spin Energy  =      -1.3561203297304247 [Eh]
	 SCS Correlation Energy    =      -1.4773704098209826 [Eh]
	 SCS Total Energy          =    -381.2003512732650847 [Eh]
	-----------------------------------------------------------

  Dipole Moment: [D]
     X:    -0.1421      Y:    -3.9271      Z:    -0.0023     Total:     3.9296

*** Psi4 exiting successfully. Buy a developer a beer!
