                               Psi4 1.3.2 release

  ==> Input File <==

--------------------------------------------------------------------------
#psi4
#
memory 32 gb

molecule  {
0 1
  O       -0.0124876    -0.6402482     0.0081460
  O       -1.2683150     1.1981060    -0.6159220
  O        1.2678170     1.1981120     0.6161180
  C       -1.2007280     0.0874770    -0.1468620
  C        1.2006690     0.0876850     0.1465060
  C       -2.3404400    -0.7756640     0.3095410
  C        2.3408080    -0.7753200    -0.3091130
  H       -3.2816210    -0.2684080     0.1012520
  H       -2.2447620    -0.9652410     1.3817000
  H       -2.3058710    -1.7394120    -0.2034460
  H        2.3088350    -1.7369770     0.2080250
  H        3.2815980    -0.2658330    -0.1045500
  H        2.2432560    -0.9696180    -1.3802210
units angstrom
no_reorient  #important for SAPT in psi4, default
symmetry c1  #important for SAPT in psi4, default
}

set PROPERTIES_ORIGIN ["COM"]
properties('MP2/aug-cc-pvtz', properties = ['dipole'])
--------------------------------------------------------------------------

    Molecular point group: c1
  Charge       = 0
  Multiplicity = 1
  Basis Set: AUG-CC-PVTZ
    Blend: AUG-CC-PVTZ
  Basis Set: (AUG-CC-PVTZ AUX)
    Blend: AUG-CC-PVTZ-JKFIT

    Orbital Energies [Eh]
    ---------------------

    Doubly Occupied:

       1A    -20.630632     2A    -20.570230     3A    -20.565962
       4A    -11.407206     5A    -11.403196     6A    -11.257133
       7A    -11.253738     8A     -1.483059     9A     -1.407898
      10A     -1.366727    11A     -1.056936    12A     -1.019998
      13A     -0.865064    14A     -0.743718    15A     -0.702184
      16A     -0.698830    17A     -0.683089    18A     -0.628434
      19A     -0.623126    20A     -0.601013    21A     -0.586847
      22A     -0.578555    23A     -0.557146    24A     -0.522123
      25A     -0.484959    26A     -0.481670    27A     -0.446352

  @DF-RHF Final Energy:  -379.71985433339205

   => Energetics <=

    Nuclear Repulsion Energy =            300.6419350652834623
    One-Electron Energy =               -1115.4719243317310884
    Two-Electron Energy =                 435.1101349330556332
    Total Energy =                       -379.7198543333920497
  Basis Set: (AUG-CC-PVTZ AUX)
    Blend: AUG-CC-PVTZ-RI
    Molecular point group: c1

    Geometry (in Angstrom), charge = 0, multiplicity = 1:

       Center              X                  Y                   Z               Mass
    ------------   -----------------  -----------------  -----------------  -----------------
         O           -0.010502439053    -0.694983254969     0.006802543184    15.994914619570
         O           -1.266329839053     1.143370945031    -0.617265456816    15.994914619570
         O            1.269802160947     1.143376945031     0.614774543184    15.994914619570
         C           -1.198742839053     0.032741945031    -0.148205456816    12.000000000000
         C            1.202654160947     0.032949945031     0.145162543184    12.000000000000
         C           -2.338454839053    -0.830399054969     0.308197543184    12.000000000000
         C            2.342793160947    -0.830055054969    -0.310456456816    12.000000000000
         H           -3.279635839053    -0.323143054969     0.099908543184     1.007825032230
         H           -2.242776839053    -1.019976054969     1.380356543184     1.007825032230
         H           -2.303885839053    -1.794147054969    -0.204789456816     1.007825032230
         H            2.310820160947    -1.791712054969     0.206681543184     1.007825032230
         H            3.283583160947    -0.320568054969    -0.105893456816     1.007825032230
         H            2.245241160947    -1.024353054969    -1.381564456816     1.007825032230

  Basis Set: AUG-CC-PVTZ
    Blend: AUG-CC-PVTZ
  Basis Set: (AUG-CC-PVTZ AUX)
    Blend: AUG-CC-PVTZ-JKFIT
	 Reference Energy          =    -379.7198543333920497 [Eh]
	 Singles Energy            =      -0.0000000000000000 [Eh]
	 Same-Spin Energy          =      -0.3643965535952451 [Eh]
	 Opposite-Spin Energy      =      -1.1318556514765890 [Eh]
	 Correlation Energy        =      -1.4962522050718341 [Eh]
	 Total Energy              =    -381.2161065384638619 [Eh]

	 ================> DF-SCS-MP2 Energies <==================
	-----------------------------------------------------------
	 SCS Same-Spin Scale       =       0.3333333333333333 [-]
	 SCS Opposite-Spin Scale   =       1.2000000000000000 [-]
	 SCS Same-Spin Energy      =      -0.1214655178650817 [Eh]
	 SCS Opposite-Spin Energy  =      -1.3582267817719067 [Eh]
	 SCS Correlation Energy    =      -1.4796922996369883 [Eh]
	 SCS Total Energy          =    -381.1995466330290583 [Eh]
	-----------------------------------------------------------

  Dipole Moment: [D]
     X:     0.1459      Y:    -3.7964      Z:     0.0043     Total:     3.7992

*** Psi4 exiting successfully. Buy a developer a beer!
