                               Psi4 1.3.2 release

  ==> Input File <==

--------------------------------------------------------------------------
#psi4
#
memory 32 gb

molecule  {
0 1
  O        0.0000880    -0.6211650    -0.0005950
  O       -1.2683150     1.1981060    -0.6159220
  O        1.2678170     1.1981120     0.6161180
  C       -1.2179191     0.1055369    -0.1548848
  C        1.2006690     0.0876850     0.1465060
  C       -2.3404400    -0.7756640     0.3095410
  C        2.3408080    -0.7753200    -0.3091130
  H       -3.2816210    -0.2684080     0.1012520
  H       -2.2447620    -0.9652410     1.3817000
  H       -2.3058710    -1.7394120    -0.2034460
  H        2.3088350    -1.7369770     0.2080250
  H        3.2815980    -0.2658330    -0.1045500
  H        2.2432560    -0.9696180    -1.3802210
units angstrom
no_reorient  #important for SAPT in psi4, default
symmetry c1  #important for SAPT in psi4, default
}

set PROPERTIES_ORIGIN ["COM"]
properties('MP2/aug-cc-pvtz', properties = ['dipole'])
--------------------------------------------------------------------------

    Molecular point group: c1
  Charge       = 0
  Multiplicity = 1
  Basis Set: AUG-CC-PVTZ
    Blend: AUG-CC-PVTZ
  Basis Set: (AUG-CC-PVTZ AUX)
    Blend: AUG-CC-PVTZ-JKFIT

    Orbital Energies [Eh]
    ---------------------

    Doubly Occupied:

       1A    -20.624162     2A    -20.571663     3A    -20.563277
       4A    -11.403958     5A    -11.400981     6A    -11.256803
       7A    -11.253487     8A     -1.483048     9A     -1.415604
      10A     -1.365614    11A     -1.055612    12A     -1.019662
      13A     -0.862899    14A     -0.742281    15A     -0.702688
      16A     -0.698709    17A     -0.681895    18A     -0.631603
      19A     -0.623810    20A     -0.599954    21A     -0.586531
      22A     -0.577987    23A     -0.556463    24A     -0.525644
      25A     -0.484621    26A     -0.480914    27A     -0.445965

  @DF-RHF Final Energy:  -379.72221156417760

   => Energetics <=

    Nuclear Repulsion Energy =            300.9791976327463203
    One-Electron Energy =               -1116.1711507481568333
    Two-Electron Energy =                 435.4697415512329712
    Total Energy =                       -379.7222115641775986
  Basis Set: (AUG-CC-PVTZ AUX)
    Blend: AUG-CC-PVTZ-RI
    Molecular point group: c1

    Geometry (in Angstrom), charge = 0, multiplicity = 1:

       Center              X                  Y                   Z               Mass
    ------------   -----------------  -----------------  -----------------  -----------------
         O            0.002123611464    -0.681015651250     0.000375384494    15.994914619570
         O           -1.266279388536     1.138255348750    -0.614951615506    15.994914619570
         O            1.269852611464     1.138261348750     0.617088384494    15.994914619570
         C           -1.215883488536     0.045686248750    -0.153914415506    12.000000000000
         C            1.202704611464     0.027834348750     0.147476384494    12.000000000000
         C           -2.338404388536    -0.835514651250     0.310511384494    12.000000000000
         C            2.342843611464    -0.835170651250    -0.308142615506    12.000000000000
         H           -3.279585388536    -0.328258651250     0.102222384494     1.007825032230
         H           -2.242726388536    -1.025091651250     1.382670384494     1.007825032230
         H           -2.303835388536    -1.799262651250    -0.202475615506     1.007825032230
         H            2.310870611464    -1.796827651250     0.208995384494     1.007825032230
         H            3.283633611464    -0.325683651250    -0.103579615506     1.007825032230
         H            2.245291611464    -1.029468651250    -1.379250615506     1.007825032230

  Basis Set: AUG-CC-PVTZ
    Blend: AUG-CC-PVTZ
  Basis Set: (AUG-CC-PVTZ AUX)
    Blend: AUG-CC-PVTZ-JKFIT
	 Reference Energy          =    -379.7222115641775986 [Eh]
	 Singles Energy            =      -0.0000000000000000 [Eh]
	 Same-Spin Energy          =      -0.3638038184705570 [Eh]
	 Opposite-Spin Energy      =      -1.1303701350057080 [Eh]
	 Correlation Energy        =      -1.4941739534762650 [Eh]
	 Total Energy              =    -381.2163855176538618 [Eh]

	 ================> DF-SCS-MP2 Energies <==================
	-----------------------------------------------------------
	 SCS Same-Spin Scale       =       0.3333333333333333 [-]
	 SCS Opposite-Spin Scale   =       1.2000000000000000 [-]
	 SCS Same-Spin Energy      =      -0.1212679394901857 [Eh]
	 SCS Opposite-Spin Energy  =      -1.3564441620068497 [Eh]
	 SCS Correlation Energy    =      -1.4777121014970354 [Eh]
	 SCS Total Energy          =    -381.1999236656746461 [Eh]
	-----------------------------------------------------------

  Dipole Moment: [D]
     X:    -0.2262      Y:    -3.7467      Z:    -0.0561     Total:     3.7540

*** Psi4 exiting successfully. Buy a developer a beer!
