                               Psi4 1.3.2 release

  ==> Input File <==

--------------------------------------------------------------------------
#psi4
#
memory 32 gb

molecule  {
0 1
  O        0.0000880    -0.6211650    -0.0005950
  O       -1.2683150     1.1981060    -0.6159220
  O        1.2678170     1.1981120     0.6161180
  C       -1.1673924     0.0505740    -0.1304018
  C        1.2006690     0.0876850     0.1465060
  C       -2.3404400    -0.7756640     0.3095410
  C        2.3408080    -0.7753200    -0.3091130
  H       -3.2816210    -0.2684080     0.1012520
  H       -2.2447620    -0.9652410     1.3817000
  H       -2.3058710    -1.7394120    -0.2034460
  H        2.3088350    -1.7369770     0.2080250
  H        3.2815980    -0.2658330    -0.1045500
  H        2.2432560    -0.9696180    -1.3802210
units angstrom
no_reorient  #important for SAPT in psi4, default
symmetry c1  #important for SAPT in psi4, default
}

set PROPERTIES_ORIGIN ["COM"]
properties('MP2/aug-cc-pvtz', properties = ['dipole'])
--------------------------------------------------------------------------

    Molecular point group: c1
  Charge       = 0
  Multiplicity = 1
  Basis Set: AUG-CC-PVTZ
    Blend: AUG-CC-PVTZ
  Basis Set: (AUG-CC-PVTZ AUX)
    Blend: AUG-CC-PVTZ-JKFIT

    Orbital Energies [Eh]
    ---------------------

    Doubly Occupied:

       1A    -20.642619     2A    -20.572409     3A    -20.555653
       4A    -11.411375     5A    -11.405616     6A    -11.260267
       7A    -11.254439     8A     -1.502195     9A     -1.401035
      10A     -1.352918    11A     -1.063853    12A     -1.022099
      13A     -0.886506    14A     -0.744986    15A     -0.709706
      16A     -0.697815    17A     -0.691143    18A     -0.626362
      19A     -0.620844    20A     -0.602079    21A     -0.584459
      22A     -0.578202    23A     -0.563608    24A     -0.517093
      25A     -0.482320    26A     -0.473988    27A     -0.444781

  @DF-RHF Final Energy:  -379.71562614989153

   => Energetics <=

    Nuclear Repulsion Energy =            301.2551245816701453
    One-Electron Energy =               -1116.6047559710386849
    Two-Electron Energy =                 435.6340052394770623
    Total Energy =                       -379.7156261498915342
  Basis Set: (AUG-CC-PVTZ AUX)
    Blend: AUG-CC-PVTZ-RI
    Molecular point group: c1

    Geometry (in Angstrom), charge = 0, multiplicity = 1:

       Center              X                  Y                   Z               Mass
    ------------   -----------------  -----------------  -----------------  -----------------
         O           -0.003818859703    -0.674551436320    -0.002504073724    15.994914619570
         O           -1.272221859703     1.144719563680    -0.617831073724    15.994914619570
         O            1.263910140297     1.144725563680     0.614208926276    15.994914619570
         C           -1.171299259703    -0.002812436320    -0.132310873724    12.000000000000
         C            1.196762140297     0.034298563680     0.144596926276    12.000000000000
         C           -2.344346859703    -0.829050436320     0.307631926276    12.000000000000
         C            2.336901140297    -0.828706436320    -0.311022073724    12.000000000000
         H           -3.285527859703    -0.321794436320     0.099342926276     1.007825032230
         H           -2.248668859703    -1.018627436320     1.379790926276     1.007825032230
         H           -2.309777859703    -1.792798436320    -0.205355073724     1.007825032230
         H            2.304928140297    -1.790363436320     0.206115926276     1.007825032230
         H            3.277691140297    -0.319219436320    -0.106459073724     1.007825032230
         H            2.239349140297    -1.023004436320    -1.382130073724     1.007825032230

  Basis Set: AUG-CC-PVTZ
    Blend: AUG-CC-PVTZ
  Basis Set: (AUG-CC-PVTZ AUX)
    Blend: AUG-CC-PVTZ-JKFIT
	 Reference Energy          =    -379.7156261498915342 [Eh]
	 Singles Energy            =      -0.0000000000000000 [Eh]
	 Same-Spin Energy          =      -0.3647024582308324 [Eh]
	 Opposite-Spin Energy      =      -1.1322964756117195 [Eh]
	 Correlation Energy        =      -1.4969989338425520 [Eh]
	 Total Energy              =    -381.2126250837341104 [Eh]

	 ================> DF-SCS-MP2 Energies <==================
	-----------------------------------------------------------
	 SCS Same-Spin Scale       =       0.3333333333333333 [-]
	 SCS Opposite-Spin Scale   =       1.2000000000000000 [-]
	 SCS Same-Spin Energy      =      -0.1215674860769441 [Eh]
	 SCS Opposite-Spin Energy  =      -1.3587557707340634 [Eh]
	 SCS Correlation Energy    =      -1.4803232568110076 [Eh]
	 SCS Total Energy          =    -381.1959494067025389 [Eh]
	-----------------------------------------------------------

  Dipole Moment: [D]
     X:     0.4305      Y:    -4.0864      Z:     0.1120     Total:     4.1106

*** Psi4 exiting successfully. Buy a developer a beer!
