                               Psi4 1.3.2 release

  ==> Input File <==

--------------------------------------------------------------------------
#psi4
#
memory 32 gb

molecule  {
0 1
  O        0.0000880    -0.6211650    -0.0005950
  O       -1.2683150     1.1981060    -0.6159220
  O        1.2678170     1.1981120     0.6161180
  C       -1.0294242    -0.0136151    -0.1259961
  C        1.2006690     0.0876850     0.1465060
  C       -2.3404400    -0.7756640     0.3095410
  C        2.3408080    -0.7753200    -0.3091130
  H       -3.2816210    -0.2684080     0.1012520
  H       -2.2447620    -0.9652410     1.3817000
  H       -2.3058710    -1.7394120    -0.2034460
  H        2.3088350    -1.7369770     0.2080250
  H        3.2815980    -0.2658330    -0.1045500
  H        2.2432560    -0.9696180    -1.3802210
units angstrom
no_reorient  #important for SAPT in psi4, default
symmetry c1  #important for SAPT in psi4, default
}

set PROPERTIES_ORIGIN ["COM"]
properties('MP2/aug-cc-pvtz', properties = ['dipole'])
--------------------------------------------------------------------------

    Molecular point group: c1
  Charge       = 0
  Multiplicity = 1
  Basis Set: AUG-CC-PVTZ
    Blend: AUG-CC-PVTZ
  Basis Set: (AUG-CC-PVTZ AUX)
    Blend: AUG-CC-PVTZ-JKFIT

    Orbital Energies [Eh]
    ---------------------

    Doubly Occupied:

       1A    -20.676760     2A    -20.593672     3A    -20.527293
       4A    -11.432259     5A    -11.402708     6A    -11.273898
       7A    -11.247499     8A     -1.581417     9A     -1.424957
      10A     -1.297504    11A     -1.086128    12A     -1.008431
      13A     -0.929556    14A     -0.776025    15A     -0.737015
      16A     -0.731434    17A     -0.675865    18A     -0.640054
      19A     -0.626473    20A     -0.606511    21A     -0.580704
      22A     -0.574320    23A     -0.542310    24A     -0.526800
      25A     -0.494094    26A     -0.440508    27A     -0.418233

  @DF-RHF Final Energy:  -379.66672903634827

   => Energetics <=

    Nuclear Repulsion Energy =            302.7744477959993787
    One-Electron Energy =               -1119.1774994255099500
    Two-Electron Energy =                 436.7363225931623560
    Total Energy =                       -379.6667290363482721
  Basis Set: (AUG-CC-PVTZ AUX)
    Blend: AUG-CC-PVTZ-RI
    Molecular point group: c1

    Geometry (in Angstrom), charge = 0, multiplicity = 1:

       Center              X                  Y                   Z               Mass
    ------------   -----------------  -----------------  -----------------  -----------------
         O           -0.020045370645    -0.667002123265    -0.003022230367    15.994914619570
         O           -1.288448370645     1.152268876735    -0.618349230367    15.994914619570
         O            1.247683629355     1.152274876735     0.613690769633    15.994914619570
         C           -1.049557570645    -0.059452223265    -0.128423330367    12.000000000000
         C            1.180535629355     0.041847876735     0.144078769633    12.000000000000
         C           -2.360573370645    -0.821501123265     0.307113769633    12.000000000000
         C            2.320674629355    -0.821157123265    -0.311540230367    12.000000000000
         H           -3.301754370645    -0.314245123265     0.098824769633     1.007825032230
         H           -2.264895370645    -1.011078123265     1.379272769633     1.007825032230
         H           -2.326004370645    -1.785249123265    -0.205873230367     1.007825032230
         H            2.288701629355    -1.782814123265     0.205597769633     1.007825032230
         H            3.261464629355    -0.311670123265    -0.106977230367     1.007825032230
         H            2.223122629355    -1.015455123265    -1.382648230367     1.007825032230

  Basis Set: AUG-CC-PVTZ
    Blend: AUG-CC-PVTZ
  Basis Set: (AUG-CC-PVTZ AUX)
    Blend: AUG-CC-PVTZ-JKFIT
	 Reference Energy          =    -379.6667290363482721 [Eh]
	 Singles Energy            =      -0.0000000000000000 [Eh]
	 Same-Spin Energy          =      -0.3657961115345362 [Eh]
	 Opposite-Spin Energy      =      -1.1345338181511981 [Eh]
	 Correlation Energy        =      -1.5003299296857344 [Eh]
	 Total Energy              =    -381.1670589660340056 [Eh]

	 ================> DF-SCS-MP2 Energies <==================
	-----------------------------------------------------------
	 SCS Same-Spin Scale       =       0.3333333333333333 [-]
	 SCS Opposite-Spin Scale   =       1.2000000000000000 [-]
	 SCS Same-Spin Energy      =      -0.1219320371781787 [Eh]
	 SCS Opposite-Spin Energy  =      -1.3614405817814377 [Eh]
	 SCS Correlation Energy    =      -1.4833726189596164 [Eh]
	 SCS Total Energy          =    -381.1501016553078784 [Eh]
	-----------------------------------------------------------

  Dipole Moment: [D]
     X:     1.8906      Y:    -4.4679      Z:     0.2890     Total:     4.8600

*** Psi4 exiting successfully. Buy a developer a beer!
