                               Psi4 1.4a3.dev225

  ==> Input File <==

--------------------------------------------------------------------------
#psi4
#
memory 32 gb

molecule  {
0 1
  O        0.0000060    -0.6211290    -0.0000190
  O       -1.2681660     1.1980960    -0.6161090
  O        1.2681470     1.1980900     0.6161180
  C       -1.2007670     0.0876200    -0.1466910
  C        1.2007550     0.0876130     0.1466860
  C       -2.3254526    -0.7640264     0.3033180
  C        2.3406600    -0.7755100    -0.3093860
  H       -3.2816790    -0.2673730     0.1026340
  H       -2.2442300    -0.9671190     1.3811090
  H       -2.3071230    -1.7383610    -0.2054080
  H        2.3071510    -1.7383490     0.2054030
  H        3.2816780    -0.2673330    -0.1025910
  H        2.2442800    -0.9670870    -1.3811040
units angstrom
no_reorient  #important for SAPT in psi4, default
symmetry c1  #important for SAPT in psi4, default
}

set PROPERTIES_ORIGIN ["COM"]
properties('MP2/aug-cc-pvtz', properties = ['dipole'])
--------------------------------------------------------------------------

    Molecular point group: c1
  Charge       = 0
  Multiplicity = 1
  Basis Set: AUG-CC-PVTZ
    Blend: AUG-CC-PVTZ
  Basis Set: (AUG-CC-PVTZ AUX)
    Blend: AUG-CC-PVTZ-JKFIT

    Orbital Energies [Eh]
    ---------------------

    Doubly Occupied:

       1A    -20.630368     2A    -20.566295     3A    -20.566106
       4A    -11.404433     5A    -11.403816     6A    -11.256167
       7A    -11.255744     8A     -1.487433     9A     -1.407145
      10A     -1.366734    11A     -1.059949    12A     -1.021699
      13A     -0.870141    14A     -0.742739    15A     -0.704925
      16A     -0.699656    17A     -0.685343    18A     -0.629612
      19A     -0.622980    20A     -0.599987    21A     -0.585445
      22A     -0.577467    23A     -0.557034    24A     -0.520138
      25A     -0.483403    26A     -0.481398    27A     -0.447603

  @DF-RHF Final Energy:  -379.72121700869127

   => Energetics <=

    Nuclear Repulsion Energy =            301.3986185115550143
    One-Electron Energy =               -1116.9721491725376836
    Two-Electron Energy =                 435.8523136522914001
    Total Energy =                       -379.7212170086912693
  Basis Set: (AUG-CC-PVTZ AUX)
    Blend: AUG-CC-PVTZ-RI
    Molecular point group: c1

    Geometry (in Angstrom), charge = 0, multiplicity = 1:

       Center              X                  Y                   Z               Mass
    ------------   -----------------  -----------------  -----------------  -----------------
         O           -0.001779861446    -0.680209638934     0.000696391559    15.994914619570
         O           -1.269951861446     1.139015361066    -0.615393608441    15.994914619570
         O            1.266361138554     1.139009361066     0.616833391559    15.994914619570
         C           -1.202552861446     0.028539361066    -0.145975608441    12.000000000000
         C            1.198969138554     0.028532361066     0.147401391559    12.000000000000
         C           -2.327238461446    -0.823107038934     0.304033391559    12.000000000000
         C            2.338874138554    -0.834590638934    -0.308670608441    12.000000000000
         H           -3.283464861446    -0.326453638934     0.103349391559     1.007825032230
         H           -2.246015861446    -1.026199638934     1.381824391559     1.007825032230
         H           -2.308908861446    -1.797441638934    -0.204692608441     1.007825032230
         H            2.305365138554    -1.797429638934     0.206118391559     1.007825032230
         H            3.279892138554    -0.326413638934    -0.101875608441     1.007825032230
         H            2.242494138554    -1.026167638934    -1.380388608441     1.007825032230

  Basis Set: AUG-CC-PVTZ
    Blend: AUG-CC-PVTZ
  Basis Set: (AUG-CC-PVTZ AUX)
    Blend: AUG-CC-PVTZ-JKFIT
	 Reference Energy          =    -379.7212170086912693 [Eh]
	 Singles Energy            =      -0.0000000000000000 [Eh]
	 Same-Spin Energy          =      -0.3642021506034223 [Eh]
	 Opposite-Spin Energy      =      -1.1310532900535115 [Eh]
	 Correlation Energy        =      -1.4952554406569338 [Eh]
	 Total Energy              =    -381.2164724493482026 [Eh]

	 ================> DF-SCS-MP2 Energies <==================
	-----------------------------------------------------------
	 SCS Same-Spin Scale       =       0.3333333333333333 [-]
	 SCS Opposite-Spin Scale   =       1.2000000000000000 [-]
	 SCS Same-Spin Energy      =      -0.1214007168678074 [Eh]
	 SCS Opposite-Spin Energy  =      -1.3572639480642137 [Eh]
	 SCS Correlation Energy    =      -1.4786646649320212 [Eh]
	 SCS Total Energy          =    -381.1998816736232811 [Eh]
	-----------------------------------------------------------

  Dipole Moment: [D]
     X:    -0.0238      Y:    -3.8804      Z:     0.0094     Total:     3.8805

*** Psi4 exiting successfully. Buy a developer a beer!
