                               Psi4 1.3.2 release

  ==> Input File <==

--------------------------------------------------------------------------
#psi4
#
memory 32 gb

molecule  {
0 1
  O        0.0000880    -0.6211650    -0.0005950
  O       -1.2683150     1.1981060    -0.6159220
  O        1.2678170     1.1981120     0.6161180
  C       -1.2245421     0.0448277    -0.1497972
  C        1.2006690     0.0876850     0.1465060
  C       -2.3404400    -0.7756640     0.3095410
  C        2.3408080    -0.7753200    -0.3091130
  H       -3.2816210    -0.2684080     0.1012520
  H       -2.2447620    -0.9652410     1.3817000
  H       -2.3058710    -1.7394120    -0.2034460
  H        2.3088350    -1.7369770     0.2080250
  H        3.2815980    -0.2658330    -0.1045500
  H        2.2432560    -0.9696180    -1.3802210
units angstrom
no_reorient  #important for SAPT in psi4, default
symmetry c1  #important for SAPT in psi4, default
}

set PROPERTIES_ORIGIN ["COM"]
properties('MP2/aug-cc-pvtz', properties = ['dipole'])
--------------------------------------------------------------------------

    Molecular point group: c1
  Charge       = 0
  Multiplicity = 1
  Basis Set: AUG-CC-PVTZ
    Blend: AUG-CC-PVTZ
  Basis Set: (AUG-CC-PVTZ AUX)
    Blend: AUG-CC-PVTZ-JKFIT

    Orbital Energies [Eh]
    ---------------------

    Doubly Occupied:

       1A    -20.630674     2A    -20.565601     3A    -20.562355
       4A    -11.408786     5A    -11.404859     6A    -11.258198
       7A    -11.256012     8A     -1.483130     9A     -1.396287
      10A     -1.352868    11A     -1.067040    12A     -1.026962
      13A     -0.873210    14A     -0.740381    15A     -0.702321
      16A     -0.697452    17A     -0.683442    18A     -0.628733
      19A     -0.623151    20A     -0.604994    21A     -0.584331
      22A     -0.577731    23A     -0.559425    24A     -0.513436
      25A     -0.478914    26A     -0.475228    27A     -0.447729

  @DF-RHF Final Energy:  -379.71419245557638

   => Energetics <=

    Nuclear Repulsion Energy =            300.6453384349452449
    One-Electron Energy =               -1115.5125619344946699
    Two-Electron Energy =                 435.1530310439731011
    Total Energy =                       -379.7141924555763808
  Basis Set: (AUG-CC-PVTZ AUX)
    Blend: AUG-CC-PVTZ-RI
    Molecular point group: c1

    Geometry (in Angstrom), charge = 0, multiplicity = 1:

       Center              X                  Y                   Z               Mass
    ------------   -----------------  -----------------  -----------------  -----------------
         O            0.002902545899    -0.673875611023    -0.000222970758    15.994914619570
         O           -1.265500454101     1.145395388977    -0.615549970758    15.994914619570
         O            1.270631545899     1.145401388977     0.616490029242    15.994914619570
         C           -1.221727554101    -0.007882911023    -0.149425170758    12.000000000000
         C            1.203483545899     0.034974388977     0.146878029242    12.000000000000
         C           -2.337625454101    -0.828374611023     0.309913029242    12.000000000000
         C            2.343622545899    -0.828030611023    -0.308740970758    12.000000000000
         H           -3.278806454101    -0.321118611023     0.101624029242     1.007825032230
         H           -2.241947454101    -1.017951611023     1.382072029242     1.007825032230
         H           -2.303056454101    -1.792122611023    -0.203073970758     1.007825032230
         H            2.311649545899    -1.789687611023     0.208397029242     1.007825032230
         H            3.284412545899    -0.318543611023    -0.104177970758     1.007825032230
         H            2.246070545899    -1.022328611023    -1.379848970758     1.007825032230

  Basis Set: AUG-CC-PVTZ
    Blend: AUG-CC-PVTZ
  Basis Set: (AUG-CC-PVTZ AUX)
    Blend: AUG-CC-PVTZ-JKFIT
	 Reference Energy          =    -379.7141924555763808 [Eh]
	 Singles Energy            =      -0.0000000000000000 [Eh]
	 Same-Spin Energy          =      -0.3652602103924784 [Eh]
	 Opposite-Spin Energy      =      -1.1331684115348764 [Eh]
	 Correlation Energy        =      -1.4984286219273546 [Eh]
	 Total Energy              =    -381.2126210775037407 [Eh]

	 ================> DF-SCS-MP2 Energies <==================
	-----------------------------------------------------------
	 SCS Same-Spin Scale       =       0.3333333333333333 [-]
	 SCS Opposite-Spin Scale   =       1.2000000000000000 [-]
	 SCS Same-Spin Energy      =      -0.1217534034641594 [Eh]
	 SCS Opposite-Spin Energy  =      -1.3598020938418516 [Eh]
	 SCS Correlation Energy    =      -1.4815554973060110 [Eh]
	 SCS Total Energy          =    -381.1957479528824138 [Eh]
	-----------------------------------------------------------

  Dipole Moment: [D]
     X:    -0.0957      Y:    -4.0612      Z:     0.0816     Total:     4.0631

*** Psi4 exiting successfully. Buy a developer a beer!
