                               Psi4 1.3.2 release

  ==> Input File <==

--------------------------------------------------------------------------
#psi4
#
memory 32 gb

molecule  {
0 1
  O        0.0241382    -0.5823570    -0.0182080
  O       -1.2683150     1.1981060    -0.6159220
  O        1.2678170     1.1981120     0.6161180
  C       -1.2007280     0.0874770    -0.1468620
  C        1.2006690     0.0876850     0.1465060
  C       -2.3404400    -0.7756640     0.3095410
  C        2.3408080    -0.7753200    -0.3091130
  H       -3.2816210    -0.2684080     0.1012520
  H       -2.2447620    -0.9652410     1.3817000
  H       -2.3058710    -1.7394120    -0.2034460
  H        2.3088350    -1.7369770     0.2080250
  H        3.2815980    -0.2658330    -0.1045500
  H        2.2432560    -0.9696180    -1.3802210
units angstrom
no_reorient  #important for SAPT in psi4, default
symmetry c1  #important for SAPT in psi4, default
}

set PROPERTIES_ORIGIN ["COM"]
properties('MP2/aug-cc-pvtz', properties = ['dipole'])
--------------------------------------------------------------------------

    Molecular point group: c1
  Charge       = 0
  Multiplicity = 1
  Basis Set: AUG-CC-PVTZ
    Blend: AUG-CC-PVTZ
  Basis Set: (AUG-CC-PVTZ AUX)
    Blend: AUG-CC-PVTZ-JKFIT

    Orbital Energies [Eh]
    ---------------------

    Doubly Occupied:

       1A    -20.630292     2A    -20.567237     3A    -20.558411
       4A    -11.407281     5A    -11.399076     6A    -11.259944
       7A    -11.253254     8A     -1.496522     9A     -1.405924
      10A     -1.365848    11A     -1.060429    12A     -1.021574
      13A     -0.881933    14A     -0.739884    15A     -0.707538
      16A     -0.698981    17A     -0.688722    18A     -0.628936
      19A     -0.622715    20A     -0.600909    21A     -0.583299
      22A     -0.580316    23A     -0.561156    24A     -0.519275
      25A     -0.480765    26A     -0.479958    27A     -0.446319

  @DF-RHF Final Energy:  -379.72354323090764

   => Energetics <=

    Nuclear Repulsion Energy =            301.9115189890741817
    One-Electron Energy =               -1117.9771320960521734
    Two-Electron Energy =                 436.3420698760702976
    Total Energy =                       -379.7235432309076373
  Basis Set: (AUG-CC-PVTZ AUX)
    Blend: AUG-CC-PVTZ-RI
    Molecular point group: c1

    Geometry (in Angstrom), charge = 0, multiplicity = 1:

       Center              X                  Y                   Z               Mass
    ------------   -----------------  -----------------  -----------------  -----------------
         O            0.020381747526    -0.646167321334    -0.015420093677    15.994914619570
         O           -1.272071452474     1.134295678666    -0.613134093677    15.994914619570
         O            1.264060547526     1.134301678666     0.618905906323    15.994914619570
         C           -1.204484452474     0.023666678666    -0.144074093677    12.000000000000
         C            1.196912547526     0.023874678666     0.149293906323    12.000000000000
         C           -2.344196452474    -0.839474321334     0.312328906323    12.000000000000
         C            2.337051547526    -0.839130321334    -0.306325093677    12.000000000000
         H           -3.285377452474    -0.332218321334     0.104039906323     1.007825032230
         H           -2.248518452474    -1.029051321334     1.384487906323     1.007825032230
         H           -2.309627452474    -1.803222321334    -0.200658093677     1.007825032230
         H            2.305078547526    -1.800787321334     0.210812906323     1.007825032230
         H            3.277841547526    -0.329643321334    -0.101762093677     1.007825032230
         H            2.239499547526    -1.033428321334    -1.377433093677     1.007825032230

  Basis Set: AUG-CC-PVTZ
    Blend: AUG-CC-PVTZ
  Basis Set: (AUG-CC-PVTZ AUX)
    Blend: AUG-CC-PVTZ-JKFIT
	 Reference Energy          =    -379.7235432309076373 [Eh]
	 Singles Energy            =      -0.0000000000000000 [Eh]
	 Same-Spin Energy          =      -0.3634622777972762 [Eh]
	 Opposite-Spin Energy      =      -1.1292864936237121 [Eh]
	 Correlation Energy        =      -1.4927487714209884 [Eh]
	 Total Energy              =    -381.2162920023286006 [Eh]

	 ================> DF-SCS-MP2 Energies <==================
	-----------------------------------------------------------
	 SCS Same-Spin Scale       =       0.3333333333333333 [-]
	 SCS Opposite-Spin Scale   =       1.2000000000000000 [-]
	 SCS Same-Spin Energy      =      -0.1211540925990921 [Eh]
	 SCS Opposite-Spin Energy  =      -1.3551437923484546 [Eh]
	 SCS Correlation Energy    =      -1.4762978849475468 [Eh]
	 SCS Total Energy          =    -381.1998411158551789 [Eh]
	-----------------------------------------------------------

  Dipole Moment: [D]
     X:    -0.2877      Y:    -3.9960      Z:    -0.0084     Total:     4.0063

*** Psi4 exiting successfully. Buy a developer a beer!
