                               Psi4 1.3.2 release

  ==> Input File <==

--------------------------------------------------------------------------
#psi4
#
memory 32 gb

molecule  {
0 1
  O        0.0000880    -0.6211650    -0.0005950
  O       -1.2683150     1.1981060    -0.6159220
  O        1.2678170     1.1981120     0.6161180
  C       -1.2007280     0.0874770    -0.1468620
  C        1.2006690     0.0876850     0.1465060
  C       -2.4163827    -0.8331779     0.3399526
  C        2.3408080    -0.7753200    -0.3091130
  H       -3.2816210    -0.2684080     0.1012520
  H       -2.2447620    -0.9652410     1.3817000
  H       -2.3058710    -1.7394120    -0.2034460
  H        2.3088350    -1.7369770     0.2080250
  H        3.2815980    -0.2658330    -0.1045500
  H        2.2432560    -0.9696180    -1.3802210
units angstrom
no_reorient  #important for SAPT in psi4, default
symmetry c1  #important for SAPT in psi4, default
}

set PROPERTIES_ORIGIN ["COM"]
properties('MP2/aug-cc-pvtz', properties = ['dipole'])
--------------------------------------------------------------------------

    Molecular point group: c1
  Charge       = 0
  Multiplicity = 1
  Basis Set: AUG-CC-PVTZ
    Blend: AUG-CC-PVTZ
  Basis Set: (AUG-CC-PVTZ AUX)
    Blend: AUG-CC-PVTZ-JKFIT

    Orbital Energies [Eh]
    ---------------------

    Doubly Occupied:

       1A    -20.631283     2A    -20.567243     3A    -20.566512
       4A    -11.406562     5A    -11.404678     6A    -11.255966
       7A    -11.255807     8A     -1.486368     9A     -1.406311
      10A     -1.366451    11A     -1.051310    12A     -1.014951
      13A     -0.872594    14A     -0.740831    15A     -0.701176
      16A     -0.693748    17A     -0.683172    18A     -0.628291
      19A     -0.620272    20A     -0.607025    21A     -0.586690
      22A     -0.586150    23A     -0.562127    24A     -0.524064
      25A     -0.484023    26A     -0.480036    27A     -0.438969

  @DF-RHF Final Energy:  -379.71395031260090

   => Energetics <=

    Nuclear Repulsion Energy =            299.4067395685050883
    One-Electron Energy =               -1112.9961600295082462
    Two-Electron Energy =                 433.8754701484022007
    Total Energy =                       -379.7139503126009004
  Basis Set: (AUG-CC-PVTZ AUX)
    Blend: AUG-CC-PVTZ-RI
    Molecular point group: c1

    Geometry (in Angstrom), charge = 0, multiplicity = 1:

       Center              X                  Y                   Z               Mass
    ------------   -----------------  -----------------  -----------------  -----------------
         O            0.009033417349    -0.672127377774    -0.004144905052    15.994914619570
         O           -1.259369582651     1.147143622226    -0.619471905052    15.994914619570
         O            1.276762417349     1.147149622226     0.612568094948    15.994914619570
         C           -1.191782582651     0.036514622226    -0.150411905052    12.000000000000
         C            1.209614417349     0.036722622226     0.142956094948    12.000000000000
         C           -2.407437282651    -0.884140277774     0.336402694948    12.000000000000
         C            2.349753417349    -0.826282377774    -0.312662905052    12.000000000000
         H           -3.272675582651    -0.319370377774     0.097702094948     1.007825032230
         H           -2.235816582651    -1.016203377774     1.378150094948     1.007825032230
         H           -2.296925582651    -1.790374377774    -0.206995905052     1.007825032230
         H            2.317780417349    -1.787939377774     0.204475094948     1.007825032230
         H            3.290543417349    -0.316795377774    -0.108099905052     1.007825032230
         H            2.252201417349    -1.020580377774    -1.383770905052     1.007825032230

  Basis Set: AUG-CC-PVTZ
    Blend: AUG-CC-PVTZ
  Basis Set: (AUG-CC-PVTZ AUX)
    Blend: AUG-CC-PVTZ-JKFIT
	 Reference Energy          =    -379.7139503126009004 [Eh]
	 Singles Energy            =      -0.0000000000000000 [Eh]
	 Same-Spin Energy          =      -0.3637732268504036 [Eh]
	 Opposite-Spin Energy      =      -1.1311670331585906 [Eh]
	 Correlation Energy        =      -1.4949402600089940 [Eh]
	 Total Energy              =    -381.2088905726099028 [Eh]

	 ================> DF-SCS-MP2 Energies <==================
	-----------------------------------------------------------
	 SCS Same-Spin Scale       =       0.3333333333333333 [-]
	 SCS Opposite-Spin Scale   =       1.2000000000000000 [-]
	 SCS Same-Spin Energy      =      -0.1212577422834679 [Eh]
	 SCS Opposite-Spin Energy  =      -1.3574004397903086 [Eh]
	 SCS Correlation Energy    =      -1.4786581820737763 [Eh]
	 SCS Total Energy          =    -381.1926084946746869 [Eh]
	-----------------------------------------------------------

  Dipole Moment: [D]
     X:     0.1049      Y:    -3.7773      Z:    -0.0408     Total:     3.7789

*** Psi4 exiting successfully. Buy a developer a beer!
