                               Psi4 1.3.2 release

  ==> Input File <==

--------------------------------------------------------------------------
#psi4
#
memory 32 gb

molecule  {
0 1
  O        0.0000880    -0.6211650    -0.0005950
  O       -1.2683150     1.1981060    -0.6159220
  O        1.2678170     1.1981120     0.6161180
  C       -1.2863799     0.1380231    -0.1572949
  C        1.2006690     0.0876850     0.1465060
  C       -2.3404400    -0.7756640     0.3095410
  C        2.3408080    -0.7753200    -0.3091130
  H       -3.2816210    -0.2684080     0.1012520
  H       -2.2447620    -0.9652410     1.3817000
  H       -2.3058710    -1.7394120    -0.2034460
  H        2.3088350    -1.7369770     0.2080250
  H        3.2815980    -0.2658330    -0.1045500
  H        2.2432560    -0.9696180    -1.3802210
units angstrom
no_reorient  #important for SAPT in psi4, default
symmetry c1  #important for SAPT in psi4, default
}

set PROPERTIES_ORIGIN ["COM"]
properties('MP2/aug-cc-pvtz', properties = ['dipole'])
--------------------------------------------------------------------------

    Molecular point group: c1
  Charge       = 0
  Multiplicity = 1
  Basis Set: AUG-CC-PVTZ
    Blend: AUG-CC-PVTZ
  Basis Set: (AUG-CC-PVTZ AUX)
    Blend: AUG-CC-PVTZ-JKFIT

    Orbital Energies [Eh]
    ---------------------

    Doubly Occupied:

       1A    -20.603886     2A    -20.585290     3A    -20.553126
       4A    -11.406479     5A    -11.390151     6A    -11.262748
       7A    -11.246307     8A     -1.482001     9A     -1.422943
      10A     -1.348758    11A     -1.060132    12A     -1.017984
      13A     -0.841987    14A     -0.745261    15A     -0.701883
      16A     -0.692799    17A     -0.675418    18A     -0.639904
      19A     -0.627044    20A     -0.600982    21A     -0.585064
      22A     -0.573091    23A     -0.554824    24A     -0.532342
      25A     -0.477114    26A     -0.476596    27A     -0.441612

  @DF-RHF Final Energy:  -379.71449298271654

   => Energetics <=

    Nuclear Repulsion Energy =            300.4782575553312540
    One-Electron Energy =               -1115.2940501014879828
    Two-Electron Energy =                 435.1012995634401364
    Total Energy =                       -379.7144929827165356
  Basis Set: (AUG-CC-PVTZ AUX)
    Blend: AUG-CC-PVTZ-RI
    Molecular point group: c1

    Geometry (in Angstrom), charge = 0, multiplicity = 1:

       Center              X                  Y                   Z               Mass
    ------------   -----------------  -----------------  -----------------  -----------------
         O            0.010175321353    -0.684836369936     0.000658837595    15.994914619570
         O           -1.258227678647     1.134434630064    -0.614668162405    15.994914619570
         O            1.277904321353     1.134440630064     0.617371837595    15.994914619570
         C           -1.276292578647     0.074351730064    -0.156041062405    12.000000000000
         C            1.210756321353     0.024013630064     0.147759837595    12.000000000000
         C           -2.330352678647    -0.839335369936     0.310794837595    12.000000000000
         C            2.350895321353    -0.838991369936    -0.307859162405    12.000000000000
         H           -3.271533678647    -0.332079369936     0.102505837595     1.007825032230
         H           -2.234674678647    -1.028912369936     1.382953837595     1.007825032230
         H           -2.295783678647    -1.803083369936    -0.202192162405     1.007825032230
         H            2.318922321353    -1.800648369936     0.209278837595     1.007825032230
         H            3.291685321353    -0.329504369936    -0.103296162405     1.007825032230
         H            2.253343321353    -1.033289369936    -1.378967162405     1.007825032230

  Basis Set: AUG-CC-PVTZ
    Blend: AUG-CC-PVTZ
  Basis Set: (AUG-CC-PVTZ AUX)
    Blend: AUG-CC-PVTZ-JKFIT
	 Reference Energy          =    -379.7144929827165356 [Eh]
	 Singles Energy            =      -0.0000000000000000 [Eh]
	 Same-Spin Energy          =      -0.3641499369965169 [Eh]
	 Opposite-Spin Energy      =      -1.1306539486311451 [Eh]
	 Correlation Energy        =      -1.4948038856276620 [Eh]
	 Total Energy              =    -381.2092968683442109 [Eh]

	 ================> DF-SCS-MP2 Energies <==================
	-----------------------------------------------------------
	 SCS Same-Spin Scale       =       0.3333333333333333 [-]
	 SCS Opposite-Spin Scale   =       1.2000000000000000 [-]
	 SCS Same-Spin Energy      =      -0.1213833123321723 [Eh]
	 SCS Opposite-Spin Energy  =      -1.3567847383573741 [Eh]
	 SCS Correlation Energy    =      -1.4781680506895465 [Eh]
	 SCS Total Energy          =    -381.1926610334060683 [Eh]
	-----------------------------------------------------------

  Dipole Moment: [D]
     X:    -1.0218      Y:    -3.5435      Z:    -0.1416     Total:     3.6906

*** Psi4 exiting successfully. Buy a developer a beer!
