                               Psi4 1.3.2 release

  ==> Input File <==

--------------------------------------------------------------------------
#psi4
#
memory 32 gb

molecule  {
0 1
  O        0.0000880    -0.6211650    -0.0005950
  O       -1.2683150     1.1981060    -0.6159220
  O        1.2678170     1.1981120     0.6161180
  C       -1.1882704     0.1084811    -0.1453273
  C        1.2006690     0.0876850     0.1465060
  C       -2.3404400    -0.7756640     0.3095410
  C        2.3408080    -0.7753200    -0.3091130
  H       -3.2816210    -0.2684080     0.1012520
  H       -2.2447620    -0.9652410     1.3817000
  H       -2.3058710    -1.7394120    -0.2034460
  H        2.3088350    -1.7369770     0.2080250
  H        3.2815980    -0.2658330    -0.1045500
  H        2.2432560    -0.9696180    -1.3802210
units angstrom
no_reorient  #important for SAPT in psi4, default
symmetry c1  #important for SAPT in psi4, default
}

set PROPERTIES_ORIGIN ["COM"]
properties('MP2/aug-cc-pvtz', properties = ['dipole'])
--------------------------------------------------------------------------

    Molecular point group: c1
  Charge       = 0
  Multiplicity = 1
  Basis Set: AUG-CC-PVTZ
    Blend: AUG-CC-PVTZ
  Basis Set: (AUG-CC-PVTZ AUX)
    Blend: AUG-CC-PVTZ-JKFIT

    Orbital Energies [Eh]
    ---------------------

    Doubly Occupied:

       1A    -20.630665     2A    -20.568311     3A    -20.566827
       4A    -11.404436     5A    -11.402436     6A    -11.255748
       7A    -11.254385     8A     -1.490041     9A     -1.414506
      10A     -1.371214    11A     -1.054719    12A     -1.016429
      13A     -0.869420    14A     -0.743644    15A     -0.704693
      16A     -0.700438    17A     -0.686036    18A     -0.629000
      19A     -0.622761    20A     -0.598764    21A     -0.587471
      22A     -0.578431    23A     -0.558161    24A     -0.525495
      25A     -0.486802    26A     -0.482181    27A     -0.445319

  @DF-RHF Final Energy:  -379.72287194809888

   => Energetics <=

    Nuclear Repulsion Energy =            301.2798814127848459
    One-Electron Energy =               -1116.7088365754366350
    Two-Electron Energy =                 435.7060832145529616
    Total Energy =                       -379.7228719480988843
  Basis Set: (AUG-CC-PVTZ AUX)
    Blend: AUG-CC-PVTZ-RI
    Molecular point group: c1

    Geometry (in Angstrom), charge = 0, multiplicity = 1:

       Center              X                  Y                   Z               Mass
    ------------   -----------------  -----------------  -----------------  -----------------
         O           -0.001363387388    -0.681361920126    -0.000748677995    15.994914619570
         O           -1.269766387388     1.137909079874    -0.616075677995    15.994914619570
         O            1.266365612612     1.137915079874     0.615964322005    15.994914619570
         C           -1.189721787388     0.048284179874    -0.145480977995    12.000000000000
         C            1.199217612612     0.027488079874     0.146352322005    12.000000000000
         C           -2.341891387388    -0.835860920126     0.309387322005    12.000000000000
         C            2.339356612612    -0.835516920126    -0.309266677995    12.000000000000
         H           -3.283072387388    -0.328604920126     0.101098322005     1.007825032230
         H           -2.246213387388    -1.025437920126     1.381546322005     1.007825032230
         H           -2.307322387388    -1.799608920126    -0.203599677995     1.007825032230
         H            2.307383612612    -1.797173920126     0.207871322005     1.007825032230
         H            3.280146612612    -0.326029920126    -0.104703677995     1.007825032230
         H            2.241804612612    -1.029814920126    -1.380374677995     1.007825032230

  Basis Set: AUG-CC-PVTZ
    Blend: AUG-CC-PVTZ
  Basis Set: (AUG-CC-PVTZ AUX)
    Blend: AUG-CC-PVTZ-JKFIT
	 Reference Energy          =    -379.7228719480988843 [Eh]
	 Singles Energy            =      -0.0000000000000000 [Eh]
	 Same-Spin Energy          =      -0.3635455338518631 [Eh]
	 Opposite-Spin Energy      =      -1.1300021498372748 [Eh]
	 Correlation Energy        =      -1.4935476836891377 [Eh]
	 Total Energy              =    -381.2164196317880283 [Eh]

	 ================> DF-SCS-MP2 Energies <==================
	-----------------------------------------------------------
	 SCS Same-Spin Scale       =       0.3333333333333333 [-]
	 SCS Opposite-Spin Scale   =       1.2000000000000000 [-]
	 SCS Same-Spin Energy      =      -0.1211818446172877 [Eh]
	 SCS Opposite-Spin Energy  =      -1.3560025798047297 [Eh]
	 SCS Correlation Energy    =      -1.4771844244220174 [Eh]
	 SCS Total Energy          =    -381.2000563725209190 [Eh]
	-----------------------------------------------------------

  Dipole Moment: [D]
     X:     0.0560      Y:    -3.7574      Z:    -0.0406     Total:     3.7580

*** Psi4 exiting successfully. Buy a developer a beer!
