                               Psi4 1.3.2 release

  ==> Input File <==

--------------------------------------------------------------------------
#psi4
#
memory 32 gb

molecule  {
0 1
  O       -0.0807145    -0.7322250     0.0510900
  O       -1.2683150     1.1981060    -0.6159220
  O        1.2678170     1.1981120     0.6161180
  C       -1.2007280     0.0874770    -0.1468620
  C        1.2006690     0.0876850     0.1465060
  C       -2.3404400    -0.7756640     0.3095410
  C        2.3408080    -0.7753200    -0.3091130
  H       -3.2816210    -0.2684080     0.1012520
  H       -2.2447620    -0.9652410     1.3817000
  H       -2.3058710    -1.7394120    -0.2034460
  H        2.3088350    -1.7369770     0.2080250
  H        3.2815980    -0.2658330    -0.1045500
  H        2.2432560    -0.9696180    -1.3802210
units angstrom
no_reorient  #important for SAPT in psi4, default
symmetry c1  #important for SAPT in psi4, default
}

set PROPERTIES_ORIGIN ["COM"]
properties('MP2/aug-cc-pvtz', properties = ['dipole'])
--------------------------------------------------------------------------

    Molecular point group: c1
  Charge       = 0
  Multiplicity = 1
  Basis Set: AUG-CC-PVTZ
    Blend: AUG-CC-PVTZ
  Basis Set: (AUG-CC-PVTZ AUX)
    Blend: AUG-CC-PVTZ-JKFIT

    Orbital Energies [Eh]
    ---------------------

    Doubly Occupied:

       1A    -20.629340     2A    -20.588479     3A    -20.564256
       4A    -11.420220     5A    -11.397193     6A    -11.264263
       7A    -11.243437     8A     -1.466014     9A     -1.413996
      10A     -1.363407    11A     -1.053547    12A     -1.015670
      13A     -0.838201    14A     -0.751356    15A     -0.700662
      16A     -0.692206    17A     -0.674166    18A     -0.631360
      19A     -0.624838    20A     -0.606841    21A     -0.588608
      22A     -0.571048    23A     -0.549087    24A     -0.528299
      25A     -0.489239    26A     -0.482047    27A     -0.442556

  @DF-RHF Final Energy:  -379.70148650792737

   => Energetics <=

    Nuclear Repulsion Energy =            298.6378865336758395
    One-Electron Energy =               -1111.4980747508700460
    Two-Electron Energy =                 433.1587017092668930
    Total Energy =                       -379.7014865079273704
  Basis Set: (AUG-CC-PVTZ AUX)
    Blend: AUG-CC-PVTZ-RI
    Molecular point group: c1

    Geometry (in Angstrom), charge = 0, multiplicity = 1:

       Center              X                  Y                   Z               Mass
    ------------   -----------------  -----------------  -----------------  -----------------
         O           -0.068033805176    -0.772541387547     0.043014462336    15.994914619570
         O           -1.255634305176     1.157789612453    -0.623997537664    15.994914619570
         O            1.280497694824     1.157795612453     0.608042462336    15.994914619570
         C           -1.188047305176     0.047160612453    -0.154937537664    12.000000000000
         C            1.213349694824     0.047368612453     0.138430462336    12.000000000000
         C           -2.327759305176    -0.815980387547     0.301465462336    12.000000000000
         C            2.353488694824    -0.815636387547    -0.317188537664    12.000000000000
         H           -3.268940305176    -0.308724387547     0.093176462336     1.007825032230
         H           -2.232081305176    -1.005557387547     1.373624462336     1.007825032230
         H           -2.293190305176    -1.779728387547    -0.211521537664     1.007825032230
         H            2.321515694824    -1.777293387547     0.199949462336     1.007825032230
         H            3.294278694824    -0.306149387547    -0.112625537664     1.007825032230
         H            2.255936694824    -1.009934387547    -1.388296537664     1.007825032230

  Basis Set: AUG-CC-PVTZ
    Blend: AUG-CC-PVTZ
  Basis Set: (AUG-CC-PVTZ AUX)
    Blend: AUG-CC-PVTZ-JKFIT
	 Reference Energy          =    -379.7014865079273704 [Eh]
	 Singles Energy            =      -0.0000000000000000 [Eh]
	 Same-Spin Energy          =      -0.3665728252505284 [Eh]
	 Opposite-Spin Energy      =      -1.1373349006388143 [Eh]
	 Correlation Energy        =      -1.5039077258893427 [Eh]
	 Total Energy              =    -381.2053942338167190 [Eh]

	 ================> DF-SCS-MP2 Energies <==================
	-----------------------------------------------------------
	 SCS Same-Spin Scale       =       0.3333333333333333 [-]
	 SCS Opposite-Spin Scale   =       1.2000000000000000 [-]
	 SCS Same-Spin Energy      =      -0.1221909417501761 [Eh]
	 SCS Opposite-Spin Energy  =      -1.3648018807665772 [Eh]
	 SCS Correlation Energy    =      -1.4869928225167532 [Eh]
	 SCS Total Energy          =    -381.1884793304441246 [Eh]
	-----------------------------------------------------------

  Dipole Moment: [D]
     X:     0.8762      Y:    -3.4831      Z:     0.0131     Total:     3.5916

*** Psi4 exiting successfully. Buy a developer a beer!
