                               Psi4 1.4a3.dev225

  ==> Input File <==

--------------------------------------------------------------------------
#psi4
#
memory 32 gb

molecule  {
0 1
  O        0.0000060    -0.6211290    -0.0000190
  O       -1.2681660     1.1980960    -0.6161090
  O        1.2681470     1.1980900     0.6161180
  C       -1.2007670     0.0876200    -0.1466910
  C        1.2007550     0.0876130     0.1466860
  C       -2.3026670    -0.7467724     0.2942011
  C        2.3406600    -0.7755100    -0.3093860
  H       -3.2816790    -0.2673730     0.1026340
  H       -2.2442300    -0.9671190     1.3811090
  H       -2.3071230    -1.7383610    -0.2054080
  H        2.3071510    -1.7383490     0.2054030
  H        3.2816780    -0.2673330    -0.1025910
  H        2.2442800    -0.9670870    -1.3811040
units angstrom
no_reorient  #important for SAPT in psi4, default
symmetry c1  #important for SAPT in psi4, default
}

set PROPERTIES_ORIGIN ["COM"]
properties('MP2/aug-cc-pvtz', properties = ['dipole'])
--------------------------------------------------------------------------

    Molecular point group: c1
  Charge       = 0
  Multiplicity = 1
  Basis Set: AUG-CC-PVTZ
    Blend: AUG-CC-PVTZ
  Basis Set: (AUG-CC-PVTZ AUX)
    Blend: AUG-CC-PVTZ-JKFIT

    Orbital Energies [Eh]
    ---------------------

    Doubly Occupied:

       1A    -20.629975     2A    -20.566143     3A    -20.565624
       4A    -11.404262     5A    -11.402542     6A    -11.256898
       7A    -11.255622     8A     -1.487658     9A     -1.407281
      10A     -1.366695    11A     -1.063393    12A     -1.023308
      13A     -0.869287    14A     -0.743437    15A     -0.707237
      16A     -0.700199    17A     -0.685827    18A     -0.631704
      19A     -0.622979    20A     -0.599407    21A     -0.585039
      22A     -0.573917    23A     -0.554304    24A     -0.518431
      25A     -0.483094    26A     -0.481321    27A     -0.448925

  @DF-RHF Final Energy:  -379.71879798107739

   => Energetics <=

    Nuclear Repulsion Energy =            301.9252586890731891
    One-Electron Energy =               -1118.0190970359205949
    Two-Electron Energy =                 436.3750403657700190
    Total Energy =                       -379.7187979810773868
  Basis Set: (AUG-CC-PVTZ AUX)
    Blend: AUG-CC-PVTZ-RI
    Molecular point group: c1

    Geometry (in Angstrom), charge = 0, multiplicity = 1:

       Center              X                  Y                   Z               Mass
    ------------   -----------------  -----------------  -----------------  -----------------
         O           -0.004459687577    -0.682238890745     0.001768634856    15.994914619570
         O           -1.272631687577     1.136986109255    -0.614321365144    15.994914619570
         O            1.263681312423     1.136980109255     0.617905634856    15.994914619570
         C           -1.205232687577     0.026510109255    -0.144903365144    12.000000000000
         C            1.196289312423     0.026503109255     0.148473634856    12.000000000000
         C           -2.307132687577    -0.807882290745     0.295988734856    12.000000000000
         C            2.336194312423    -0.836619890745    -0.307598365144    12.000000000000
         H           -3.286144687577    -0.328482890745     0.104421634856     1.007825032230
         H           -2.248695687577    -1.028228890745     1.382896634856     1.007825032230
         H           -2.311588687577    -1.799470890745    -0.203620365144     1.007825032230
         H            2.302685312423    -1.799458890745     0.207190634856     1.007825032230
         H            3.277212312423    -0.328442890745    -0.100803365144     1.007825032230
         H            2.239814312423    -1.028196890745    -1.379316365144     1.007825032230

  Basis Set: AUG-CC-PVTZ
    Blend: AUG-CC-PVTZ
  Basis Set: (AUG-CC-PVTZ AUX)
    Blend: AUG-CC-PVTZ-JKFIT
	 Reference Energy          =    -379.7187979810773868 [Eh]
	 Singles Energy            =      -0.0000000000000000 [Eh]
	 Same-Spin Energy          =      -0.3644865410543123 [Eh]
	 Opposite-Spin Energy      =      -1.1313308192564930 [Eh]
	 Correlation Energy        =      -1.4958173603108054 [Eh]
	 Total Energy              =    -381.2146153413881962 [Eh]

	 ================> DF-SCS-MP2 Energies <==================
	-----------------------------------------------------------
	 SCS Same-Spin Scale       =       0.3333333333333333 [-]
	 SCS Opposite-Spin Scale   =       1.2000000000000000 [-]
	 SCS Same-Spin Energy      =      -0.1214955136847708 [Eh]
	 SCS Opposite-Spin Energy  =      -1.3575969831077916 [Eh]
	 SCS Correlation Energy    =      -1.4790924967925625 [Eh]
	 SCS Total Energy          =    -381.1978904778699757 [Eh]
	-----------------------------------------------------------

  Dipole Moment: [D]
     X:    -0.0617      Y:    -3.9105      Z:     0.0246     Total:     3.9110

*** Psi4 exiting successfully. Buy a developer a beer!
