                               Psi4 1.3.2 release

  ==> Input File <==

--------------------------------------------------------------------------
#psi4
#
memory 32 gb

molecule  {
0 1
  O        0.0670533    -0.5046712    -0.0595829
  O       -1.2683150     1.1981060    -0.6159220
  O        1.2678170     1.1981120     0.6161180
  C       -1.2007280     0.0874770    -0.1468620
  C        1.2006690     0.0876850     0.1465060
  C       -2.3404400    -0.7756640     0.3095410
  C        2.3408080    -0.7753200    -0.3091130
  H       -3.2816210    -0.2684080     0.1012520
  H       -2.2447620    -0.9652410     1.3817000
  H       -2.3058710    -1.7394120    -0.2034460
  H        2.3088350    -1.7369770     0.2080250
  H        3.2815980    -0.2658330    -0.1045500
  H        2.2432560    -0.9696180    -1.3802210
units angstrom
no_reorient  #important for SAPT in psi4, default
symmetry c1  #important for SAPT in psi4, default
}

set PROPERTIES_ORIGIN ["COM"]
properties('MP2/aug-cc-pvtz', properties = ['dipole'])
--------------------------------------------------------------------------

    Molecular point group: c1
  Charge       = 0
  Multiplicity = 1
  Basis Set: AUG-CC-PVTZ
    Blend: AUG-CC-PVTZ
  Basis Set: (AUG-CC-PVTZ AUX)
    Blend: AUG-CC-PVTZ-JKFIT

    Orbital Energies [Eh]
    ---------------------

    Doubly Occupied:

       1A    -20.628806     2A    -20.569085     3A    -20.542278
       4A    -11.413014     5A    -11.388466     6A    -11.268045
       7A    -11.248538     8A     -1.516553     9A     -1.406499
      10A     -1.360554    11A     -1.065643    12A     -1.023222
      13A     -0.903041    14A     -0.736663    15A     -0.716124
      16A     -0.702130    17A     -0.691180    18A     -0.631537
      19A     -0.624138    20A     -0.604503    21A     -0.581879
      22A     -0.573811    23A     -0.564343    24A     -0.516848
      25A     -0.478603    26A     -0.471625    27A     -0.443500

  @DF-RHF Final Energy:  -379.71844456094101

   => Energetics <=

    Nuclear Repulsion Energy =            303.5848638955729371
    One-Electron Energy =               -1121.2653621434683373
    Two-Electron Energy =                 437.9620536869544480
    Total Energy =                       -379.7184445609410091
  Basis Set: (AUG-CC-PVTZ AUX)
    Blend: AUG-CC-PVTZ-RI
    Molecular point group: c1

    Geometry (in Angstrom), charge = 0, multiplicity = 1:

       Center              X                  Y                   Z               Mass
    ------------   -----------------  -----------------  -----------------  -----------------
         O            0.056569297163    -0.580659871892    -0.050308891500    15.994914619570
         O           -1.278799002837     1.122117328108    -0.606647991500    15.994914619570
         O            1.257332997163     1.122123328108     0.625392008500    15.994914619570
         C           -1.211212002837     0.011488328108    -0.137587991500    12.000000000000
         C            1.190184997163     0.011696328108     0.155780008500    12.000000000000
         C           -2.350924002837    -0.851652671892     0.318815008500    12.000000000000
         C            2.330323997163    -0.851308671892    -0.299838991500    12.000000000000
         H           -3.292105002837    -0.344396671892     0.110526008500     1.007825032230
         H           -2.255246002837    -1.041229671892     1.390974008500     1.007825032230
         H           -2.316355002837    -1.815400671892    -0.194171991500     1.007825032230
         H            2.298350997163    -1.812965671892     0.217299008500     1.007825032230
         H            3.271113997163    -0.341821671892    -0.095275991500     1.007825032230
         H            2.232771997163    -1.045606671892    -1.370946991500     1.007825032230

  Basis Set: AUG-CC-PVTZ
    Blend: AUG-CC-PVTZ
  Basis Set: (AUG-CC-PVTZ AUX)
    Blend: AUG-CC-PVTZ-JKFIT
	 Reference Energy          =    -379.7184445609410091 [Eh]
	 Singles Energy            =      -0.0000000000000000 [Eh]
	 Same-Spin Energy          =      -0.3626316493966444 [Eh]
	 Opposite-Spin Energy      =      -1.1267746647002896 [Eh]
	 Correlation Energy        =      -1.4894063140969340 [Eh]
	 Total Energy              =    -381.2078508750379342 [Eh]

	 ================> DF-SCS-MP2 Energies <==================
	-----------------------------------------------------------
	 SCS Same-Spin Scale       =       0.3333333333333333 [-]
	 SCS Opposite-Spin Scale   =       1.2000000000000000 [-]
	 SCS Same-Spin Energy      =      -0.1208772164655481 [Eh]
	 SCS Opposite-Spin Energy  =      -1.3521295976403476 [Eh]
	 SCS Correlation Energy    =      -1.4730068141058956 [Eh]
	 SCS Total Energy          =    -381.1914513750468814 [Eh]
	-----------------------------------------------------------

  Dipole Moment: [D]
     X:    -0.8425      Y:    -4.2665      Z:    -0.0285     Total:     4.3490

*** Psi4 exiting successfully. Buy a developer a beer!
