                               Psi4 1.3.2 release

  ==> Input File <==

--------------------------------------------------------------------------
#psi4
#
memory 32 gb

molecule  {
0 1
  O       -0.0254252    -0.6591096     0.0168398
  O       -1.2683150     1.1981060    -0.6159220
  O        1.2678170     1.1981120     0.6161180
  C       -1.2007280     0.0874770    -0.1468620
  C        1.2006690     0.0876850     0.1465060
  C       -2.3404400    -0.7756640     0.3095410
  C        2.3408080    -0.7753200    -0.3091130
  H       -3.2816210    -0.2684080     0.1012520
  H       -2.2447620    -0.9652410     1.3817000
  H       -2.3058710    -1.7394120    -0.2034460
  H        2.3088350    -1.7369770     0.2080250
  H        3.2815980    -0.2658330    -0.1045500
  H        2.2432560    -0.9696180    -1.3802210
units angstrom
no_reorient  #important for SAPT in psi4, default
symmetry c1  #important for SAPT in psi4, default
}

set PROPERTIES_ORIGIN ["COM"]
properties('MP2/aug-cc-pvtz', properties = ['dipole'])
--------------------------------------------------------------------------

    Molecular point group: c1
  Charge       = 0
  Multiplicity = 1
  Basis Set: AUG-CC-PVTZ
    Blend: AUG-CC-PVTZ
  Basis Set: (AUG-CC-PVTZ AUX)
    Blend: AUG-CC-PVTZ-JKFIT

    Orbital Energies [Eh]
    ---------------------

    Doubly Occupied:

       1A    -20.630569     2A    -20.574017     3A    -20.565581
       4A    -11.409866     5A    -11.401920     6A    -11.258490
       7A    -11.251673     8A     -1.479078     9A     -1.408946
      10A     -1.366451    11A     -1.055978    12A     -1.019337
      13A     -0.859498    14A     -0.745167    15A     -0.701269
      16A     -0.698045    17A     -0.681173    18A     -0.628644
      19A     -0.623436    20A     -0.601726    21A     -0.587670
      22A     -0.577304    23A     -0.555609    24A     -0.523261
      25A     -0.486162    26A     -0.481938    27A     -0.445964

  @DF-RHF Final Energy:  -379.71731310244274

   => Energetics <=

    Nuclear Repulsion Energy =            300.2285488814873133
    One-Electron Energy =               -1114.6541807564390183
    Two-Electron Energy =                 434.7083187725089601
    Total Energy =                       -379.7173131024427448
  Basis Set: (AUG-CC-PVTZ AUX)
    Blend: AUG-CC-PVTZ-RI
    Molecular point group: c1

    Geometry (in Angstrom), charge = 0, multiplicity = 1:

       Center              X                  Y                   Z               Mass
    ------------   -----------------  -----------------  -----------------  -----------------
         O           -0.021411886828    -0.710887863107     0.014133466776    15.994914619570
         O           -1.264301686828     1.146327736893    -0.618628333224    15.994914619570
         O            1.271830313172     1.146333736893     0.613411666776    15.994914619570
         C           -1.196714686828     0.035698736893    -0.149568333224    12.000000000000
         C            1.204682313172     0.035906736893     0.143799666776    12.000000000000
         C           -2.336426686828    -0.827442263107     0.306834666776    12.000000000000
         C            2.344821313172    -0.827098263107    -0.311819333224    12.000000000000
         H           -3.277607686828    -0.320186263107     0.098545666776     1.007825032230
         H           -2.240748686828    -1.017019263107     1.378993666776     1.007825032230
         H           -2.301857686828    -1.791190263107    -0.206152333224     1.007825032230
         H            2.312848313172    -1.788755263107     0.205318666776     1.007825032230
         H            3.285611313172    -0.317611263107    -0.107256333224     1.007825032230
         H            2.247269313172    -1.021396263107    -1.382927333224     1.007825032230

  Basis Set: AUG-CC-PVTZ
    Blend: AUG-CC-PVTZ
  Basis Set: (AUG-CC-PVTZ AUX)
    Blend: AUG-CC-PVTZ-JKFIT
	 Reference Energy          =    -379.7173131024427448 [Eh]
	 Singles Energy            =      -0.0000000000000000 [Eh]
	 Same-Spin Energy          =      -0.3647688800673481 [Eh]
	 Opposite-Spin Energy      =      -1.1328325678998359 [Eh]
	 Correlation Energy        =      -1.4976014479671840 [Eh]
	 Total Energy              =    -381.2149145504099010 [Eh]

	 ================> DF-SCS-MP2 Energies <==================
	-----------------------------------------------------------
	 SCS Same-Spin Scale       =       0.3333333333333333 [-]
	 SCS Opposite-Spin Scale   =       1.2000000000000000 [-]
	 SCS Same-Spin Energy      =      -0.1215896266891160 [Eh]
	 SCS Opposite-Spin Energy  =      -1.3593990814798029 [Eh]
	 SCS Correlation Energy    =      -1.4809887081689190 [Eh]
	 SCS Total Energy          =    -381.1983018106116674 [Eh]
	-----------------------------------------------------------

  Dipole Moment: [D]
     X:     0.2914      Y:    -3.7319      Z:     0.0072     Total:     3.7432

*** Psi4 exiting successfully. Buy a developer a beer!
