                               Psi4 1.3.2 release

  ==> Input File <==

--------------------------------------------------------------------------
#psi4
#
memory 32 gb

molecule  {
0 1
  O        0.0000880    -0.6211650    -0.0005950
  O       -1.2683150     1.1981060    -0.6159220
  O        1.2678170     1.1981120     0.6161180
  C       -1.1050476    -0.0262057    -0.0958941
  C        1.2006690     0.0876850     0.1465060
  C       -2.3404400    -0.7756640     0.3095410
  C        2.3408080    -0.7753200    -0.3091130
  H       -3.2816210    -0.2684080     0.1012520
  H       -2.2447620    -0.9652410     1.3817000
  H       -2.3058710    -1.7394120    -0.2034460
  H        2.3088350    -1.7369770     0.2080250
  H        3.2815980    -0.2658330    -0.1045500
  H        2.2432560    -0.9696180    -1.3802210
units angstrom
no_reorient  #important for SAPT in psi4, default
symmetry c1  #important for SAPT in psi4, default
}

set PROPERTIES_ORIGIN ["COM"]
properties('MP2/aug-cc-pvtz', properties = ['dipole'])
--------------------------------------------------------------------------

    Molecular point group: c1
  Charge       = 0
  Multiplicity = 1
  Basis Set: AUG-CC-PVTZ
    Blend: AUG-CC-PVTZ
  Basis Set: (AUG-CC-PVTZ AUX)
    Blend: AUG-CC-PVTZ-JKFIT

    Orbital Energies [Eh]
    ---------------------

    Doubly Occupied:

       1A    -20.664292     2A    -20.584380     3A    -20.532587
       4A    -11.424611     5A    -11.406923     6A    -11.268805
       7A    -11.253585     8A     -1.545462     9A     -1.413925
      10A     -1.294836    11A     -1.078791    12A     -1.024961
      13A     -0.918149    14A     -0.758184    15A     -0.723984
      16A     -0.717350    17A     -0.684974    18A     -0.633409
      19A     -0.623445    20A     -0.605168    21A     -0.589293
      22A     -0.577498    23A     -0.546793    24A     -0.520276
      25A     -0.487081    26A     -0.440428    27A     -0.429101

  @DF-RHF Final Energy:  -379.68249046195621

   => Energetics <=

    Nuclear Repulsion Energy =            301.7809615455523158
    One-Electron Energy =               -1117.4303170333027992
    Two-Electron Energy =                 435.9668650257942204
    Total Energy =                       -379.6824904619562062
  Basis Set: (AUG-CC-PVTZ AUX)
    Blend: AUG-CC-PVTZ-RI
    Molecular point group: c1

    Geometry (in Angstrom), charge = 0, multiplicity = 1:

       Center              X                  Y                   Z               Mass
    ------------   -----------------  -----------------  -----------------  -----------------
         O           -0.011151263687    -0.665521336325    -0.006562542064    15.994914619570
         O           -1.279554263687     1.153749663675    -0.621889542064    15.994914619570
         O            1.256577736313     1.153755663675     0.610150457936    15.994914619570
         C           -1.116286863687    -0.070562036325    -0.101861642064    12.000000000000
         C            1.189429736313     0.043328663675     0.140538457936    12.000000000000
         C           -2.351679263687    -0.820020336325     0.303573457936    12.000000000000
         C            2.329568736313    -0.819676336325    -0.315080542064    12.000000000000
         H           -3.292860263687    -0.312764336325     0.095284457936     1.007825032230
         H           -2.256001263687    -1.009597336325     1.375732457936     1.007825032230
         H           -2.317110263687    -1.783768336325    -0.209413542064     1.007825032230
         H            2.297595736313    -1.781333336325     0.202057457936     1.007825032230
         H            3.270358736313    -0.310189336325    -0.110517542064     1.007825032230
         H            2.232016736313    -1.013974336325    -1.386188542064     1.007825032230

  Basis Set: AUG-CC-PVTZ
    Blend: AUG-CC-PVTZ
  Basis Set: (AUG-CC-PVTZ AUX)
    Blend: AUG-CC-PVTZ-JKFIT
	 Reference Energy          =    -379.6824904619562062 [Eh]
	 Singles Energy            =      -0.0000000000000000 [Eh]
	 Same-Spin Energy          =      -0.3664561915893633 [Eh]
	 Opposite-Spin Energy      =      -1.1356597206439067 [Eh]
	 Correlation Energy        =      -1.5021159122332701 [Eh]
	 Total Energy              =    -381.1846063741894568 [Eh]

	 ================> DF-SCS-MP2 Energies <==================
	-----------------------------------------------------------
	 SCS Same-Spin Scale       =       0.3333333333333333 [-]
	 SCS Opposite-Spin Scale   =       1.2000000000000000 [-]
	 SCS Same-Spin Energy      =      -0.1221520638631211 [Eh]
	 SCS Opposite-Spin Energy  =      -1.3627916647726881 [Eh]
	 SCS Correlation Energy    =      -1.4849437286358091 [Eh]
	 SCS Total Energy          =    -381.1674341905920187 [Eh]
	-----------------------------------------------------------

  Dipole Moment: [D]
     X:     1.2152      Y:    -4.5219      Z:     0.3284     Total:     4.6938

*** Psi4 exiting successfully. Buy a developer a beer!
