                               Psi4 1.3.2 release

  ==> Input File <==

--------------------------------------------------------------------------
#psi4
#
memory 32 gb

molecule  {
0 1
  O        0.0000880    -0.6211650    -0.0005950
  O       -1.1842617     1.1974127    -0.6221026
  O        1.2678170     1.1981120     0.6161180
  C       -1.2007280     0.0874770    -0.1468620
  C        1.2006690     0.0876850     0.1465060
  C       -2.3404400    -0.7756640     0.3095410
  C        2.3408080    -0.7753200    -0.3091130
  H       -3.2816210    -0.2684080     0.1012520
  H       -2.2447620    -0.9652410     1.3817000
  H       -2.3058710    -1.7394120    -0.2034460
  H        2.3088350    -1.7369770     0.2080250
  H        3.2815980    -0.2658330    -0.1045500
  H        2.2432560    -0.9696180    -1.3802210
units angstrom
no_reorient  #important for SAPT in psi4, default
symmetry c1  #important for SAPT in psi4, default
}

set PROPERTIES_ORIGIN ["COM"]
properties('MP2/aug-cc-pvtz', properties = ['dipole'])
--------------------------------------------------------------------------

    Molecular point group: c1
  Charge       = 0
  Multiplicity = 1
  Basis Set: AUG-CC-PVTZ
    Blend: AUG-CC-PVTZ
  Basis Set: (AUG-CC-PVTZ AUX)
    Blend: AUG-CC-PVTZ-JKFIT

    Orbital Energies [Eh]
    ---------------------

    Doubly Occupied:

       1A    -20.624761     2A    -20.565224     3A    -20.562986
       4A    -11.404343     5A    -11.401521     6A    -11.260442
       7A    -11.253801     8A     -1.486396     9A     -1.404455
      10A     -1.361903    11A     -1.058421    12A     -1.021334
      13A     -0.868468    14A     -0.740375    15A     -0.703362
      16A     -0.696823    17A     -0.682931    18A     -0.628025
      19A     -0.622914    20A     -0.601068    21A     -0.584817
      22A     -0.579523    23A     -0.558093    24A     -0.519943
      25A     -0.480093    26A     -0.479923    27A     -0.444920

  @DF-RHF Final Energy:  -379.72048983651740

   => Energetics <=

    Nuclear Repulsion Energy =            301.8221379367316217
    One-Electron Energy =               -1117.8915179472985528
    Two-Electron Energy =                 436.3488901740494725
    Total Energy =                       -379.7204898365174017
  Basis Set: (AUG-CC-PVTZ AUX)
    Blend: AUG-CC-PVTZ-RI
    Molecular point group: c1

    Geometry (in Angstrom), charge = 0, multiplicity = 1:

       Center              X                  Y                   Z               Mass
    ------------   -----------------  -----------------  -----------------  -----------------
         O           -0.013074789106    -0.678782932521     0.000400715538    15.994914619570
         O           -1.197424489106     1.139794767479    -0.621106884462    15.994914619570
         O            1.254654210894     1.140494067479     0.617113715538    15.994914619570
         C           -1.213890789106     0.029859067479    -0.145866284462    12.000000000000
         C            1.187506210894     0.030067067479     0.147501715538    12.000000000000
         C           -2.353602789106    -0.833281932521     0.310536715538    12.000000000000
         C            2.327645210894    -0.832937932521    -0.308117284462    12.000000000000
         H           -3.294783789106    -0.326025932521     0.102247715538     1.007825032230
         H           -2.257924789106    -1.022858932521     1.382695715538     1.007825032230
         H           -2.319033789106    -1.797029932521    -0.202450284462     1.007825032230
         H            2.295672210894    -1.794594932521     0.209020715538     1.007825032230
         H            3.268435210894    -0.323450932521    -0.103554284462     1.007825032230
         H            2.230093210894    -1.027235932521    -1.379225284462     1.007825032230

  Basis Set: AUG-CC-PVTZ
    Blend: AUG-CC-PVTZ
  Basis Set: (AUG-CC-PVTZ AUX)
    Blend: AUG-CC-PVTZ-JKFIT
	 Reference Energy          =    -379.7204898365174017 [Eh]
	 Singles Energy            =      -0.0000000000000000 [Eh]
	 Same-Spin Energy          =      -0.3641666320348020 [Eh]
	 Opposite-Spin Energy      =      -1.1309791412353385 [Eh]
	 Correlation Energy        =      -1.4951457732701405 [Eh]
	 Total Energy              =    -381.2156356097875687 [Eh]

	 ================> DF-SCS-MP2 Energies <==================
	-----------------------------------------------------------
	 SCS Same-Spin Scale       =       0.3333333333333333 [-]
	 SCS Opposite-Spin Scale   =       1.2000000000000000 [-]
	 SCS Same-Spin Energy      =      -0.1213888773449340 [Eh]
	 SCS Opposite-Spin Energy  =      -1.3571749694824062 [Eh]
	 SCS Correlation Energy    =      -1.4785638468273403 [Eh]
	 SCS Total Energy          =    -381.1990536833447436 [Eh]
	-----------------------------------------------------------

  Dipole Moment: [D]
     X:    -0.2594      Y:    -3.8850      Z:     0.0243     Total:     3.8937

*** Psi4 exiting successfully. Buy a developer a beer!
