                               Psi4 1.3.2 release

  ==> Input File <==

--------------------------------------------------------------------------
#psi4
#
memory 32 gb

molecule  {
0 1
  O        0.0000880    -0.6211650    -0.0005950
  O       -1.2683150     1.1981060    -0.6159220
  O        1.2678170     1.1981120     0.6161180
  C       -1.2007280     0.0874770    -0.1468620
  C        1.2006690     0.0876850     0.1465060
  C       -2.2644973    -0.7181501     0.2791294
  C        2.3408080    -0.7753200    -0.3091130
  H       -3.2816210    -0.2684080     0.1012520
  H       -2.2447620    -0.9652410     1.3817000
  H       -2.3058710    -1.7394120    -0.2034460
  H        2.3088350    -1.7369770     0.2080250
  H        3.2815980    -0.2658330    -0.1045500
  H        2.2432560    -0.9696180    -1.3802210
units angstrom
no_reorient  #important for SAPT in psi4, default
symmetry c1  #important for SAPT in psi4, default
}

set PROPERTIES_ORIGIN ["COM"]
properties('MP2/aug-cc-pvtz', properties = ['dipole'])
--------------------------------------------------------------------------

    Molecular point group: c1
  Charge       = 0
  Multiplicity = 1
  Basis Set: AUG-CC-PVTZ
    Blend: AUG-CC-PVTZ
  Basis Set: (AUG-CC-PVTZ AUX)
    Blend: AUG-CC-PVTZ-JKFIT

    Orbital Energies [Eh]
    ---------------------

    Doubly Occupied:

       1A    -20.629163     2A    -20.565784     3A    -20.564590
       4A    -11.403860     5A    -11.399813     6A    -11.258583
       7A    -11.255348     8A     -1.488020     9A     -1.407422
      10A     -1.366517    11A     -1.070692    12A     -1.025667
      13A     -0.867654    14A     -0.744960    15A     -0.711566
      16A     -0.700635    17A     -0.686619    18A     -0.635271
      19A     -0.623010    20A     -0.599052    21A     -0.584500
      22A     -0.567628    23A     -0.548944    24A     -0.514742
      25A     -0.482488    26A     -0.480527    27A     -0.450496

  @DF-RHF Final Energy:  -379.70991377702074

   => Energetics <=

    Nuclear Repulsion Energy =            302.8394049379712101
    One-Electron Energy =               -1119.8315348913126854
    Two-Electron Energy =                 437.2822161763206736
    Total Energy =                       -379.7099137770207449
  Basis Set: (AUG-CC-PVTZ AUX)
    Blend: AUG-CC-PVTZ-RI
    Molecular point group: c1

    Geometry (in Angstrom), charge = 0, multiplicity = 1:

       Center              X                  Y                   Z               Mass
    ------------   -----------------  -----------------  -----------------  -----------------
         O           -0.008829902642    -0.685655856476     0.003008542774    15.994914619570
         O           -1.277232902642     1.133615143524    -0.612318457226    15.994914619570
         O            1.258899097358     1.133621143524     0.619721542774    15.994914619570
         C           -1.209645902642     0.022986143524    -0.143258457226    12.000000000000
         C            1.191751097358     0.023194143524     0.150109542774    12.000000000000
         C           -2.273415202642    -0.782640956476     0.282732942774    12.000000000000
         C            2.331890097358    -0.839810856476    -0.305509457226    12.000000000000
         H           -3.290538902642    -0.332898856476     0.104855542774     1.007825032230
         H           -2.253679902642    -1.029731856476     1.385303542774     1.007825032230
         H           -2.314788902642    -1.803902856476    -0.199842457226     1.007825032230
         H            2.299917097358    -1.801467856476     0.211628542774     1.007825032230
         H            3.272680097358    -0.330323856476    -0.100946457226     1.007825032230
         H            2.234338097358    -1.034108856476    -1.376617457226     1.007825032230

  Basis Set: AUG-CC-PVTZ
    Blend: AUG-CC-PVTZ
  Basis Set: (AUG-CC-PVTZ AUX)
    Blend: AUG-CC-PVTZ-JKFIT
	 Reference Energy          =    -379.7099137770207449 [Eh]
	 Singles Energy            =      -0.0000000000000000 [Eh]
	 Same-Spin Energy          =      -0.3651429699611094 [Eh]
	 Opposite-Spin Energy      =      -1.1321017339856194 [Eh]
	 Correlation Energy        =      -1.4972447039467287 [Eh]
	 Total Energy              =    -381.2071584809674505 [Eh]

	 ================> DF-SCS-MP2 Energies <==================
	-----------------------------------------------------------
	 SCS Same-Spin Scale       =       0.3333333333333333 [-]
	 SCS Opposite-Spin Scale   =       1.2000000000000000 [-]
	 SCS Same-Spin Energy      =      -0.1217143233203698 [Eh]
	 SCS Opposite-Spin Energy  =      -1.3585220807827432 [Eh]
	 SCS Correlation Energy    =      -1.4802364041031129 [Eh]
	 SCS Total Energy          =    -381.1901501811238404 [Eh]
	-----------------------------------------------------------

  Dipole Moment: [D]
     X:    -0.1315      Y:    -3.9662      Z:     0.0537     Total:     3.9688

*** Psi4 exiting successfully. Buy a developer a beer!
