                               Psi4 1.4a3.dev225

  ==> Input File <==

--------------------------------------------------------------------------
#psi4
#
memory 32 gb

molecule  {
0 1
  O        0.0000060    -0.6211290    -0.0000190
  O       -1.2681660     1.1980960    -0.6161090
  O        1.2681470     1.1980900     0.6161180
  C       -1.2035579     0.1336025    -0.1661286
  C        1.2007550     0.0876130     0.1466860
  C       -2.3406430    -0.7755290     0.3093960
  C        2.3406600    -0.7755100    -0.3093860
  H       -3.2816790    -0.2673730     0.1026340
  H       -2.2442300    -0.9671190     1.3811090
  H       -2.3071230    -1.7383610    -0.2054080
  H        2.3071510    -1.7383490     0.2054030
  H        3.2816780    -0.2673330    -0.1025910
  H        2.2442800    -0.9670870    -1.3811040
units angstrom
no_reorient  #important for SAPT in psi4, default
symmetry c1  #important for SAPT in psi4, default
}

set PROPERTIES_ORIGIN ["COM"]
properties('MP2/aug-cc-pvtz', properties = ['dipole'])
--------------------------------------------------------------------------

    Molecular point group: c1
  Charge       = 0
  Multiplicity = 1
  Basis Set: AUG-CC-PVTZ
    Blend: AUG-CC-PVTZ
  Basis Set: (AUG-CC-PVTZ AUX)
    Blend: AUG-CC-PVTZ-JKFIT

    Orbital Energies [Eh]
    ---------------------

    Doubly Occupied:

       1A    -20.622834     2A    -20.575199     3A    -20.563461
       4A    -11.400580     5A    -11.400274     6A    -11.254913
       7A    -11.253011     8A     -1.489759     9A     -1.428568
      10A     -1.368442    11A     -1.049981    12A     -1.013889
      13A     -0.860211    14A     -0.744380    15A     -0.705473
      16A     -0.700232    17A     -0.683082    18A     -0.633692
      19A     -0.623862    20A     -0.597318    21A     -0.588438
      22A     -0.576133    23A     -0.556253    24A     -0.533370
      25A     -0.487619    26A     -0.481344    27A     -0.443783

  @DF-RHF Final Energy:  -379.72156806035144

   => Energetics <=

    Nuclear Repulsion Energy =            301.2813266632676914
    One-Electron Energy =               -1116.7335847980739345
    Two-Electron Energy =                 435.7306900744547988
    Total Energy =                       -379.7215680603514443
  Basis Set: (AUG-CC-PVTZ AUX)
    Blend: AUG-CC-PVTZ-RI
    Molecular point group: c1

    Geometry (in Angstrom), charge = 0, multiplicity = 1:

       Center              X                  Y                   Z               Mass
    ------------   -----------------  -----------------  -----------------  -----------------
         O            0.000334928493    -0.684264837702     0.002267620984    15.994914619570
         O           -1.267837071507     1.134960162298    -0.613822379016    15.994914619570
         O            1.268475928493     1.134954162298     0.618404620984    15.994914619570
         C           -1.203228971507     0.070466662298    -0.163841979016    12.000000000000
         C            1.201083928493     0.024477162298     0.148972620984    12.000000000000
         C           -2.340314071507    -0.838664837702     0.311682620984    12.000000000000
         C            2.340988928493    -0.838645837702    -0.307099379016    12.000000000000
         H           -3.281350071507    -0.330508837702     0.104920620984     1.007825032230
         H           -2.243901071507    -1.030254837702     1.383395620984     1.007825032230
         H           -2.306794071507    -1.801496837702    -0.203121379016     1.007825032230
         H            2.307479928493    -1.801484837702     0.207689620984     1.007825032230
         H            3.282006928493    -0.330468837702    -0.100304379016     1.007825032230
         H            2.244608928493    -1.030222837702    -1.378817379016     1.007825032230

  Basis Set: AUG-CC-PVTZ
    Blend: AUG-CC-PVTZ
  Basis Set: (AUG-CC-PVTZ AUX)
    Blend: AUG-CC-PVTZ-JKFIT
	 Reference Energy          =    -379.7215680603514443 [Eh]
	 Singles Energy            =      -0.0000000000000000 [Eh]
	 Same-Spin Energy          =      -0.3630283241580639 [Eh]
	 Opposite-Spin Energy      =      -1.1289063388818819 [Eh]
	 Correlation Energy        =      -1.4919346630399457 [Eh]
	 Total Energy              =    -381.2135027233914002 [Eh]

	 ================> DF-SCS-MP2 Energies <==================
	-----------------------------------------------------------
	 SCS Same-Spin Scale       =       0.3333333333333333 [-]
	 SCS Opposite-Spin Scale   =       1.2000000000000000 [-]
	 SCS Same-Spin Energy      =      -0.1210094413860213 [Eh]
	 SCS Opposite-Spin Energy  =      -1.3546876066582583 [Eh]
	 SCS Correlation Energy    =      -1.4756970480442795 [Eh]
	 SCS Total Energy          =    -381.1972651083956976 [Eh]
	-----------------------------------------------------------

  Dipole Moment: [D]
     X:    -0.1824      Y:    -3.5742      Z:    -0.1411     Total:     3.5817

*** Psi4 exiting successfully. Buy a developer a beer!
