                               Psi4 1.3.2 release

  ==> Input File <==

--------------------------------------------------------------------------
#psi4
#
memory 32 gb

molecule  {
0 1
  O        0.0239109    -0.5831350    -0.0201112
  O       -1.2683150     1.1981060    -0.6159220
  O        1.2678170     1.1981120     0.6161180
  C       -1.2007280     0.0874770    -0.1468620
  C        1.2006690     0.0876850     0.1465060
  C       -2.3404400    -0.7756640     0.3095410
  C        2.3408080    -0.7753200    -0.3091130
  H       -3.2816210    -0.2684080     0.1012520
  H       -2.2447620    -0.9652410     1.3817000
  H       -2.3058710    -1.7394120    -0.2034460
  H        2.3088350    -1.7369770     0.2080250
  H        3.2815980    -0.2658330    -0.1045500
  H        2.2432560    -0.9696180    -1.3802210
units angstrom
no_reorient  #important for SAPT in psi4, default
symmetry c1  #important for SAPT in psi4, default
}

set PROPERTIES_ORIGIN ["COM"]
properties('MP2/aug-cc-pvtz', properties = ['dipole'])
--------------------------------------------------------------------------

    Molecular point group: c1
  Charge       = 0
  Multiplicity = 1
  Basis Set: AUG-CC-PVTZ
    Blend: AUG-CC-PVTZ
  Basis Set: (AUG-CC-PVTZ AUX)
    Blend: AUG-CC-PVTZ-JKFIT

    Orbital Energies [Eh]
    ---------------------

    Doubly Occupied:

       1A    -20.630302     2A    -20.567204     3A    -20.558594
       4A    -11.407202     5A    -11.399208     6A    -11.259901
       7A    -11.253264     8A     -1.496312     9A     -1.405931
      10A     -1.365884    11A     -1.060373    12A     -1.021555
      13A     -0.881687    14A     -0.739932    15A     -0.707457
      16A     -0.698969    17A     -0.688651    18A     -0.628918
      19A     -0.622713    20A     -0.600906    21A     -0.583372
      22A     -0.580284    23A     -0.561104    24A     -0.519307
      25A     -0.480798    26A     -0.480022    27A     -0.446329

  @DF-RHF Final Energy:  -379.72352344881341

   => Energetics <=

    Nuclear Repulsion Energy =            301.8931506354709313
    One-Electron Energy =               -1117.9409882121112787
    Two-Electron Energy =                 436.3243141278269945
    Total Energy =                       -379.7235234488134097
  Basis Set: (AUG-CC-PVTZ AUX)
    Blend: AUG-CC-PVTZ-RI
    Molecular point group: c1

    Geometry (in Angstrom), charge = 0, multiplicity = 1:

       Center              X                  Y                   Z               Mass
    ------------   -----------------  -----------------  -----------------  -----------------
         O            0.020190080024    -0.646823358804    -0.017024940094    15.994914619570
         O           -1.272035819976     1.134417641196    -0.612835740094    15.994914619570
         O            1.264096180024     1.134423641196     0.619204259906    15.994914619570
         C           -1.204448819976     0.023788641196    -0.143775740094    12.000000000000
         C            1.196948180024     0.023996641196     0.149592259906    12.000000000000
         C           -2.344160819976    -0.839352358804     0.312627259906    12.000000000000
         C            2.337087180024    -0.839008358804    -0.306026740094    12.000000000000
         H           -3.285341819976    -0.332096358804     0.104338259906     1.007825032230
         H           -2.248482819976    -1.028929358804     1.384786259906     1.007825032230
         H           -2.309591819976    -1.803100358804    -0.200359740094     1.007825032230
         H            2.305114180024    -1.800665358804     0.211111259906     1.007825032230
         H            3.277877180024    -0.329521358804    -0.101463740094     1.007825032230
         H            2.239535180024    -1.033306358804    -1.377134740094     1.007825032230

  Basis Set: AUG-CC-PVTZ
    Blend: AUG-CC-PVTZ
  Basis Set: (AUG-CC-PVTZ AUX)
    Blend: AUG-CC-PVTZ-JKFIT
	 Reference Energy          =    -379.7235234488134097 [Eh]
	 Singles Energy            =      -0.0000000000000000 [Eh]
	 Same-Spin Energy          =      -0.3634739443128481 [Eh]
	 Opposite-Spin Energy      =      -1.1293204413010463 [Eh]
	 Correlation Energy        =      -1.4927943856138943 [Eh]
	 Total Energy              =    -381.2163178344272865 [Eh]

	 ================> DF-SCS-MP2 Energies <==================
	-----------------------------------------------------------
	 SCS Same-Spin Scale       =       0.3333333333333333 [-]
	 SCS Opposite-Spin Scale   =       1.2000000000000000 [-]
	 SCS Same-Spin Energy      =      -0.1211579814376160 [Eh]
	 SCS Opposite-Spin Energy  =      -1.3551845295612555 [Eh]
	 SCS Correlation Energy    =      -1.4763425109988715 [Eh]
	 SCS Total Energy          =    -381.1998659598122572 [Eh]
	-----------------------------------------------------------

  Dipole Moment: [D]
     X:    -0.2844      Y:    -3.9932      Z:    -0.0061     Total:     4.0033

*** Psi4 exiting successfully. Buy a developer a beer!
