                               Psi4 1.4a3.dev225

  ==> Input File <==

--------------------------------------------------------------------------
#psi4
#
memory 32 gb

molecule  {
0 1
  O        0.0000060    -0.6211290    -0.0000190
  O       -1.2681660     1.1980960    -0.6161090
  O        1.2681470     1.1980900     0.6161180
  C       -1.2007670     0.0876200    -0.1466910
  C        1.2007550     0.0876130     0.1466860
  C       -2.3558334    -0.7870316     0.3154740
  C        2.3406600    -0.7755100    -0.3093860
  H       -3.2816790    -0.2673730     0.1026340
  H       -2.2442300    -0.9671190     1.3811090
  H       -2.3071230    -1.7383610    -0.2054080
  H        2.3071510    -1.7383490     0.2054030
  H        3.2816780    -0.2673330    -0.1025910
  H        2.2442800    -0.9670870    -1.3811040
units angstrom
no_reorient  #important for SAPT in psi4, default
symmetry c1  #important for SAPT in psi4, default
}

set PROPERTIES_ORIGIN ["COM"]
properties('MP2/aug-cc-pvtz', properties = ['dipole'])
--------------------------------------------------------------------------

    Molecular point group: c1
  Charge       = 0
  Multiplicity = 1
  Basis Set: AUG-CC-PVTZ
    Blend: AUG-CC-PVTZ
  Basis Set: (AUG-CC-PVTZ AUX)
    Blend: AUG-CC-PVTZ-JKFIT

    Orbital Energies [Eh]
    ---------------------

    Doubly Occupied:

       1A    -20.630780     2A    -20.566615     3A    -20.566432
       4A    -11.405126     5A    -11.404588     6A    -11.255863
       7A    -11.255571     8A     -1.487100     9A     -1.406917
      10A     -1.366710    11A     -1.056281    12A     -1.019427
      13A     -0.871121    14A     -0.741982    15A     -0.702765
      16A     -0.698210    17A     -0.684663    18A     -0.627595
      19A     -0.622582    20A     -0.601531    21A     -0.586068
      22A     -0.581384    23A     -0.559904    24A     -0.521901
      25A     -0.483727    26A     -0.481170    27A     -0.445350

  @DF-RHF Final Energy:  -379.72151986807000

   => Energetics <=

    Nuclear Repulsion Energy =            300.7148641831064992
    One-Electron Energy =               -1115.6100443351265312
    Two-Electron Energy =                 435.1736602839499710
    Total Energy =                       -379.7215198680700041
  Basis Set: (AUG-CC-PVTZ AUX)
    Blend: AUG-CC-PVTZ-RI
    Molecular point group: c1

    Geometry (in Angstrom), charge = 0, multiplicity = 1:

       Center              X                  Y                   Z               Mass
    ------------   -----------------  -----------------  -----------------  -----------------
         O            0.001793240064    -0.677503985533    -0.000733281851    15.994914619570
         O           -1.266378759936     1.141721014467    -0.616823281851    15.994914619570
         O            1.269934240064     1.141715014467     0.615403718149    15.994914619570
         C           -1.198979759936     0.031245014467    -0.147405281851    12.000000000000
         C            1.202542240064     0.031238014467     0.145971718149    12.000000000000
         C           -2.354046159936    -0.843406585533     0.314759718149    12.000000000000
         C            2.342447240064    -0.831884985533    -0.310100281851    12.000000000000
         H           -3.279891759936    -0.323747985533     0.101919718149     1.007825032230
         H           -2.242442759936    -1.023493985533     1.380394718149     1.007825032230
         H           -2.305335759936    -1.794735985533    -0.206122281851     1.007825032230
         H            2.308938240064    -1.794723985533     0.204688718149     1.007825032230
         H            3.283465240064    -0.323707985533    -0.103305281851     1.007825032230
         H            2.246067240064    -1.023461985533    -1.381818281851     1.007825032230

  Basis Set: AUG-CC-PVTZ
    Blend: AUG-CC-PVTZ
  Basis Set: (AUG-CC-PVTZ AUX)
    Blend: AUG-CC-PVTZ-JKFIT
	 Reference Energy          =    -379.7215198680700041 [Eh]
	 Singles Energy            =      -0.0000000000000000 [Eh]
	 Same-Spin Energy          =      -0.3639395110091141 [Eh]
	 Opposite-Spin Energy      =      -1.1308829823438669 [Eh]
	 Correlation Energy        =      -1.4948224933529810 [Eh]
	 Total Energy              =    -381.2163423614229600 [Eh]

	 ================> DF-SCS-MP2 Energies <==================
	-----------------------------------------------------------
	 SCS Same-Spin Scale       =       0.3333333333333333 [-]
	 SCS Opposite-Spin Scale   =       1.2000000000000000 [-]
	 SCS Same-Spin Energy      =      -0.1213131703363714 [Eh]
	 SCS Opposite-Spin Energy  =      -1.3570595788126403 [Eh]
	 SCS Correlation Energy    =      -1.4783727491490117 [Eh]
	 SCS Total Energy          =    -381.1998926172190068 [Eh]
	-----------------------------------------------------------

  Dipole Moment: [D]
     X:     0.0223      Y:    -3.8435      Z:    -0.0090     Total:     3.8436

*** Psi4 exiting successfully. Buy a developer a beer!
