                               Psi4 1.3.2 release

  ==> Input File <==

--------------------------------------------------------------------------
#psi4
#
memory 32 gb

molecule  {
0 1
  O        0.0000880    -0.6211650    -0.0005950
  O       -1.2683150     1.1981060    -0.6159220
  O        1.2678170     1.1981120     0.6161180
  C       -1.1206324     0.2100421    -0.1370025
  C        1.2006690     0.0876850     0.1465060
  C       -2.3404400    -0.7756640     0.3095410
  C        2.3408080    -0.7753200    -0.3091130
  H       -3.2816210    -0.2684080     0.1012520
  H       -2.2447620    -0.9652410     1.3817000
  H       -2.3058710    -1.7394120    -0.2034460
  H        2.3088350    -1.7369770     0.2080250
  H        3.2815980    -0.2658330    -0.1045500
  H        2.2432560    -0.9696180    -1.3802210
units angstrom
no_reorient  #important for SAPT in psi4, default
symmetry c1  #important for SAPT in psi4, default
}

set PROPERTIES_ORIGIN ["COM"]
properties('MP2/aug-cc-pvtz', properties = ['dipole'])
--------------------------------------------------------------------------

    Molecular point group: c1
  Charge       = 0
  Multiplicity = 1
  Basis Set: AUG-CC-PVTZ
    Blend: AUG-CC-PVTZ
  Basis Set: (AUG-CC-PVTZ AUX)
    Blend: AUG-CC-PVTZ-JKFIT

    Orbital Energies [Eh]
    ---------------------

    Doubly Occupied:

       1A    -20.632524     2A    -20.578372     3A    -20.570190
       4A    -11.405232     5A    -11.394098     6A    -11.256073
       7A    -11.244404     8A     -1.516013     9A     -1.453314
      10A     -1.381957    11A     -1.047187    12A     -0.989937
      13A     -0.863454    14A     -0.753307    15A     -0.716311
      16A     -0.708762    17A     -0.693816    18A     -0.635677
      19A     -0.626693    20A     -0.598981    21A     -0.590326
      22A     -0.568339    23A     -0.555619    24A     -0.546333
      25A     -0.497624    26A     -0.482727    27A     -0.430780

  @DF-RHF Final Energy:  -379.70107904543829

   => Energetics <=

    Nuclear Repulsion Energy =            302.4642632863555036
    One-Electron Energy =               -1118.8545798435327470
    Two-Electron Energy =                 436.6892375117389520
    Total Energy =                       -379.7010790454382914
  Basis Set: (AUG-CC-PVTZ AUX)
    Blend: AUG-CC-PVTZ-RI
    Molecular point group: c1

    Geometry (in Angstrom), charge = 0, multiplicity = 1:

       Center              X                  Y                   Z               Mass
    ------------   -----------------  -----------------  -----------------  -----------------
         O           -0.009318327346    -0.693306561556    -0.001727762003    15.994914619570
         O           -1.277721327346     1.125964438444    -0.617054762003    15.994914619570
         O            1.258410672654     1.125970438444     0.614985237997    15.994914619570
         C           -1.130038727346     0.137900538444    -0.138135262003    12.000000000000
         C            1.191262672654     0.015543438444     0.145373237997    12.000000000000
         C           -2.349846327346    -0.847805561556     0.308408237997    12.000000000000
         C            2.331401672654    -0.847461561556    -0.310245762003    12.000000000000
         H           -3.291027327346    -0.340549561556     0.100119237997     1.007825032230
         H           -2.254168327346    -1.037382561556     1.380567237997     1.007825032230
         H           -2.315277327346    -1.811553561556    -0.204578762003     1.007825032230
         H            2.299428672654    -1.809118561556     0.206892237997     1.007825032230
         H            3.272191672654    -0.337974561556    -0.105682762003     1.007825032230
         H            2.233849672654    -1.041759561556    -1.381353762003     1.007825032230

  Basis Set: AUG-CC-PVTZ
    Blend: AUG-CC-PVTZ
  Basis Set: (AUG-CC-PVTZ AUX)
    Blend: AUG-CC-PVTZ-JKFIT
	 Reference Energy          =    -379.7010790454382914 [Eh]
	 Singles Energy            =      -0.0000000000000000 [Eh]
	 Same-Spin Energy          =      -0.3619641815778590 [Eh]
	 Opposite-Spin Energy      =      -1.1271666375724076 [Eh]
	 Correlation Energy        =      -1.4891308191502666 [Eh]
	 Total Energy              =    -381.1902098645885530 [Eh]

	 ================> DF-SCS-MP2 Energies <==================
	-----------------------------------------------------------
	 SCS Same-Spin Scale       =       0.3333333333333333 [-]
	 SCS Opposite-Spin Scale   =       1.2000000000000000 [-]
	 SCS Same-Spin Energy      =      -0.1206547271926197 [Eh]
	 SCS Opposite-Spin Energy  =      -1.3525999650868892 [Eh]
	 SCS Correlation Energy    =      -1.4732546922795089 [Eh]
	 SCS Total Energy          =    -381.1743337377178023 [Eh]
	-----------------------------------------------------------

  Dipole Moment: [D]
     X:     0.4245      Y:    -3.1897      Z:    -0.2599     Total:     3.2283

*** Psi4 exiting successfully. Buy a developer a beer!
