                               Psi4 1.3.2 release

  ==> Input File <==

--------------------------------------------------------------------------
#psi4
#
memory 32 gb

molecule  {
0 1
  O        0.0000880    -0.6211650    -0.0005950
  O       -1.1422396     1.1950370    -0.6243261
  O        1.2678170     1.1981120     0.6161180
  C       -1.2007280     0.0874770    -0.1468620
  C        1.2006690     0.0876850     0.1465060
  C       -2.3404400    -0.7756640     0.3095410
  C        2.3408080    -0.7753200    -0.3091130
  H       -3.2816210    -0.2684080     0.1012520
  H       -2.2447620    -0.9652410     1.3817000
  H       -2.3058710    -1.7394120    -0.2034460
  H        2.3088350    -1.7369770     0.2080250
  H        3.2815980    -0.2658330    -0.1045500
  H        2.2432560    -0.9696180    -1.3802210
units angstrom
no_reorient  #important for SAPT in psi4, default
symmetry c1  #important for SAPT in psi4, default
}

set PROPERTIES_ORIGIN ["COM"]
properties('MP2/aug-cc-pvtz', properties = ['dipole'])
--------------------------------------------------------------------------

    Molecular point group: c1
  Charge       = 0
  Multiplicity = 1
  Basis Set: AUG-CC-PVTZ
    Blend: AUG-CC-PVTZ
  Basis Set: (AUG-CC-PVTZ AUX)
    Blend: AUG-CC-PVTZ-JKFIT

    Orbital Energies [Eh]
    ---------------------

    Doubly Occupied:

       1A    -20.621738     2A    -20.564559     3A    -20.561245
       4A    -11.404284     5A    -11.399988     6A    -11.262708
       7A    -11.252779     8A     -1.486143     9A     -1.403088
      10A     -1.359360    11A     -1.058768    12A     -1.021478
      13A     -0.867328    14A     -0.739391    15A     -0.703363
      16A     -0.695611    17A     -0.681857    18A     -0.627927
      19A     -0.622941    20A     -0.601381    21A     -0.584406
      22A     -0.579338    23A     -0.557746    24A     -0.519287
      25A     -0.478900    26A     -0.478227    27A     -0.443814

  @DF-RHF Final Energy:  -379.71877743119097

   => Energetics <=

    Nuclear Repulsion Energy =            302.2418238319366992
    One-Electron Energy =               -1118.7658899418470355
    Two-Electron Energy =                 436.8052886787193643
    Total Energy =                       -379.7187774311909720
  Basis Set: (AUG-CC-PVTZ AUX)
    Blend: AUG-CC-PVTZ-RI
    Molecular point group: c1

    Geometry (in Angstrom), charge = 0, multiplicity = 1:

       Center              X                  Y                   Z               Mass
    ------------   -----------------  -----------------  -----------------  -----------------
         O           -0.019662349058    -0.678410507864     0.000749280687    15.994914619570
         O           -1.161989949058     1.137791492136    -0.622981819313    15.994914619570
         O            1.248066650942     1.140866492136     0.617462280687    15.994914619570
         C           -1.220478349058     0.030231492136    -0.145517719313    12.000000000000
         C            1.180918650942     0.030439492136     0.147850280687    12.000000000000
         C           -2.360190349058    -0.832909507864     0.310885280687    12.000000000000
         C            2.321057650942    -0.832565507864    -0.307768719313    12.000000000000
         H           -3.301371349058    -0.325653507864     0.102596280687     1.007825032230
         H           -2.264512349058    -1.022486507864     1.383044280687     1.007825032230
         H           -2.325621349058    -1.796657507864    -0.202101719313     1.007825032230
         H            2.289084650942    -1.794222507864     0.209369280687     1.007825032230
         H            3.261847650942    -0.323078507864    -0.103205719313     1.007825032230
         H            2.223505650942    -1.026863507864    -1.378876719313     1.007825032230

  Basis Set: AUG-CC-PVTZ
    Blend: AUG-CC-PVTZ
  Basis Set: (AUG-CC-PVTZ AUX)
    Blend: AUG-CC-PVTZ-JKFIT
	 Reference Energy          =    -379.7187774311909720 [Eh]
	 Singles Energy            =      -0.0000000000000000 [Eh]
	 Same-Spin Energy          =      -0.3642630247790508 [Eh]
	 Opposite-Spin Energy      =      -1.1310809281963543 [Eh]
	 Correlation Energy        =      -1.4953439529754051 [Eh]
	 Total Energy              =    -381.2141213841663898 [Eh]

	 ================> DF-SCS-MP2 Energies <==================
	-----------------------------------------------------------
	 SCS Same-Spin Scale       =       0.3333333333333333 [-]
	 SCS Opposite-Spin Scale   =       1.2000000000000000 [-]
	 SCS Same-Spin Energy      =      -0.1214210082596836 [Eh]
	 SCS Opposite-Spin Energy  =      -1.3572971138356251 [Eh]
	 SCS Correlation Energy    =      -1.4787181220953087 [Eh]
	 SCS Total Energy          =    -381.1974955532862737 [Eh]
	-----------------------------------------------------------

  Dipole Moment: [D]
     X:    -0.3897      Y:    -3.8916      Z:     0.0336     Total:     3.9112

*** Psi4 exiting successfully. Buy a developer a beer!
