                               Psi4 1.3.2 release

  ==> Input File <==

--------------------------------------------------------------------------
#psi4
#
memory 32 gb

molecule  {
0 1
  O        0.0677341    -0.5023410    -0.0538826
  O       -1.2683150     1.1981060    -0.6159220
  O        1.2678170     1.1981120     0.6161180
  C       -1.2007280     0.0874770    -0.1468620
  C        1.2006690     0.0876850     0.1465060
  C       -2.3404400    -0.7756640     0.3095410
  C        2.3408080    -0.7753200    -0.3091130
  H       -3.2816210    -0.2684080     0.1012520
  H       -2.2447620    -0.9652410     1.3817000
  H       -2.3058710    -1.7394120    -0.2034460
  H        2.3088350    -1.7369770     0.2080250
  H        3.2815980    -0.2658330    -0.1045500
  H        2.2432560    -0.9696180    -1.3802210
units angstrom
no_reorient  #important for SAPT in psi4, default
symmetry c1  #important for SAPT in psi4, default
}

set PROPERTIES_ORIGIN ["COM"]
properties('MP2/aug-cc-pvtz', properties = ['dipole'])
--------------------------------------------------------------------------

    Molecular point group: c1
  Charge       = 0
  Multiplicity = 1
  Basis Set: AUG-CC-PVTZ
    Blend: AUG-CC-PVTZ
  Basis Set: (AUG-CC-PVTZ AUX)
    Blend: AUG-CC-PVTZ-JKFIT

    Orbital Energies [Eh]
    ---------------------

    Doubly Occupied:

       1A    -20.628737     2A    -20.569213     3A    -20.541628
       4A    -11.413316     5A    -11.388031     6A    -11.268202
       7A    -11.248497     8A     -1.517390     9A     -1.406637
      10A     -1.360249    11A     -1.065880    12A     -1.023265
      13A     -0.903871    14A     -0.736572    15A     -0.716430
      16A     -0.702501    17A     -0.691084    18A     -0.631671
      19A     -0.624216    20A     -0.604571    21A     -0.581798
      22A     -0.573694    23A     -0.564395    24A     -0.516791
      25A     -0.478561    26A     -0.471249    27A     -0.443365

  @DF-RHF Final Energy:  -379.71813408120170

   => Energetics <=

    Nuclear Repulsion Energy =            303.6481100660634525
    One-Electron Energy =               -1121.3888654801382927
    Two-Electron Energy =                 438.0226213328730864
    Total Energy =                       -379.7181340812016970
  Basis Set: (AUG-CC-PVTZ AUX)
    Blend: AUG-CC-PVTZ-RI
    Molecular point group: c1

    Geometry (in Angstrom), charge = 0, multiplicity = 1:

       Center              X                  Y                   Z               Mass
    ------------   -----------------  -----------------  -----------------  -----------------
         O            0.057143372111    -0.578694963779    -0.045502194342    15.994914619570
         O           -1.278905727889     1.121752036221    -0.607541594342    15.994914619570
         O            1.257226272111     1.121758036221     0.624498405658    15.994914619570
         C           -1.211318727889     0.011123036221    -0.138481594342    12.000000000000
         C            1.190078272111     0.011331036221     0.154886405658    12.000000000000
         C           -2.351030727889    -0.852017963779     0.317921405658    12.000000000000
         C            2.330217272111    -0.851673963779    -0.300732594342    12.000000000000
         H           -3.292211727889    -0.344761963779     0.109632405658     1.007825032230
         H           -2.255352727889    -1.041594963779     1.390080405658     1.007825032230
         H           -2.316461727889    -1.815765963779    -0.195065594342     1.007825032230
         H            2.298244272111    -1.813330963779     0.216405405658     1.007825032230
         H            3.271007272111    -0.342186963779    -0.096169594342     1.007825032230
         H            2.232665272111    -1.045971963779    -1.371840594342     1.007825032230

  Basis Set: AUG-CC-PVTZ
    Blend: AUG-CC-PVTZ
  Basis Set: (AUG-CC-PVTZ AUX)
    Blend: AUG-CC-PVTZ-JKFIT
	 Reference Energy          =    -379.7181340812016970 [Eh]
	 Singles Energy            =      -0.0000000000000000 [Eh]
	 Same-Spin Energy          =      -0.3626071083327780 [Eh]
	 Opposite-Spin Energy      =      -1.1266874528129587 [Eh]
	 Correlation Energy        =      -1.4892945611457367 [Eh]
	 Total Energy              =    -381.2074286423474518 [Eh]

	 ================> DF-SCS-MP2 Energies <==================
	-----------------------------------------------------------
	 SCS Same-Spin Scale       =       0.3333333333333333 [-]
	 SCS Opposite-Spin Scale   =       1.2000000000000000 [-]
	 SCS Same-Spin Energy      =      -0.1208690361109260 [Eh]
	 SCS Opposite-Spin Energy  =      -1.3520249433755505 [Eh]
	 SCS Correlation Energy    =      -1.4728939794864764 [Eh]
	 SCS Total Energy          =    -381.1910280606881543 [Eh]
	-----------------------------------------------------------

  Dipole Moment: [D]
     X:    -0.8543      Y:    -4.2758      Z:    -0.0357     Total:     4.3605

*** Psi4 exiting successfully. Buy a developer a beer!
