                               Psi4 1.3.2 release

  ==> Input File <==

--------------------------------------------------------------------------
#psi4
#
memory 32 gb

molecule  {
0 1
  O        0.0000880    -0.6211650    -0.0005950
  O       -1.2683150     1.1981060    -0.6159220
  O        1.2678170     1.1981120     0.6161180
  C       -1.2715226     0.1580845    -0.1780949
  C        1.2006690     0.0876850     0.1465060
  C       -2.3404400    -0.7756640     0.3095410
  C        2.3408080    -0.7753200    -0.3091130
  H       -3.2816210    -0.2684080     0.1012520
  H       -2.2447620    -0.9652410     1.3817000
  H       -2.3058710    -1.7394120    -0.2034460
  H        2.3088350    -1.7369770     0.2080250
  H        3.2815980    -0.2658330    -0.1045500
  H        2.2432560    -0.9696180    -1.3802210
units angstrom
no_reorient  #important for SAPT in psi4, default
symmetry c1  #important for SAPT in psi4, default
}

set PROPERTIES_ORIGIN ["COM"]
properties('MP2/aug-cc-pvtz', properties = ['dipole'])
--------------------------------------------------------------------------

    Molecular point group: c1
  Charge       = 0
  Multiplicity = 1
  Basis Set: AUG-CC-PVTZ
    Blend: AUG-CC-PVTZ
  Basis Set: (AUG-CC-PVTZ AUX)
    Blend: AUG-CC-PVTZ-JKFIT

    Orbital Energies [Eh]
    ---------------------

    Doubly Occupied:

       1A    -20.602689     2A    -20.587929     3A    -20.553531
       4A    -11.402604     5A    -11.389737     6A    -11.261321
       7A    -11.246001     8A     -1.497686     9A     -1.428054
      10A     -1.350004    11A     -1.051145    12A     -1.015558
      13A     -0.840708    14A     -0.747750    15A     -0.705214
      16A     -0.694747    17A     -0.677220    18A     -0.640975
      19A     -0.627062    20A     -0.597951    21A     -0.586717
      22A     -0.572634    23A     -0.558779    24A     -0.536002
      25A     -0.478433    26A     -0.476337    27A     -0.440176

  @DF-RHF Final Energy:  -379.71308779541937

   => Energetics <=

    Nuclear Repulsion Energy =            300.7891863179585812
    One-Electron Energy =               -1115.8706230513669198
    Two-Electron Energy =                 435.3683489379889124
    Total Energy =                       -379.7130877954193693
  Basis Set: (AUG-CC-PVTZ AUX)
    Blend: AUG-CC-PVTZ-RI
    Molecular point group: c1

    Geometry (in Angstrom), charge = 0, multiplicity = 1:

       Center              X                  Y                   Z               Mass
    ------------   -----------------  -----------------  -----------------  -----------------
         O            0.008427946660    -0.687195801505     0.003105136290    15.994914619570
         O           -1.259975053340     1.132075198495    -0.612221863710    15.994914619570
         O            1.276156946660     1.132081198495     0.619818136290    15.994914619570
         C           -1.263182653340     0.092053698495    -0.174394763710    12.000000000000
         C            1.209008946660     0.021654198495     0.150206136290    12.000000000000
         C           -2.332100053340    -0.841694801505     0.313241136290    12.000000000000
         C            2.349147946660    -0.841350801505    -0.305412863710    12.000000000000
         H           -3.273281053340    -0.334438801505     0.104952136290     1.007825032230
         H           -2.236422053340    -1.031271801505     1.385400136290     1.007825032230
         H           -2.297531053340    -1.805442801505    -0.199745863710     1.007825032230
         H            2.317174946660    -1.803007801505     0.211725136290     1.007825032230
         H            3.289937946660    -0.331863801505    -0.100849863710     1.007825032230
         H            2.251595946660    -1.035648801505    -1.376520863710     1.007825032230

  Basis Set: AUG-CC-PVTZ
    Blend: AUG-CC-PVTZ
  Basis Set: (AUG-CC-PVTZ AUX)
    Blend: AUG-CC-PVTZ-JKFIT
	 Reference Energy          =    -379.7130877954193693 [Eh]
	 Singles Energy            =      -0.0000000000000000 [Eh]
	 Same-Spin Energy          =      -0.3632994694852234 [Eh]
	 Opposite-Spin Energy      =      -1.1290453909964260 [Eh]
	 Correlation Energy        =      -1.4923448604816494 [Eh]
	 Total Energy              =    -381.2054326559010065 [Eh]

	 ================> DF-SCS-MP2 Energies <==================
	-----------------------------------------------------------
	 SCS Same-Spin Scale       =       0.3333333333333333 [-]
	 SCS Opposite-Spin Scale   =       1.2000000000000000 [-]
	 SCS Same-Spin Energy      =      -0.1210998231617411 [Eh]
	 SCS Opposite-Spin Energy  =      -1.3548544691957112 [Eh]
	 SCS Correlation Energy    =      -1.4759542923574522 [Eh]
	 SCS Total Energy          =    -381.1890420877768406 [Eh]
	-----------------------------------------------------------

  Dipole Moment: [D]
     X:    -0.9632      Y:    -3.3909      Z:    -0.2306     Total:     3.5326

*** Psi4 exiting successfully. Buy a developer a beer!
