                               Psi4 1.3.2 release

  ==> Input File <==

--------------------------------------------------------------------------
#psi4
#
memory 32 gb

molecule  {
0 1
  O        0.0000880    -0.6211650    -0.0005950
  O       -1.2683150     1.1981060    -0.6159220
  O        1.2678170     1.1981120     0.6161180
  C       -1.2468643     0.0013670    -0.1525507
  C        1.2006690     0.0876850     0.1465060
  C       -2.3404400    -0.7756640     0.3095410
  C        2.3408080    -0.7753200    -0.3091130
  H       -3.2816210    -0.2684080     0.1012520
  H       -2.2447620    -0.9652410     1.3817000
  H       -2.3058710    -1.7394120    -0.2034460
  H        2.3088350    -1.7369770     0.2080250
  H        3.2815980    -0.2658330    -0.1045500
  H        2.2432560    -0.9696180    -1.3802210
units angstrom
no_reorient  #important for SAPT in psi4, default
symmetry c1  #important for SAPT in psi4, default
}

set PROPERTIES_ORIGIN ["COM"]
properties('MP2/aug-cc-pvtz', properties = ['dipole'])
--------------------------------------------------------------------------

    Molecular point group: c1
  Charge       = 0
  Multiplicity = 1
  Basis Set: AUG-CC-PVTZ
    Blend: AUG-CC-PVTZ
  Basis Set: (AUG-CC-PVTZ AUX)
    Blend: AUG-CC-PVTZ-JKFIT

    Orbital Energies [Eh]
    ---------------------

    Doubly Occupied:

       1A    -20.630910     2A    -20.564995     3A    -20.558053
       4A    -11.412994     5A    -11.405378     6A    -11.260108
       7A    -11.256292     8A     -1.480082     9A     -1.390732
      10A     -1.333695    11A     -1.078898    12A     -1.031068
      13A     -0.875746    14A     -0.739313    15A     -0.701826
      16A     -0.697078    17A     -0.682511    18A     -0.631334
      19A     -0.623579    20A     -0.608737    21A     -0.585401
      22A     -0.570680    23A     -0.560096    24A     -0.507747
      25A     -0.475633    26A     -0.464770    27A     -0.447264

  @DF-RHF Final Energy:  -379.69975204899157

   => Energetics <=

    Nuclear Repulsion Energy =            300.2638793685198380
    One-Electron Energy =               -1114.7774202998332385
    Two-Electron Energy =                 434.8137888823218304
    Total Energy =                       -379.6997520489915701
  Basis Set: (AUG-CC-PVTZ AUX)
    Blend: AUG-CC-PVTZ-RI
    Molecular point group: c1

    Geometry (in Angstrom), charge = 0, multiplicity = 1:

       Center              X                  Y                   Z               Mass
    ------------   -----------------  -----------------  -----------------  -----------------
         O            0.005527871319    -0.668764175749     0.000100869793    15.994914619570
         O           -1.262875128681     1.150506824251    -0.615226130207    15.994914619570
         O            1.273256871319     1.150512824251     0.616813869793    15.994914619570
         C           -1.241424428681    -0.046232175749    -0.151854830207    12.000000000000
         C            1.206108871319     0.040085824251     0.147201869793    12.000000000000
         C           -2.335000128681    -0.823263175749     0.310236869793    12.000000000000
         C            2.346247871319    -0.822919175749    -0.308417130207    12.000000000000
         H           -3.276181128681    -0.316007175749     0.101947869793     1.007825032230
         H           -2.239322128681    -1.012840175749     1.382395869793     1.007825032230
         H           -2.300431128681    -1.787011175749    -0.202750130207     1.007825032230
         H            2.314274871319    -1.784576175749     0.208720869793     1.007825032230
         H            3.287037871319    -0.313432175749    -0.103854130207     1.007825032230
         H            2.248695871319    -1.017217175749    -1.379525130207     1.007825032230

  Basis Set: AUG-CC-PVTZ
    Blend: AUG-CC-PVTZ
  Basis Set: (AUG-CC-PVTZ AUX)
    Blend: AUG-CC-PVTZ-JKFIT
	 Reference Energy          =    -379.6997520489915701 [Eh]
	 Singles Energy            =      -0.0000000000000000 [Eh]
	 Same-Spin Energy          =      -0.3666991928607447 [Eh]
	 Opposite-Spin Energy      =      -1.1358434590729609 [Eh]
	 Correlation Energy        =      -1.5025426519337057 [Eh]
	 Total Energy              =    -381.2022947009252789 [Eh]

	 ================> DF-SCS-MP2 Energies <==================
	-----------------------------------------------------------
	 SCS Same-Spin Scale       =       0.3333333333333333 [-]
	 SCS Opposite-Spin Scale   =       1.2000000000000000 [-]
	 SCS Same-Spin Energy      =      -0.1222330642869149 [Eh]
	 SCS Opposite-Spin Energy  =      -1.3630121508875530 [Eh]
	 SCS Correlation Energy    =      -1.4852452151744679 [Eh]
	 SCS Total Energy          =    -381.1849972641660429 [Eh]
	-----------------------------------------------------------

  Dipole Moment: [D]
     X:    -0.1771      Y:    -4.2467      Z:     0.1601     Total:     4.2534

*** Psi4 exiting successfully. Buy a developer a beer!
