                               Psi4 1.3.2 release

  ==> Input File <==

--------------------------------------------------------------------------
#psi4
#
memory 32 gb

molecule  {
0 1
  O       -0.0251979    -0.6583316     0.0187430
  O       -1.2683150     1.1981060    -0.6159220
  O        1.2678170     1.1981120     0.6161180
  C       -1.2007280     0.0874770    -0.1468620
  C        1.2006690     0.0876850     0.1465060
  C       -2.3404400    -0.7756640     0.3095410
  C        2.3408080    -0.7753200    -0.3091130
  H       -3.2816210    -0.2684080     0.1012520
  H       -2.2447620    -0.9652410     1.3817000
  H       -2.3058710    -1.7394120    -0.2034460
  H        2.3088350    -1.7369770     0.2080250
  H        3.2815980    -0.2658330    -0.1045500
  H        2.2432560    -0.9696180    -1.3802210
units angstrom
no_reorient  #important for SAPT in psi4, default
symmetry c1  #important for SAPT in psi4, default
}

set PROPERTIES_ORIGIN ["COM"]
properties('MP2/aug-cc-pvtz', properties = ['dipole'])
--------------------------------------------------------------------------

    Molecular point group: c1
  Charge       = 0
  Multiplicity = 1
  Basis Set: AUG-CC-PVTZ
    Blend: AUG-CC-PVTZ
  Basis Set: (AUG-CC-PVTZ AUX)
    Blend: AUG-CC-PVTZ-JKFIT

    Orbital Energies [Eh]
    ---------------------

    Doubly Occupied:

       1A    -20.630574     2A    -20.573858     3A    -20.565607
       4A    -11.409748     5A    -11.401982     6A    -11.258481
       7A    -11.251710     8A     -1.479226     9A     -1.408896
      10A     -1.366470    11A     -1.056012    12A     -1.019364
      13A     -0.859707    14A     -0.745110    15A     -0.701306
      16A     -0.698071    17A     -0.681247    18A     -0.628630
      19A     -0.623423    20A     -0.601710    21A     -0.587652
      22A     -0.577335    23A     -0.555665    24A     -0.523213
      25A     -0.486121    26A     -0.481926    27A     -0.445978

  @DF-RHF Final Energy:  -379.71741148830722

   => Energetics <=

    Nuclear Repulsion Energy =            300.2444767924991424
    One-Electron Energy =               -1114.6857290138516419
    Two-Electron Energy =                 434.7238407330452219
    Total Energy =                       -379.7174114883072207
  Basis Set: (AUG-CC-PVTZ AUX)
    Blend: AUG-CC-PVTZ-RI
    Molecular point group: c1

    Geometry (in Angstrom), charge = 0, multiplicity = 1:

       Center              X                  Y                   Z               Mass
    ------------   -----------------  -----------------  -----------------  -----------------
         O           -0.021220219325    -0.710231825637     0.015738313192    15.994914619570
         O           -1.264337319325     1.146205774363    -0.618926686808    15.994914619570
         O            1.271794680675     1.146211774363     0.613113313192    15.994914619570
         C           -1.196750319325     0.035576774363    -0.149866686808    12.000000000000
         C            1.204646680675     0.035784774363     0.143501313192    12.000000000000
         C           -2.336462319325    -0.827564225637     0.306536313192    12.000000000000
         C            2.344785680675    -0.827220225637    -0.312117686808    12.000000000000
         H           -3.277643319325    -0.320308225637     0.098247313192     1.007825032230
         H           -2.240784319325    -1.017141225637     1.378695313192     1.007825032230
         H           -2.301893319325    -1.791312225637    -0.206450686808     1.007825032230
         H            2.312812680675    -1.788877225637     0.205020313192     1.007825032230
         H            3.285575680675    -0.317733225637    -0.107554686808     1.007825032230
         H            2.247233680675    -1.021518225637    -1.383225686808     1.007825032230

  Basis Set: AUG-CC-PVTZ
    Blend: AUG-CC-PVTZ
  Basis Set: (AUG-CC-PVTZ AUX)
    Blend: AUG-CC-PVTZ-JKFIT
	 Reference Energy          =    -379.7174114883072207 [Eh]
	 Singles Energy            =      -0.0000000000000000 [Eh]
	 Same-Spin Energy          =      -0.3647542446290921 [Eh]
	 Opposite-Spin Energy      =      -1.1327949202098728 [Eh]
	 Correlation Energy        =      -1.4975491648389649 [Eh]
	 Total Energy              =    -381.2149606531461927 [Eh]

	 ================> DF-SCS-MP2 Energies <==================
	-----------------------------------------------------------
	 SCS Same-Spin Scale       =       0.3333333333333333 [-]
	 SCS Opposite-Spin Scale   =       1.2000000000000000 [-]
	 SCS Same-Spin Energy      =      -0.1215847482096974 [Eh]
	 SCS Opposite-Spin Energy  =      -1.3593539042518474 [Eh]
	 SCS Correlation Energy    =      -1.4809386524615449 [Eh]
	 SCS Total Energy          =    -381.1983501407687527 [Eh]
	-----------------------------------------------------------

  Dipole Moment: [D]
     X:     0.2885      Y:    -3.7345      Z:     0.0049     Total:     3.7456

*** Psi4 exiting successfully. Buy a developer a beer!
