                               Psi4 1.4a3.dev225

  ==> Input File <==

--------------------------------------------------------------------------
#psi4
#
memory 32 gb

molecule  {
0 1
  O        0.0000060    -0.6211290    -0.0000190
  O       -1.2681660     1.1980960    -0.6161090
  O        1.2681470     1.1980900     0.6161180
  C       -1.1979761     0.0416375    -0.1272534
  C        1.2007550     0.0876130     0.1466860
  C       -2.3406430    -0.7755290     0.3093960
  C        2.3406600    -0.7755100    -0.3093860
  H       -3.2816790    -0.2673730     0.1026340
  H       -2.2442300    -0.9671190     1.3811090
  H       -2.3071230    -1.7383610    -0.2054080
  H        2.3071510    -1.7383490     0.2054030
  H        3.2816780    -0.2673330    -0.1025910
  H        2.2442800    -0.9670870    -1.3811040
units angstrom
no_reorient  #important for SAPT in psi4, default
symmetry c1  #important for SAPT in psi4, default
}

set PROPERTIES_ORIGIN ["COM"]
properties('MP2/aug-cc-pvtz', properties = ['dipole'])
--------------------------------------------------------------------------

    Molecular point group: c1
  Charge       = 0
  Multiplicity = 1
  Basis Set: AUG-CC-PVTZ
    Blend: AUG-CC-PVTZ
  Basis Set: (AUG-CC-PVTZ AUX)
    Blend: AUG-CC-PVTZ-JKFIT

    Orbital Energies [Eh]
    ---------------------

    Doubly Occupied:

       1A    -20.637607     2A    -20.569147     3A    -20.557444
       4A    -11.408578     5A    -11.407928     6A    -11.258439
       7A    -11.256739     8A     -1.492663     9A     -1.397264
      10A     -1.348154    11A     -1.066427    12A     -1.026916
      13A     -0.881076    14A     -0.742064    15A     -0.706057
      16A     -0.697503    17A     -0.687667    18A     -0.627032
      19A     -0.622064    20A     -0.604198    21A     -0.585114
      22A     -0.576525    23A     -0.562946    24A     -0.513994
      25A     -0.479952    26A     -0.472005    27A     -0.446613

  @DF-RHF Final Energy:  -379.71335131001217

   => Energetics <=

    Nuclear Repulsion Energy =            300.8923116065180920
    One-Electron Energy =               -1115.9470936376778809
    Two-Electron Energy =                 435.3414307211476171
    Total Energy =                       -379.7133513100121718
  Basis Set: (AUG-CC-PVTZ AUX)
    Blend: AUG-CC-PVTZ-RI
    Molecular point group: c1

    Geometry (in Angstrom), charge = 0, multiplicity = 1:

       Center              X                  Y                   Z               Mass
    ------------   -----------------  -----------------  -----------------  -----------------
         O           -0.000321549875    -0.673448786765    -0.002304511277    15.994914619570
         O           -1.268493549875     1.145776213235    -0.618394511277    15.994914619570
         O            1.267819450125     1.145770213235     0.613832488723    15.994914619570
         C           -1.198303649875    -0.010682286765    -0.129538911277    12.000000000000
         C            1.200427450125     0.035293213235     0.144400488723    12.000000000000
         C           -2.340970549875    -0.827848786765     0.307110488723    12.000000000000
         C            2.340332450125    -0.827829786765    -0.311671511277    12.000000000000
         H           -3.282006549875    -0.319692786765     0.100348488723     1.007825032230
         H           -2.244557549875    -1.019438786765     1.378823488723     1.007825032230
         H           -2.307450549875    -1.790680786765    -0.207693511277     1.007825032230
         H            2.306823450125    -1.790668786765     0.203117488723     1.007825032230
         H            3.281350450125    -0.319652786765    -0.104876511277     1.007825032230
         H            2.243952450125    -1.019406786765    -1.383389511277     1.007825032230

  Basis Set: AUG-CC-PVTZ
    Blend: AUG-CC-PVTZ
  Basis Set: (AUG-CC-PVTZ AUX)
    Blend: AUG-CC-PVTZ-JKFIT
	 Reference Energy          =    -379.7133513100121718 [Eh]
	 Singles Energy            =      -0.0000000000000000 [Eh]
	 Same-Spin Energy          =      -0.3652420480268861 [Eh]
	 Opposite-Spin Energy      =      -1.1332286664086633 [Eh]
	 Correlation Energy        =      -1.4984707144355494 [Eh]
	 Total Energy              =    -381.2118220244477129 [Eh]

	 ================> DF-SCS-MP2 Energies <==================
	-----------------------------------------------------------
	 SCS Same-Spin Scale       =       0.3333333333333333 [-]
	 SCS Opposite-Spin Scale   =       1.2000000000000000 [-]
	 SCS Same-Spin Energy      =      -0.1217473493422954 [Eh]
	 SCS Opposite-Spin Energy  =      -1.3598743996903959 [Eh]
	 SCS Correlation Energy    =      -1.4816217490326913 [Eh]
	 SCS Total Energy          =    -381.1949730590448553 [Eh]
	-----------------------------------------------------------

  Dipole Moment: [D]
     X:     0.1693      Y:    -4.1244      Z:     0.1300     Total:     4.1299

*** Psi4 exiting successfully. Buy a developer a beer!
