                               Psi4 1.3.2 release

  ==> Input File <==

--------------------------------------------------------------------------
#psi4
#
memory 32 gb

molecule  {
0 1
  O       -1.4373610     0.6812660     0.0112400
  N        0.8840130     0.5088410    -0.0326410
  N        1.9094790    -0.3796650    -0.0187050
  C       -0.3281200    -0.1042590     0.0031940
  C       -0.1032490    -1.4732180     0.0219040
  C        1.1440790     1.9331410     0.0175110
  C        1.3002790    -1.5787310     0.0070160
  C       -2.6563940    -0.0670400    -0.0135030
  H       -0.8339413    -2.2702383    -0.0651681
  H        1.1952250     2.2834660     1.0517640
  H        2.0986020     2.1064990    -0.4777900
  H        0.3432740     2.4564130    -0.5057130
  H        1.9052260    -2.4764620     0.0069120
  H       -3.4562640     0.6719480    -0.0131020
  H       -2.7349570    -0.7043590     0.8727740
  H       -2.7131850    -0.6822330    -0.9168940
units angstrom
no_reorient  #important for SAPT in psi4, default
symmetry c1  #important for SAPT in psi4, default
}

set PROPERTIES_ORIGIN ["COM"]
properties('MP2/aug-cc-pvtz', properties = ['dipole'])
--------------------------------------------------------------------------

    Molecular point group: c1
  Charge       = 0
  Multiplicity = 1
  Basis Set: AUG-CC-PVTZ
    Blend: AUG-CC-PVTZ
  Basis Set: (AUG-CC-PVTZ AUX)
    Blend: AUG-CC-PVTZ-JKFIT

    Orbital Energies [Eh]
    ---------------------

    Doubly Occupied:

       1A    -20.609239     2A    -15.628607     3A    -15.573859
       4A    -11.335645     5A    -11.298006     6A    -11.264182
       7A    -11.252261     8A    -11.216046     9A     -1.436853
      10A     -1.356468    11A     -1.114141    12A     -1.049585
      13A     -0.964292    14A     -0.933921    15A     -0.804644
      16A     -0.771091    17A     -0.726109    18A     -0.682052
      19A     -0.644440    20A     -0.632989    21A     -0.620510
      22A     -0.593849    23A     -0.577506    24A     -0.545753
      25A     -0.545250    26A     -0.523416    27A     -0.501017
      28A     -0.448272    29A     -0.349770    30A     -0.320877

  @DF-RHF Final Energy:  -377.84336826838694

   => Energetics <=

    Nuclear Repulsion Energy =            377.4720557891594126
    One-Electron Energy =               -1261.9895474135546465
    Two-Electron Energy =                 506.6741233560082946
    Total Energy =                       -377.8433682683869392
  Basis Set: (AUG-CC-PVTZ AUX)
    Blend: AUG-CC-PVTZ-RI
    Molecular point group: c1

    Geometry (in Angstrom), charge = 0, multiplicity = 1:

       Center              X                  Y                   Z               Mass
    ------------   -----------------  -----------------  -----------------  -----------------
         O           -1.474637083367     0.693578285181     0.012608343394    15.994914619570
         N            0.846736916633     0.521153285181    -0.031272656606    14.003074004430
         N            1.872202916633    -0.367352714819    -0.017336656606    14.003074004430
         C           -0.365396083367    -0.091946714819     0.004562343394    12.000000000000
         C           -0.140525083367    -1.460905714819     0.023272343394    12.000000000000
         C            1.106802916633     1.945453285181     0.018879343394    12.000000000000
         C            1.263002916633    -1.566418714819     0.008384343394    12.000000000000
         C           -2.693670083367    -0.054727714819    -0.012134656606    12.000000000000
         H           -0.871217383367    -2.257926014819    -0.063799756606     1.007825032230
         H            1.157948916633     2.295778285181     1.053132343394     1.007825032230
         H            2.061325916633     2.118811285181    -0.476421656606     1.007825032230
         H            0.305997916633     2.468725285181    -0.504344656606     1.007825032230
         H            1.867949916633    -2.464149714819     0.008280343394     1.007825032230
         H           -3.493540083367     0.684260285181    -0.011733656606     1.007825032230
         H           -2.772233083367    -0.692046714819     0.874142343394     1.007825032230
         H           -2.750461083367    -0.669920714819    -0.915525656606     1.007825032230

  Basis Set: AUG-CC-PVTZ
    Blend: AUG-CC-PVTZ
  Basis Set: (AUG-CC-PVTZ AUX)
    Blend: AUG-CC-PVTZ-JKFIT
	 Reference Energy          =    -377.8433682683869392 [Eh]
	 Singles Energy            =      -0.0000000000000000 [Eh]
	 Same-Spin Energy          =      -0.3964578127285086 [Eh]
	 Opposite-Spin Energy      =      -1.2396650075222222 [Eh]
	 Correlation Energy        =      -1.6361228202507307 [Eh]
	 Total Energy              =    -379.4794910886376442 [Eh]

	 ================> DF-SCS-MP2 Energies <==================
	-----------------------------------------------------------
	 SCS Same-Spin Scale       =       0.3333333333333333 [-]
	 SCS Opposite-Spin Scale   =       1.2000000000000000 [-]
	 SCS Same-Spin Energy      =      -0.1321526042428362 [Eh]
	 SCS Opposite-Spin Energy  =      -1.4875980090266665 [Eh]
	 SCS Correlation Energy    =      -1.6197506132695028 [Eh]
	 SCS Total Energy          =    -379.4631188816564418 [Eh]
	-----------------------------------------------------------

  Dipole Moment: [D]
     X:    -2.9916      Y:     0.6523      Z:    -0.0842     Total:     3.0631

*** Psi4 exiting successfully. Buy a developer a beer!
