                               Psi4 1.3.2 release

  ==> Input File <==

--------------------------------------------------------------------------
#psi4
#
memory 32 gb

molecule  {
0 1
  O       -1.4373610     0.6812660     0.0112400
  N        0.8840130     0.5088410    -0.0326410
  N        1.9094790    -0.3796650    -0.0187050
  C       -0.3281200    -0.1042590     0.0031940
  C       -0.1072875    -1.4767083    -0.1780248
  C        1.1440790     1.9331410     0.0175110
  C        1.3002790    -1.5787310     0.0070160
  C       -2.6563940    -0.0670400    -0.0135030
  H       -0.8330430    -2.2689870     0.0348200
  H        1.1952250     2.2834660     1.0517640
  H        2.0986020     2.1064990    -0.4777900
  H        0.3432740     2.4564130    -0.5057130
  H        1.9052260    -2.4764620     0.0069120
  H       -3.4562640     0.6719480    -0.0131020
  H       -2.7349570    -0.7043590     0.8727740
  H       -2.7131850    -0.6822330    -0.9168940
units angstrom
no_reorient  #important for SAPT in psi4, default
symmetry c1  #important for SAPT in psi4, default
}

set PROPERTIES_ORIGIN ["COM"]
properties('MP2/aug-cc-pvtz', properties = ['dipole'])
--------------------------------------------------------------------------

    Molecular point group: c1
  Charge       = 0
  Multiplicity = 1
  Basis Set: AUG-CC-PVTZ
    Blend: AUG-CC-PVTZ
  Basis Set: (AUG-CC-PVTZ AUX)
    Blend: AUG-CC-PVTZ-JKFIT

    Orbital Energies [Eh]
    ---------------------

    Doubly Occupied:

       1A    -20.610650     2A    -15.629698     3A    -15.574870
       4A    -11.339574     5A    -11.298192     6A    -11.264931
       7A    -11.254978     8A    -11.218765     9A     -1.438004
      10A     -1.357109    11A     -1.114261    12A     -1.047816
      13A     -0.964036    14A     -0.934078    15A     -0.804200
      16A     -0.770159    17A     -0.724896    18A     -0.682638
      19A     -0.643844    20A     -0.634016    21A     -0.617353
      22A     -0.592268    23A     -0.574253    24A     -0.547822
      25A     -0.543795    26A     -0.522411    27A     -0.501328
      28A     -0.448012    29A     -0.349169    30A     -0.321414

  @DF-RHF Final Energy:  -377.83436027061737

   => Energetics <=

    Nuclear Repulsion Energy =            377.0112061093689704
    One-Electron Energy =               -1261.0420466273319562
    Two-Electron Energy =                 506.1964802473456757
    Total Energy =                       -377.8343602706173670
  Basis Set: (AUG-CC-PVTZ AUX)
    Blend: AUG-CC-PVTZ-RI
    Molecular point group: c1

    Geometry (in Angstrom), charge = 0, multiplicity = 1:

       Center              X                  Y                   Z               Mass
    ------------   -----------------  -----------------  -----------------  -----------------
         O           -1.474212711456     0.693940780101     0.033117891545    15.994914619570
         N            0.847161288544     0.521515780101    -0.010763108455    14.003074004430
         N            1.872627288544    -0.366990219899     0.003172891545    14.003074004430
         C           -0.364971711456    -0.091584219899     0.025071891545    12.000000000000
         C           -0.144139211456    -1.464033519899    -0.156146908455    12.000000000000
         C            1.107227288544     1.945815780101     0.039388891545    12.000000000000
         C            1.263427288544    -1.566056219899     0.028893891545    12.000000000000
         C           -2.693245711456    -0.054365219899     0.008374891545    12.000000000000
         H           -0.869894711456    -2.256312219899     0.056697891545     1.007825032230
         H            1.158373288544     2.296140780101     1.073641891545     1.007825032230
         H            2.061750288544     2.119173780101    -0.455912108455     1.007825032230
         H            0.306422288544     2.469087780101    -0.483835108455     1.007825032230
         H            1.868374288544    -2.463787219899     0.028789891545     1.007825032230
         H           -3.493115711456     0.684622780101     0.008775891545     1.007825032230
         H           -2.771808711456    -0.691684219899     0.894651891545     1.007825032230
         H           -2.750036711456    -0.669558219899    -0.895016108455     1.007825032230

  Basis Set: AUG-CC-PVTZ
    Blend: AUG-CC-PVTZ
  Basis Set: (AUG-CC-PVTZ AUX)
    Blend: AUG-CC-PVTZ-JKFIT
	 Reference Energy          =    -377.8343602706173670 [Eh]
	 Singles Energy            =      -0.0000000000000000 [Eh]
	 Same-Spin Energy          =      -0.3967304984523210 [Eh]
	 Opposite-Spin Energy      =      -1.2407916643750512 [Eh]
	 Correlation Energy        =      -1.6375221628273722 [Eh]
	 Total Energy              =    -379.4718824334447618 [Eh]

	 ================> DF-SCS-MP2 Energies <==================
	-----------------------------------------------------------
	 SCS Same-Spin Scale       =       0.3333333333333333 [-]
	 SCS Opposite-Spin Scale   =       1.2000000000000000 [-]
	 SCS Same-Spin Energy      =      -0.1322434994841070 [Eh]
	 SCS Opposite-Spin Energy  =      -1.4889499972500613 [Eh]
	 SCS Correlation Energy    =      -1.6211934967341683 [Eh]
	 SCS Total Energy          =    -379.4555537673515460 [Eh]
	-----------------------------------------------------------

  Dipole Moment: [D]
     X:    -2.9409      Y:     0.7432      Z:     0.2187     Total:     3.0412

*** Psi4 exiting successfully. Buy a developer a beer!
