                               Psi4 1.3.2 release

  ==> Input File <==

--------------------------------------------------------------------------
#psi4
#
memory 32 gb

molecule  {
0 1
  O       -1.4373610     0.6812660     0.0112400
  N        0.8840130     0.5088410    -0.0326410
  N        1.9094790    -0.3796650    -0.0187050
  C       -0.3281200    -0.1042590     0.0031940
  C       -0.1032490    -1.4732180     0.0219040
  C        1.1440790     1.9331410     0.0175110
  C        1.3002790    -1.5787310     0.0070160
  C       -2.6563940    -0.0670400    -0.0135030
  H       -0.8357379    -2.2727408    -0.2651444
  H        1.1952250     2.2834660     1.0517640
  H        2.0986020     2.1064990    -0.4777900
  H        0.3432740     2.4564130    -0.5057130
  H        1.9052260    -2.4764620     0.0069120
  H       -3.4562640     0.6719480    -0.0131020
  H       -2.7349570    -0.7043590     0.8727740
  H       -2.7131850    -0.6822330    -0.9168940
units angstrom
no_reorient  #important for SAPT in psi4, default
symmetry c1  #important for SAPT in psi4, default
}

set PROPERTIES_ORIGIN ["COM"]
properties('MP2/aug-cc-pvtz', properties = ['dipole'])
--------------------------------------------------------------------------

    Molecular point group: c1
  Charge       = 0
  Multiplicity = 1
  Basis Set: AUG-CC-PVTZ
    Blend: AUG-CC-PVTZ
  Basis Set: (AUG-CC-PVTZ AUX)
    Blend: AUG-CC-PVTZ-JKFIT

    Orbital Energies [Eh]
    ---------------------

    Doubly Occupied:

       1A    -20.609807     2A    -15.629390     3A    -15.574530
       4A    -11.336658     5A    -11.297860     6A    -11.264564
       7A    -11.252908     8A    -11.218740     9A     -1.437368
      10A     -1.357185    11A     -1.114657    12A     -1.049602
      13A     -0.963898    14A     -0.934036    15A     -0.803700
      16A     -0.770935    17A     -0.724571    18A     -0.682596
      19A     -0.642444    20A     -0.633269    21A     -0.617633
      22A     -0.593300    23A     -0.576144    24A     -0.547003
      25A     -0.543663    26A     -0.522008    27A     -0.501056
      28A     -0.448517    29A     -0.350027    30A     -0.321329

  @DF-RHF Final Energy:  -377.83864036044002

   => Energetics <=

    Nuclear Repulsion Energy =            377.3301571996154280
    One-Electron Energy =               -1261.6988033015491055
    Two-Electron Energy =                 506.5300057414936532
    Total Energy =                       -377.8386403604400243
  Basis Set: (AUG-CC-PVTZ AUX)
    Blend: AUG-CC-PVTZ-RI
    Molecular point group: c1

    Geometry (in Angstrom), charge = 0, multiplicity = 1:

       Center              X                  Y                   Z               Mass
    ------------   -----------------  -----------------  -----------------  -----------------
         O           -1.474620925958     0.693600790979     0.014406795415    15.994914619570
         N            0.846753074042     0.521175790979    -0.029474204585    14.003074004430
         N            1.872219074042    -0.367330209021    -0.015538204585    14.003074004430
         C           -0.365379925958    -0.091924209021     0.006360795415    12.000000000000
         C           -0.140508925958    -1.460883209021     0.025070795415    12.000000000000
         C            1.106819074042     1.945475790979     0.020677795415    12.000000000000
         C            1.263019074042    -1.566396209021     0.010182795415    12.000000000000
         C           -2.693653925958    -0.054705209021    -0.010336204585    12.000000000000
         H           -0.872997825958    -2.260406009021    -0.261977604585     1.007825032230
         H            1.157965074042     2.295800790979     1.054930795415     1.007825032230
         H            2.061342074042     2.118833790979    -0.474623204585     1.007825032230
         H            0.306014074042     2.468747790979    -0.502546204585     1.007825032230
         H            1.867966074042    -2.464127209021     0.010078795415     1.007825032230
         H           -3.493523925958     0.684282790979    -0.009935204585     1.007825032230
         H           -2.772216925958    -0.692024209021     0.875940795415     1.007825032230
         H           -2.750444925958    -0.669898209021    -0.913727204585     1.007825032230

  Basis Set: AUG-CC-PVTZ
    Blend: AUG-CC-PVTZ
  Basis Set: (AUG-CC-PVTZ AUX)
    Blend: AUG-CC-PVTZ-JKFIT
	 Reference Energy          =    -377.8386403604400243 [Eh]
	 Singles Energy            =      -0.0000000000000000 [Eh]
	 Same-Spin Energy          =      -0.3966195188155733 [Eh]
	 Opposite-Spin Energy      =      -1.2401002563613930 [Eh]
	 Correlation Energy        =      -1.6367197751769664 [Eh]
	 Total Energy              =    -379.4753601356169952 [Eh]

	 ================> DF-SCS-MP2 Energies <==================
	-----------------------------------------------------------
	 SCS Same-Spin Scale       =       0.3333333333333333 [-]
	 SCS Opposite-Spin Scale   =       1.2000000000000000 [-]
	 SCS Same-Spin Energy      =      -0.1322065062718578 [Eh]
	 SCS Opposite-Spin Energy  =      -1.4881203076336715 [Eh]
	 SCS Correlation Energy    =      -1.6203268139055294 [Eh]
	 SCS Total Energy          =    -379.4589671743455597 [Eh]
	-----------------------------------------------------------

  Dipole Moment: [D]
     X:    -2.9445      Y:     0.7063      Z:    -0.2533     Total:     3.0386

*** Psi4 exiting successfully. Buy a developer a beer!
