                               Psi4 1.3.2 release

  ==> Input File <==

--------------------------------------------------------------------------
#psi4
#
memory 32 gb

molecule  {
0 1
  O       -1.4373610     0.6812660     0.0112400
  N        0.8840130     0.5088410    -0.0326410
  N        1.9094790    -0.3796650    -0.0187050
  C       -0.3281200    -0.1042590     0.0031940
  C       -0.1032490    -1.4732180     0.0219040
  C        1.1440790     1.9331410     0.0175110
  C        1.3002790    -1.5787310     0.0070160
  C       -2.6563940    -0.0670400    -0.0135030
  H       -0.8330430    -2.2689870     0.0348200
  H        1.1952250     2.2834660     1.0517640
  H        2.0986020     2.1064990    -0.4777900
  H        0.3432740     2.4564130    -0.5057130
  H        1.9086137    -2.4734151     0.2568705
  H       -3.4562640     0.6719480    -0.0131020
  H       -2.7349570    -0.7043590     0.8727740
  H       -2.7131850    -0.6822330    -0.9168940
units angstrom
no_reorient  #important for SAPT in psi4, default
symmetry c1  #important for SAPT in psi4, default
}

set PROPERTIES_ORIGIN ["COM"]
properties('MP2/aug-cc-pvtz', properties = ['dipole'])
--------------------------------------------------------------------------

    Molecular point group: c1
  Charge       = 0
  Multiplicity = 1
  Basis Set: AUG-CC-PVTZ
    Blend: AUG-CC-PVTZ
  Basis Set: (AUG-CC-PVTZ AUX)
    Blend: AUG-CC-PVTZ-JKFIT

    Orbital Energies [Eh]
    ---------------------

    Doubly Occupied:

       1A    -20.609332     2A    -15.629027     3A    -15.574619
       4A    -11.335728     5A    -11.298143     6A    -11.264519
       7A    -11.254512     8A    -11.215878     9A     -1.436998
      10A     -1.356856    11A     -1.114136    12A     -1.049916
      13A     -0.964512    14A     -0.933383    15A     -0.802932
      16A     -0.771180    17A     -0.724657    18A     -0.682265
      19A     -0.644152    20A     -0.633242    21A     -0.621206
      22A     -0.593465    23A     -0.574002    24A     -0.548241
      25A     -0.543509    26A     -0.522598    27A     -0.500632
      28A     -0.448584    29A     -0.349227    30A     -0.320982

  @DF-RHF Final Energy:  -377.83978956296960

   => Energetics <=

    Nuclear Repulsion Energy =            377.3843928161033432
    One-Electron Energy =               -1261.8114997112679703
    Two-Electron Energy =                 506.5873173321949707
    Total Energy =                       -377.8397895629695995
  Basis Set: (AUG-CC-PVTZ AUX)
    Blend: AUG-CC-PVTZ-RI
    Molecular point group: c1

    Geometry (in Angstrom), charge = 0, multiplicity = 1:

       Center              X                  Y                   Z               Mass
    ------------   -----------------  -----------------  -----------------  -----------------
         O           -1.474675628762     0.693539630068     0.009461159603    15.994914619570
         N            0.846698371238     0.521114630068    -0.034419840397    14.003074004430
         N            1.872164371238    -0.367391369932    -0.020483840397    14.003074004430
         C           -0.365434628762    -0.091985369932     0.001415159603    12.000000000000
         C           -0.140563628762    -1.460944369932     0.020125159603    12.000000000000
         C            1.106764371238     1.945414630068     0.015732159603    12.000000000000
         C            1.262964371238    -1.566457369932     0.005237159603    12.000000000000
         C           -2.693708628762    -0.054766369932    -0.015281840397    12.000000000000
         H           -0.870357628762    -2.256713369932     0.033041159603     1.007825032230
         H            1.157910371238     2.295739630068     1.049985159603     1.007825032230
         H            2.061287371238     2.118772630068    -0.479568840397     1.007825032230
         H            0.305959371238     2.468686630068    -0.507491840397     1.007825032230
         H            1.871299071238    -2.461141469932     0.255091659603     1.007825032230
         H           -3.493578628762     0.684221630068    -0.014880840397     1.007825032230
         H           -2.772271628762    -0.692085369932     0.870995159603     1.007825032230
         H           -2.750499628762    -0.669959369932    -0.918672840397     1.007825032230

  Basis Set: AUG-CC-PVTZ
    Blend: AUG-CC-PVTZ
  Basis Set: (AUG-CC-PVTZ AUX)
    Blend: AUG-CC-PVTZ-JKFIT
	 Reference Energy          =    -377.8397895629695995 [Eh]
	 Singles Energy            =      -0.0000000000000000 [Eh]
	 Same-Spin Energy          =      -0.3966930938354303 [Eh]
	 Opposite-Spin Energy      =      -1.2401936293041511 [Eh]
	 Correlation Energy        =      -1.6368867231395814 [Eh]
	 Total Energy              =    -379.4766762861091820 [Eh]

	 ================> DF-SCS-MP2 Energies <==================
	-----------------------------------------------------------
	 SCS Same-Spin Scale       =       0.3333333333333333 [-]
	 SCS Opposite-Spin Scale   =       1.2000000000000000 [-]
	 SCS Same-Spin Energy      =      -0.1322310312784767 [Eh]
	 SCS Opposite-Spin Energy  =      -1.4882323551649812 [Eh]
	 SCS Correlation Energy    =      -1.6204633864434579 [Eh]
	 SCS Total Energy          =    -379.4602529494130749 [Eh]
	-----------------------------------------------------------

  Dipole Moment: [D]
     X:    -3.0196      Y:     0.6994      Z:     0.1806     Total:     3.1048

*** Psi4 exiting successfully. Buy a developer a beer!
