                               Psi4 1.3.2 release

  ==> Input File <==

--------------------------------------------------------------------------
#psi4
#
memory 32 gb

molecule  {
0 1
  O       -1.4373610     0.6812660     0.0112400
  N        0.8840130     0.5088410    -0.0326410
  N        1.9094790    -0.3796650    -0.0187050
  C       -0.3281200    -0.1042590     0.0031940
  C       -0.1032490    -1.4732180     0.0219040
  C        1.1440790     1.9331410     0.0175110
  C        1.3002790    -1.5787310     0.0070160
  C       -2.6563940    -0.0670400    -0.0135030
  H       -0.8330430    -2.2689870     0.0348200
  H        1.1952250     2.2834660     1.0517640
  H        2.0986020     2.1064990    -0.4777900
  H        0.3432740     2.4564130    -0.5057130
  H        1.9092913    -2.4728057     0.3068622
  H       -3.4562640     0.6719480    -0.0131020
  H       -2.7349570    -0.7043590     0.8727740
  H       -2.7131850    -0.6822330    -0.9168940
units angstrom
no_reorient  #important for SAPT in psi4, default
symmetry c1  #important for SAPT in psi4, default
}

set PROPERTIES_ORIGIN ["COM"]
properties('MP2/aug-cc-pvtz', properties = ['dipole'])
--------------------------------------------------------------------------

    Molecular point group: c1
  Charge       = 0
  Multiplicity = 1
  Basis Set: AUG-CC-PVTZ
    Blend: AUG-CC-PVTZ
  Basis Set: (AUG-CC-PVTZ AUX)
    Blend: AUG-CC-PVTZ-JKFIT

    Orbital Energies [Eh]
    ---------------------

    Doubly Occupied:

       1A    -20.609406     2A    -15.629316     3A    -15.574993
       4A    -11.335830     5A    -11.298199     6A    -11.264680
       7A    -11.255527     8A    -11.215984     9A     -1.437097
      10A     -1.357089    11A     -1.114188    12A     -1.050073
      13A     -0.964592    14A     -0.933189    15A     -0.802220
      16A     -0.771217    17A     -0.723975    18A     -0.682392
      19A     -0.643886    20A     -0.633385    21A     -0.621335
      22A     -0.593320    23A     -0.572755    24A     -0.548752
      25A     -0.542890    26A     -0.522201    27A     -0.500423
      28A     -0.448705    29A     -0.349090    30A     -0.321061

  @DF-RHF Final Energy:  -377.83776824722219

   => Energetics <=

    Nuclear Repulsion Energy =            377.3391965393076930
    One-Electron Energy =               -1261.7183810053111301
    Two-Electron Energy =                 506.5414162187811939
    Total Energy =                       -377.8377682472221863
  Basis Set: (AUG-CC-PVTZ AUX)
    Blend: AUG-CC-PVTZ-RI
    Molecular point group: c1

    Geometry (in Angstrom), charge = 0, multiplicity = 1:

       Center              X                  Y                   Z               Mass
    ------------   -----------------  -----------------  -----------------  -----------------
         O           -1.474681722639     0.693534149535     0.009011567957    15.994914619570
         N            0.846692277361     0.521109149535    -0.034869432043    14.003074004430
         N            1.872158277361    -0.367396850465    -0.020933432043    14.003074004430
         C           -0.365440722639    -0.091990850465     0.000965567957    12.000000000000
         C           -0.140569722639    -1.460949850465     0.019675567957    12.000000000000
         C            1.106758277361     1.945409149535     0.015282567957    12.000000000000
         C            1.262958277361    -1.566462850465     0.004787567957    12.000000000000
         C           -2.693714722639    -0.054771850465    -0.015731432043    12.000000000000
         H           -0.870363722639    -2.256718850465     0.032591567957     1.007825032230
         H            1.157904277361     2.295734149535     1.049535567957     1.007825032230
         H            2.061281277361     2.118767149535    -0.480018432043     1.007825032230
         H            0.305953277361     2.468681149535    -0.507941432043     1.007825032230
         H            1.871970577361    -2.460537550465     0.304633767957     1.007825032230
         H           -3.493584722639     0.684216149535    -0.015330432043     1.007825032230
         H           -2.772277722639    -0.692090850465     0.870545567957     1.007825032230
         H           -2.750505722639    -0.669964850465    -0.919122432043     1.007825032230

  Basis Set: AUG-CC-PVTZ
    Blend: AUG-CC-PVTZ
  Basis Set: (AUG-CC-PVTZ AUX)
    Blend: AUG-CC-PVTZ-JKFIT
	 Reference Energy          =    -377.8377682472221863 [Eh]
	 Singles Energy            =      -0.0000000000000000 [Eh]
	 Same-Spin Energy          =      -0.3968093283903118 [Eh]
	 Opposite-Spin Energy      =      -1.2404714593694426 [Eh]
	 Correlation Energy        =      -1.6372807877597544 [Eh]
	 Total Energy              =    -379.4750490349819643 [Eh]

	 ================> DF-SCS-MP2 Energies <==================
	-----------------------------------------------------------
	 SCS Same-Spin Scale       =       0.3333333333333333 [-]
	 SCS Opposite-Spin Scale   =       1.2000000000000000 [-]
	 SCS Same-Spin Energy      =      -0.1322697761301039 [Eh]
	 SCS Opposite-Spin Energy  =      -1.4885657512433310 [Eh]
	 SCS Correlation Energy    =      -1.6208355273734349 [Eh]
	 SCS Total Energy          =    -379.4586037745956446 [Eh]
	-----------------------------------------------------------

  Dipole Moment: [D]
     X:    -3.0303      Y:     0.7221      Z:     0.2146     Total:     3.1226

*** Psi4 exiting successfully. Buy a developer a beer!
