                               Psi4 1.3.2 release

  ==> Input File <==

--------------------------------------------------------------------------
#psi4
#
memory 32 gb

molecule  {
0 1
  O       -1.4373610     0.6812660     0.0112400
  N        0.8840130     0.5088410    -0.0326410
  N        1.9094790    -0.3796650    -0.0187050
  C       -0.3281200    -0.1042590     0.0031940
  C       -0.1082971    -1.4775809    -0.2280069
  C        1.1440790     1.9331410     0.0175110
  C        1.3002790    -1.5787310     0.0070160
  C       -2.6563940    -0.0670400    -0.0135030
  H       -0.8330430    -2.2689870     0.0348200
  H        1.1952250     2.2834660     1.0517640
  H        2.0986020     2.1064990    -0.4777900
  H        0.3432740     2.4564130    -0.5057130
  H        1.9052260    -2.4764620     0.0069120
  H       -3.4562640     0.6719480    -0.0131020
  H       -2.7349570    -0.7043590     0.8727740
  H       -2.7131850    -0.6822330    -0.9168940
units angstrom
no_reorient  #important for SAPT in psi4, default
symmetry c1  #important for SAPT in psi4, default
}

set PROPERTIES_ORIGIN ["COM"]
properties('MP2/aug-cc-pvtz', properties = ['dipole'])
--------------------------------------------------------------------------

    Molecular point group: c1
  Charge       = 0
  Multiplicity = 1
  Basis Set: AUG-CC-PVTZ
    Blend: AUG-CC-PVTZ
  Basis Set: (AUG-CC-PVTZ AUX)
    Blend: AUG-CC-PVTZ-JKFIT

    Orbital Energies [Eh]
    ---------------------

    Doubly Occupied:

       1A    -20.611421     2A    -15.630448     3A    -15.575526
       4A    -11.341714     5A    -11.298274     6A    -11.265394
       7A    -11.256497     8A    -11.220537     9A     -1.438645
      10A     -1.357574    11A     -1.114462    12A     -1.046835
      13A     -0.963817    14A     -0.934217    15A     -0.803929
      16A     -0.769697    17A     -0.724210    18A     -0.682978
      19A     -0.643348    20A     -0.634492    21A     -0.615581
      22A     -0.591466    23A     -0.572784    24A     -0.548257
      25A     -0.543444    26A     -0.521197    27A     -0.501513
      28A     -0.447828    29A     -0.349105    30A     -0.321783

  @DF-RHF Final Energy:  -377.82885033981222

   => Energetics <=

    Nuclear Repulsion Energy =            376.7502294576120221
    One-Electron Energy =               -1260.5042175125897757
    Two-Electron Energy =                 505.9251377151655333
    Total Energy =                       -377.8288503398122202
  Basis Set: (AUG-CC-PVTZ AUX)
    Blend: AUG-CC-PVTZ-RI
    Molecular point group: c1

    Geometry (in Angstrom), charge = 0, multiplicity = 1:

       Center              X                  Y                   Z               Mass
    ------------   -----------------  -----------------  -----------------  -----------------
         O           -1.474104601479     0.694034219845     0.038470074264    15.994914619570
         N            0.847269398521     0.521609219845    -0.005410925736    14.003074004430
         N            1.872735398521    -0.366896780155     0.008525074264    14.003074004430
         C           -0.364863601479    -0.091490780155     0.030424074264    12.000000000000
         C           -0.145040701479    -1.464812680155    -0.200776825736    12.000000000000
         C            1.107335398521     1.945909219845     0.044741074264    12.000000000000
         C            1.263535398521    -1.565962780155     0.034246074264    12.000000000000
         C           -2.693137601479    -0.054271780155     0.013727074264    12.000000000000
         H           -0.869786601479    -2.256218780155     0.062050074264     1.007825032230
         H            1.158481398521     2.296234219845     1.078994074264     1.007825032230
         H            2.061858398521     2.119267219845    -0.450559925736     1.007825032230
         H            0.306530398521     2.469181219845    -0.478482925736     1.007825032230
         H            1.868482398521    -2.463693780155     0.034142074264     1.007825032230
         H           -3.493007601479     0.684716219845     0.014128074264     1.007825032230
         H           -2.771700601479    -0.691590780155     0.900004074264     1.007825032230
         H           -2.749928601479    -0.669464780155    -0.889663925736     1.007825032230

  Basis Set: AUG-CC-PVTZ
    Blend: AUG-CC-PVTZ
  Basis Set: (AUG-CC-PVTZ AUX)
    Blend: AUG-CC-PVTZ-JKFIT
	 Reference Energy          =    -377.8288503398122202 [Eh]
	 Singles Energy            =      -0.0000000000000000 [Eh]
	 Same-Spin Energy          =      -0.3968934870246755 [Eh]
	 Opposite-Spin Energy      =      -1.2415147402146922 [Eh]
	 Correlation Energy        =      -1.6384082272393676 [Eh]
	 Total Energy              =    -379.4672585670516014 [Eh]

	 ================> DF-SCS-MP2 Energies <==================
	-----------------------------------------------------------
	 SCS Same-Spin Scale       =       0.3333333333333333 [-]
	 SCS Opposite-Spin Scale   =       1.2000000000000000 [-]
	 SCS Same-Spin Energy      =      -0.1322978290082251 [Eh]
	 SCS Opposite-Spin Energy  =      -1.4898176882576306 [Eh]
	 SCS Correlation Energy    =      -1.6221155172658557 [Eh]
	 SCS Total Energy          =    -379.4509658570780744 [Eh]
	-----------------------------------------------------------

  Dipole Moment: [D]
     X:    -2.9078      Y:     0.7945      Z:     0.2744     Total:     3.0269

*** Psi4 exiting successfully. Buy a developer a beer!
