                               Psi4 1.3.2 release

  ==> Input File <==

--------------------------------------------------------------------------
#psi4
#
memory 32 gb

molecule  {
0 1
  O       -1.4373610     0.6812660     0.0112400
  N        0.8840130     0.5088410    -0.0326410
  N        1.9094790    -0.3796650    -0.0187050
  C       -0.3281200    -0.1042590     0.0031940
  C       -0.1032490    -1.4732180     0.0219040
  C        1.1440790     1.9331410     0.0175110
  C        1.3002790    -1.5787310     0.0070160
  C       -2.6563940    -0.0670400    -0.0135030
  H       -0.8330430    -2.2689870     0.0348200
  H        1.1952250     2.2834660     1.0517640
  H        2.0986020     2.1064990    -0.4777900
  H        0.3432740     2.4564130    -0.5057130
  H        1.9079362    -2.4740245     0.2068788
  H       -3.4562640     0.6719480    -0.0131020
  H       -2.7349570    -0.7043590     0.8727740
  H       -2.7131850    -0.6822330    -0.9168940
units angstrom
no_reorient  #important for SAPT in psi4, default
symmetry c1  #important for SAPT in psi4, default
}

set PROPERTIES_ORIGIN ["COM"]
properties('MP2/aug-cc-pvtz', properties = ['dipole'])
--------------------------------------------------------------------------

    Molecular point group: c1
  Charge       = 0
  Multiplicity = 1
  Basis Set: AUG-CC-PVTZ
    Blend: AUG-CC-PVTZ
  Basis Set: (AUG-CC-PVTZ AUX)
    Blend: AUG-CC-PVTZ-JKFIT

    Orbital Energies [Eh]
    ---------------------

    Doubly Occupied:

       1A    -20.609272     2A    -15.628794     3A    -15.574309
       4A    -11.335647     5A    -11.298098     6A    -11.264386
       7A    -11.253668     8A    -11.215795     9A     -1.436919
      10A     -1.356666    11A     -1.114098    12A     -1.049788
      13A     -0.964447    14A     -0.933557    15A     -0.803563
      16A     -0.771152    17A     -0.725241    18A     -0.682158
      19A     -0.644382    20A     -0.633128    21A     -0.621101
      22A     -0.593611    23A     -0.575079    24A     -0.547702
      25A     -0.544067    26A     -0.522925    27A     -0.500790
      28A     -0.448474    29A     -0.349351    30A     -0.320919

  @DF-RHF Final Energy:  -377.84135648909478

   => Energetics <=

    Nuclear Repulsion Energy =            377.4221752677846666
    One-Electron Energy =               -1261.8888868067331259
    Two-Electron Energy =                 506.6253550498536242
    Total Energy =                       -377.8413564890947782
  Basis Set: (AUG-CC-PVTZ AUX)
    Blend: AUG-CC-PVTZ-RI
    Molecular point group: c1

    Geometry (in Angstrom), charge = 0, multiplicity = 1:

       Center              X                  Y                   Z               Mass
    ------------   -----------------  -----------------  -----------------  -----------------
         O           -1.474669535784     0.693545110600     0.009910751249    15.994914619570
         N            0.846704464216     0.521120110600    -0.033970248751    14.003074004430
         N            1.872170464216    -0.367385889400    -0.020034248751    14.003074004430
         C           -0.365428535784    -0.091979889400     0.001864751249    12.000000000000
         C           -0.140557535784    -1.460938889400     0.020574751249    12.000000000000
         C            1.106770464216     1.945420110600     0.016181751249    12.000000000000
         C            1.262970464216    -1.566451889400     0.005686751249    12.000000000000
         C           -2.693702535784    -0.054760889400    -0.014832248751    12.000000000000
         H           -0.870351535784    -2.256707889400     0.033490751249     1.007825032230
         H            1.157916464216     2.295745110600     1.050434751249     1.007825032230
         H            2.061293464216     2.118778110600    -0.479119248751     1.007825032230
         H            0.305965464216     2.468692110600    -0.507042248751     1.007825032230
         H            1.870627664216    -2.461745389400     0.205549551249     1.007825032230
         H           -3.493572535784     0.684227110600    -0.014431248751     1.007825032230
         H           -2.772265535784    -0.692079889400     0.871444751249     1.007825032230
         H           -2.750493535784    -0.669953889400    -0.918223248751     1.007825032230

  Basis Set: AUG-CC-PVTZ
    Blend: AUG-CC-PVTZ
  Basis Set: (AUG-CC-PVTZ AUX)
    Blend: AUG-CC-PVTZ-JKFIT
	 Reference Energy          =    -377.8413564890947782 [Eh]
	 Singles Energy            =      -0.0000000000000000 [Eh]
	 Same-Spin Energy          =      -0.3965972088553683 [Eh]
	 Opposite-Spin Energy      =      -1.2399725621378477 [Eh]
	 Correlation Energy        =      -1.6365697709932161 [Eh]
	 Total Energy              =    -379.4779262600879974 [Eh]

	 ================> DF-SCS-MP2 Energies <==================
	-----------------------------------------------------------
	 SCS Same-Spin Scale       =       0.3333333333333333 [-]
	 SCS Opposite-Spin Scale   =       1.2000000000000000 [-]
	 SCS Same-Spin Energy      =      -0.1321990696184561 [Eh]
	 SCS Opposite-Spin Energy  =      -1.4879670745654172 [Eh]
	 SCS Correlation Energy    =      -1.6201661441838733 [Eh]
	 SCS Total Energy          =    -379.4615226332786619 [Eh]
	-----------------------------------------------------------

  Dipole Moment: [D]
     X:    -3.0109      Y:     0.6805      Z:     0.1459     Total:     3.0903

*** Psi4 exiting successfully. Buy a developer a beer!
