                               Psi4 1.3.2 release

  ==> Input File <==

--------------------------------------------------------------------------
#psi4
#
memory 32 gb

molecule  {
0 1
  O       -1.4373610     0.6812660     0.0112400
  N        0.8840130     0.5088410    -0.0326410
  N        1.9094790    -0.3796650    -0.0187050
  C       -0.3281200    -0.1042590     0.0031940
  C       -0.1032490    -1.4732180     0.0219040
  C        1.1440790     1.9331410     0.0175110
  C        1.3002790    -1.5787310     0.0070160
  C       -2.6563940    -0.0670400    -0.0135030
  H       -0.8343905    -2.2708639    -0.1151622
  H        1.1952250     2.2834660     1.0517640
  H        2.0986020     2.1064990    -0.4777900
  H        0.3432740     2.4564130    -0.5057130
  H        1.9052260    -2.4764620     0.0069120
  H       -3.4562640     0.6719480    -0.0131020
  H       -2.7349570    -0.7043590     0.8727740
  H       -2.7131850    -0.6822330    -0.9168940
units angstrom
no_reorient  #important for SAPT in psi4, default
symmetry c1  #important for SAPT in psi4, default
}

set PROPERTIES_ORIGIN ["COM"]
properties('MP2/aug-cc-pvtz', properties = ['dipole'])
--------------------------------------------------------------------------

    Molecular point group: c1
  Charge       = 0
  Multiplicity = 1
  Basis Set: AUG-CC-PVTZ
    Blend: AUG-CC-PVTZ
  Basis Set: (AUG-CC-PVTZ AUX)
    Blend: AUG-CC-PVTZ-JKFIT

    Orbital Energies [Eh]
    ---------------------

    Doubly Occupied:

       1A    -20.609329     2A    -15.628741     3A    -15.573971
       4A    -11.335804     5A    -11.297983     6A    -11.264241
       7A    -11.252368     8A    -11.216478     9A     -1.436935
      10A     -1.356587    11A     -1.114226    12A     -1.049585
      13A     -0.964226    14A     -0.933937    15A     -0.804471
      16A     -0.771061    17A     -0.725842    18A     -0.682150
      19A     -0.644053    20A     -0.633028    21A     -0.620036
      22A     -0.593769    23A     -0.577363    24A     -0.546046
      25A     -0.544901    26A     -0.523172    27A     -0.501029
      28A     -0.448313    29A     -0.349826    30A     -0.320948

  @DF-RHF Final Energy:  -377.84270385530016

   => Energetics <=

    Nuclear Repulsion Energy =            377.4491354979673474
    One-Electron Energy =               -1261.9428419386895257
    Two-Electron Energy =                 506.6510025854220771
    Total Energy =                       -377.8427038553001580
  Basis Set: (AUG-CC-PVTZ AUX)
    Blend: AUG-CC-PVTZ-RI
    Molecular point group: c1

    Geometry (in Angstrom), charge = 0, multiplicity = 1:

       Center              X                  Y                   Z               Mass
    ------------   -----------------  -----------------  -----------------  -----------------
         O           -1.474633043565     0.693583911405     0.013057956624    15.994914619570
         N            0.846740956435     0.521158911405    -0.030823043376    14.003074004430
         N            1.872206956435    -0.367347088595    -0.016887043376    14.003074004430
         C           -0.365392043565    -0.091941088595     0.005011956624    12.000000000000
         C           -0.140521043565    -1.460900088595     0.023721956624    12.000000000000
         C            1.106806956435     1.945458911405     0.019328956624    12.000000000000
         C            1.263006956435    -1.566413088595     0.008833956624    12.000000000000
         C           -2.693666043565    -0.054722088595    -0.011685043376    12.000000000000
         H           -0.871662543565    -2.258545988595    -0.113344243376     1.007825032230
         H            1.157952956435     2.295783911405     1.053581956624     1.007825032230
         H            2.061329956435     2.118816911405    -0.475972043376     1.007825032230
         H            0.306001956435     2.468730911405    -0.503895043376     1.007825032230
         H            1.867953956435    -2.464144088595     0.008729956624     1.007825032230
         H           -3.493536043565     0.684265911405    -0.011284043376     1.007825032230
         H           -2.772229043565    -0.692041088595     0.874591956624     1.007825032230
         H           -2.750457043565    -0.669915088595    -0.915076043376     1.007825032230

  Basis Set: AUG-CC-PVTZ
    Blend: AUG-CC-PVTZ
  Basis Set: (AUG-CC-PVTZ AUX)
    Blend: AUG-CC-PVTZ-JKFIT
	 Reference Energy          =    -377.8427038553001580 [Eh]
	 Singles Energy            =      -0.0000000000000000 [Eh]
	 Same-Spin Energy          =      -0.3964842648551258 [Eh]
	 Opposite-Spin Energy      =      -1.2397273585583934 [Eh]
	 Correlation Energy        =      -1.6362116234135193 [Eh]
	 Total Energy              =    -379.4789154787137022 [Eh]

	 ================> DF-SCS-MP2 Energies <==================
	-----------------------------------------------------------
	 SCS Same-Spin Scale       =       0.3333333333333333 [-]
	 SCS Opposite-Spin Scale   =       1.2000000000000000 [-]
	 SCS Same-Spin Energy      =      -0.1321614216183752 [Eh]
	 SCS Opposite-Spin Energy  =      -1.4876728302700721 [Eh]
	 SCS Correlation Energy    =      -1.6198342518884474 [Eh]
	 SCS Total Energy          =    -379.4625381071886068 [Eh]
	-----------------------------------------------------------

  Dipole Moment: [D]
     X:    -2.9839      Y:     0.6608      Z:    -0.1275     Total:     3.0588

*** Psi4 exiting successfully. Buy a developer a beer!
