                               Psi4 1.3.2 release

  ==> Input File <==

--------------------------------------------------------------------------
#psi4
#
memory 32 gb

molecule  {
0 1
  O       -1.4373610     0.6812660     0.0112400
  N        0.8840130     0.5088410    -0.0326410
  N        1.9094790    -0.3796650    -0.0187050
  C       -0.3281200    -0.1042590     0.0031940
  C       -0.1032490    -1.4732180     0.0219040
  C        1.1440790     1.9331410     0.0175110
  C        1.3002790    -1.5787310     0.0070160
  C       -2.6563940    -0.0670400    -0.0135030
  H       -0.8348396    -2.2714895    -0.1651563
  H        1.1952250     2.2834660     1.0517640
  H        2.0986020     2.1064990    -0.4777900
  H        0.3432740     2.4564130    -0.5057130
  H        1.9052260    -2.4764620     0.0069120
  H       -3.4562640     0.6719480    -0.0131020
  H       -2.7349570    -0.7043590     0.8727740
  H       -2.7131850    -0.6822330    -0.9168940
units angstrom
no_reorient  #important for SAPT in psi4, default
symmetry c1  #important for SAPT in psi4, default
}

set PROPERTIES_ORIGIN ["COM"]
properties('MP2/aug-cc-pvtz', properties = ['dipole'])
--------------------------------------------------------------------------

    Molecular point group: c1
  Charge       = 0
  Multiplicity = 1
  Basis Set: AUG-CC-PVTZ
    Blend: AUG-CC-PVTZ
  Basis Set: (AUG-CC-PVTZ AUX)
    Blend: AUG-CC-PVTZ-JKFIT

    Orbital Energies [Eh]
    ---------------------

    Doubly Occupied:

       1A    -20.609455     2A    -15.628917     3A    -15.574120
       4A    -11.336026     5A    -11.297951     6A    -11.264325
       7A    -11.252512     8A    -11.217074     9A     -1.437048
      10A     -1.356746    11A     -1.114340    12A     -1.049587
      13A     -0.964136    14A     -0.933961    15A     -0.804246
      16A     -0.771023    17A     -0.725485    18A     -0.682277
      19A     -0.643567    20A     -0.633088    21A     -0.619390
      22A     -0.593650    23A     -0.577099    24A     -0.546361
      25A     -0.544513    26A     -0.522864    27A     -0.501040
      28A     -0.448368    29A     -0.349886    30A     -0.321047

  @DF-RHF Final Energy:  -377.84172568412612

   => Energetics <=

    Nuclear Repulsion Energy =            377.4175530198582464
    One-Electron Energy =               -1261.8783503097961329
    Two-Electron Energy =                 506.6190716058117687
    Total Energy =                       -377.8417256841261178
  Basis Set: (AUG-CC-PVTZ AUX)
    Blend: AUG-CC-PVTZ-RI
    Molecular point group: c1

    Geometry (in Angstrom), charge = 0, multiplicity = 1:

       Center              X                  Y                   Z               Mass
    ------------   -----------------  -----------------  -----------------  -----------------
         O           -1.474629004663     0.693589537630     0.013507569854    15.994914619570
         N            0.846744995337     0.521164537630    -0.030373430146    14.003074004430
         N            1.872210995337    -0.367341462370    -0.016437430146    14.003074004430
         C           -0.365388004663    -0.091935462370     0.005461569854    12.000000000000
         C           -0.140517004663    -1.460894462370     0.024171569854    12.000000000000
         C            1.106810995337     1.945464537630     0.019778569854    12.000000000000
         C            1.263010995337    -1.566407462370     0.009283569854    12.000000000000
         C           -2.693662004663    -0.054716462370    -0.011235430146    12.000000000000
         H           -0.872107604663    -2.259165962370    -0.162888730146     1.007825032230
         H            1.157956995337     2.295789537630     1.054031569854     1.007825032230
         H            2.061333995337     2.118822537630    -0.475522430146     1.007825032230
         H            0.306005995337     2.468736537630    -0.503445430146     1.007825032230
         H            1.867957995337    -2.464138462370     0.009179569854     1.007825032230
         H           -3.493532004663     0.684271537630    -0.010834430146     1.007825032230
         H           -2.772225004663    -0.692035462370     0.875041569854     1.007825032230
         H           -2.750453004663    -0.669909462370    -0.914626430146     1.007825032230

  Basis Set: AUG-CC-PVTZ
    Blend: AUG-CC-PVTZ
  Basis Set: (AUG-CC-PVTZ AUX)
    Blend: AUG-CC-PVTZ-JKFIT
	 Reference Energy          =    -377.8417256841261178 [Eh]
	 Singles Energy            =      -0.0000000000000000 [Eh]
	 Same-Spin Energy          =      -0.3965203254276529 [Eh]
	 Opposite-Spin Energy      =      -1.2398187369459104 [Eh]
	 Correlation Energy        =      -1.6363390623735632 [Eh]
	 Total Energy              =    -379.4780647464996832 [Eh]

	 ================> DF-SCS-MP2 Energies <==================
	-----------------------------------------------------------
	 SCS Same-Spin Scale       =       0.3333333333333333 [-]
	 SCS Opposite-Spin Scale   =       1.2000000000000000 [-]
	 SCS Same-Spin Energy      =      -0.1321734418092176 [Eh]
	 SCS Opposite-Spin Energy  =      -1.4877824843350924 [Eh]
	 SCS Correlation Energy    =      -1.6199559261443102 [Eh]
	 SCS Total Energy          =    -379.4616816102704320 [Eh]
	-----------------------------------------------------------

  Dipole Moment: [D]
     X:    -2.9734      Y:     0.6727      Z:    -0.1701     Total:     3.0533

*** Psi4 exiting successfully. Buy a developer a beer!
