                               Psi4 1.3.2 release

  ==> Input File <==

--------------------------------------------------------------------------
#psi4
#
memory 32 gb

molecule  {
0 1
  O       -1.4373610     0.6812660     0.0112400
  N        0.8840130     0.5088410    -0.0326410
  N        1.9094790    -0.3796650    -0.0187050
  C       -0.3281200    -0.1042590     0.0031940
  C       -0.1093068    -1.4784535    -0.2779891
  C        1.1440790     1.9331410     0.0175110
  C        1.3002790    -1.5787310     0.0070160
  C       -2.6563940    -0.0670400    -0.0135030
  H       -0.8330430    -2.2689870     0.0348200
  H        1.1952250     2.2834660     1.0517640
  H        2.0986020     2.1064990    -0.4777900
  H        0.3432740     2.4564130    -0.5057130
  H        1.9052260    -2.4764620     0.0069120
  H       -3.4562640     0.6719480    -0.0131020
  H       -2.7349570    -0.7043590     0.8727740
  H       -2.7131850    -0.6822330    -0.9168940
units angstrom
no_reorient  #important for SAPT in psi4, default
symmetry c1  #important for SAPT in psi4, default
}

set PROPERTIES_ORIGIN ["COM"]
properties('MP2/aug-cc-pvtz', properties = ['dipole'])
--------------------------------------------------------------------------

    Molecular point group: c1
  Charge       = 0
  Multiplicity = 1
  Basis Set: AUG-CC-PVTZ
    Blend: AUG-CC-PVTZ
  Basis Set: (AUG-CC-PVTZ AUX)
    Blend: AUG-CC-PVTZ-JKFIT

    Orbital Energies [Eh]
    ---------------------

    Doubly Occupied:

       1A    -20.612336     2A    -15.631373     3A    -15.576346
       4A    -11.344233     5A    -11.298369     6A    -11.265961
       7A    -11.258283     8A    -11.222692     9A     -1.439406
      10A     -1.358153    11A     -1.114744    12A     -1.045640
      13A     -0.963513    14A     -0.934393    15A     -0.803649
      16A     -0.769185    17A     -0.723486    18A     -0.683371
      19A     -0.642859    20A     -0.635006    21A     -0.613704
      22A     -0.590523    23A     -0.570998    24A     -0.548697
      25A     -0.543065    26A     -0.519476    27A     -0.501726
      28A     -0.447554    29A     -0.349104    30A     -0.322271

  @DF-RHF Final Energy:  -377.82201479316211

   => Energetics <=

    Nuclear Repulsion Energy =            376.4368828736048158
    One-Electron Energy =               -1259.8575678121260353
    Two-Electron Energy =                 505.5986701453590513
    Total Energy =                       -377.8220147931621113
  Basis Set: (AUG-CC-PVTZ AUX)
    Blend: AUG-CC-PVTZ-RI
    Molecular point group: c1

    Geometry (in Angstrom), charge = 0, multiplicity = 1:

       Center              X                  Y                   Z               Mass
    ------------   -----------------  -----------------  -----------------  -----------------
         O           -1.473996480794     0.694127659589     0.043822267692    15.994914619570
         N            0.847377519206     0.521702659589    -0.000058732308    14.003074004430
         N            1.872843519206    -0.366803340411     0.013877267692    14.003074004430
         C           -0.364755480794    -0.091397340411     0.035776267692    12.000000000000
         C           -0.145942280794    -1.465591840411    -0.245406832308    12.000000000000
         C            1.107443519206     1.946002659589     0.050093267692    12.000000000000
         C            1.263643519206    -1.565869340411     0.039598267692    12.000000000000
         C           -2.693029480794    -0.054178340411     0.019079267692    12.000000000000
         H           -0.869678480794    -2.256125340411     0.067402267692     1.007825032230
         H            1.158589519206     2.296327659589     1.084346267692     1.007825032230
         H            2.061966519206     2.119360659589    -0.445207732308     1.007825032230
         H            0.306638519206     2.469274659589    -0.473130732308     1.007825032230
         H            1.868590519206    -2.463600340411     0.039494267692     1.007825032230
         H           -3.492899480794     0.684809659589     0.019480267692     1.007825032230
         H           -2.771592480794    -0.691497340411     0.905356267692     1.007825032230
         H           -2.749820480794    -0.669371340411    -0.884311732308     1.007825032230

  Basis Set: AUG-CC-PVTZ
    Blend: AUG-CC-PVTZ
  Basis Set: (AUG-CC-PVTZ AUX)
    Blend: AUG-CC-PVTZ-JKFIT
	 Reference Energy          =    -377.8220147931621113 [Eh]
	 Singles Energy            =      -0.0000000000000000 [Eh]
	 Same-Spin Energy          =      -0.3970848296100777 [Eh]
	 Opposite-Spin Energy      =      -1.2423980189216182 [Eh]
	 Correlation Energy        =      -1.6394828485316959 [Eh]
	 Total Energy              =    -379.4614976416938248 [Eh]

	 ================> DF-SCS-MP2 Energies <==================
	-----------------------------------------------------------
	 SCS Same-Spin Scale       =       0.3333333333333333 [-]
	 SCS Opposite-Spin Scale   =       1.2000000000000000 [-]
	 SCS Same-Spin Energy      =      -0.1323616098700259 [Eh]
	 SCS Opposite-Spin Energy  =      -1.4908776227059417 [Eh]
	 SCS Correlation Energy    =      -1.6232392325759677 [Eh]
	 SCS Total Energy          =    -379.4452540257380520 [Eh]
	-----------------------------------------------------------

  Dipole Moment: [D]
     X:    -2.8679      Y:     0.8556      Z:     0.3309     Total:     3.0111

*** Psi4 exiting successfully. Buy a developer a beer!
