                               Psi4 1.3.2 release

  ==> Input File <==

--------------------------------------------------------------------------
#psi4
#
memory 32 gb

molecule  {
0 1
  O       -1.4373610     0.6812660     0.0112400
  N        0.8840130     0.5088410    -0.0326410
  N        1.9094790    -0.3796650    -0.0187050
  C       -0.3281200    -0.1042590     0.0031940
  C       -0.1032490    -1.4732180     0.0219040
  C        1.1440790     1.9331410     0.0175110
  C        1.3002790    -1.5787310     0.0070160
  C       -2.6563940    -0.0670400    -0.0135030
  H       -0.8330430    -2.2689870     0.0348200
  H        1.1952250     2.2834660     1.0517640
  H        2.0986020     2.1064990    -0.4777900
  H        0.3432740     2.4564130    -0.5057130
  H        1.9059035    -2.4758526     0.0569037
  H       -3.4562640     0.6719480    -0.0131020
  H       -2.7349570    -0.7043590     0.8727740
  H       -2.7131850    -0.6822330    -0.9168940
units angstrom
no_reorient  #important for SAPT in psi4, default
symmetry c1  #important for SAPT in psi4, default
}

set PROPERTIES_ORIGIN ["COM"]
properties('MP2/aug-cc-pvtz', properties = ['dipole'])
--------------------------------------------------------------------------

    Molecular point group: c1
  Charge       = 0
  Multiplicity = 1
  Basis Set: AUG-CC-PVTZ
    Blend: AUG-CC-PVTZ
  Basis Set: (AUG-CC-PVTZ AUX)
    Blend: AUG-CC-PVTZ-JKFIT

    Orbital Energies [Eh]
    ---------------------

    Doubly Occupied:

       1A    -20.609175     2A    -15.628456     3A    -15.573786
       4A    -11.335524     5A    -11.298027     6A    -11.264156
       7A    -11.252243     8A    -11.215681     9A     -1.436793
      10A     -1.356365    11A     -1.114054    12A     -1.049587
      13A     -0.964346    14A     -0.933881    15A     -0.804716
      16A     -0.771113    17A     -0.726263    18A     -0.681968
      19A     -0.644784    20A     -0.632967    21A     -0.620938
      22A     -0.593892    23A     -0.577166    24A     -0.546019
      25A     -0.545336    26A     -0.523600    27A     -0.501003
      28A     -0.448261    29A     -0.349620    30A     -0.320821

  @DF-RHF Final Energy:  -377.84375490088860

   => Energetics <=

    Nuclear Repulsion Energy =            377.4865902762311975
    One-Electron Energy =               -1262.0195991089201470
    Two-Electron Energy =                 506.6892539318002946
    Total Energy =                       -377.8437549008885981
  Basis Set: (AUG-CC-PVTZ AUX)
    Blend: AUG-CC-PVTZ-RI
    Molecular point group: c1

    Geometry (in Angstrom), charge = 0, multiplicity = 1:

       Center              X                  Y                   Z               Mass
    ------------   -----------------  -----------------  -----------------  -----------------
         O           -1.474651255050     0.693561551299     0.011259526187    15.994914619570
         N            0.846722744950     0.521136551299    -0.032621473813    14.003074004430
         N            1.872188744950    -0.367369448701    -0.018685473813    14.003074004430
         C           -0.365410255050    -0.091963448701     0.003213526187    12.000000000000
         C           -0.140539255050    -1.460922448701     0.021923526187    12.000000000000
         C            1.106788744950     1.945436551299     0.017530526187    12.000000000000
         C            1.262988744950    -1.566435448701     0.007035526187    12.000000000000
         C           -2.693684255050    -0.054744448701    -0.013483473813    12.000000000000
         H           -0.870333255050    -2.256691448701     0.034839526187     1.007825032230
         H            1.157934744950     2.295761551299     1.051783526187     1.007825032230
         H            2.061311744950     2.118794551299    -0.477770473813     1.007825032230
         H            0.305983744950     2.468708551299    -0.505693473813     1.007825032230
         H            1.868613244950    -2.463557048701     0.056923226187     1.007825032230
         H           -3.493554255050     0.684243551299    -0.013082473813     1.007825032230
         H           -2.772247255050    -0.692063448701     0.872793526187     1.007825032230
         H           -2.750475255050    -0.669937448701    -0.916874473813     1.007825032230

  Basis Set: AUG-CC-PVTZ
    Blend: AUG-CC-PVTZ
  Basis Set: (AUG-CC-PVTZ AUX)
    Blend: AUG-CC-PVTZ-JKFIT
	 Reference Energy          =    -377.8437549008885981 [Eh]
	 Singles Energy            =      -0.0000000000000000 [Eh]
	 Same-Spin Energy          =      -0.3964410867920242 [Eh]
	 Opposite-Spin Energy      =      -1.2396307662073855 [Eh]
	 Correlation Energy        =      -1.6360718529994096 [Eh]
	 Total Energy              =    -379.4798267538880054 [Eh]

	 ================> DF-SCS-MP2 Energies <==================
	-----------------------------------------------------------
	 SCS Same-Spin Scale       =       0.3333333333333333 [-]
	 SCS Opposite-Spin Scale   =       1.2000000000000000 [-]
	 SCS Same-Spin Energy      =      -0.1321470289306747 [Eh]
	 SCS Opposite-Spin Energy  =      -1.4875569194488627 [Eh]
	 SCS Correlation Energy    =      -1.6197039483795375 [Eh]
	 SCS Total Energy          =    -379.4634588492681360 [Eh]
	-----------------------------------------------------------

  Dipole Moment: [D]
     X:    -2.9983      Y:     0.6483      Z:     0.0391     Total:     3.0678

*** Psi4 exiting successfully. Buy a developer a beer!
