                               Psi4 1.3.2 release

  ==> Input File <==

--------------------------------------------------------------------------
#psi4
#
memory 32 gb

molecule  {
0 1
  O       -1.4373610     0.6812660     0.0112400
  N        0.8840130     0.5088410    -0.0326410
  N        1.9094790    -0.3796650    -0.0187050
  C       -0.3281200    -0.1042590     0.0031940
  C       -0.1032490    -1.4732180     0.0219040
  C        1.1440790     1.9331410     0.0175110
  C        1.3002790    -1.5787310     0.0070160
  C       -2.6563940    -0.0670400    -0.0135030
  H       -0.8330430    -2.2689870     0.0348200
  H        1.1952250     2.2834660     1.0517640
  H        2.0986020     2.1064990    -0.4777900
  H        0.3432740     2.4564130    -0.5057130
  H        1.9072586    -2.4746338     0.1568871
  H       -3.4562640     0.6719480    -0.0131020
  H       -2.7349570    -0.7043590     0.8727740
  H       -2.7131850    -0.6822330    -0.9168940
units angstrom
no_reorient  #important for SAPT in psi4, default
symmetry c1  #important for SAPT in psi4, default
}

set PROPERTIES_ORIGIN ["COM"]
properties('MP2/aug-cc-pvtz', properties = ['dipole'])
--------------------------------------------------------------------------

    Molecular point group: c1
  Charge       = 0
  Multiplicity = 1
  Basis Set: AUG-CC-PVTZ
    Blend: AUG-CC-PVTZ
  Basis Set: (AUG-CC-PVTZ AUX)
    Blend: AUG-CC-PVTZ-JKFIT

    Orbital Energies [Eh]
    ---------------------

    Doubly Occupied:

       1A    -20.609226     2A    -15.628620     3A    -15.574066
       4A    -11.335586     5A    -11.298064     6A    -11.264281
       7A    -11.253005     8A    -11.215736     9A     -1.436858
      10A     -1.356521    11A     -1.114072    12A     -1.049691
      13A     -0.964398    14A     -0.933702    15A     -0.804085
      16A     -0.771131    17A     -0.725710    18A     -0.682072
      19A     -0.644569    20A     -0.633043    21A     -0.621022
      22A     -0.593741    23A     -0.575970    24A     -0.547134
      25A     -0.544572    26A     -0.523196    27A     -0.500902
      28A     -0.448382    29A     -0.349460    30A     -0.320872

  @DF-RHF Final Energy:  -377.84251375814370

   => Energetics <=

    Nuclear Repulsion Energy =            377.4520553189001362
    One-Electron Energy =               -1261.9497611076783414
    Two-Electron Energy =                 506.6551920306344527
    Total Energy =                       -377.8425137581436957
  Basis Set: (AUG-CC-PVTZ AUX)
    Blend: AUG-CC-PVTZ-RI
    Molecular point group: c1

    Geometry (in Angstrom), charge = 0, multiplicity = 1:

       Center              X                  Y                   Z               Mass
    ------------   -----------------  -----------------  -----------------  -----------------
         O           -1.474663441906     0.693550590234     0.010360342895    15.994914619570
         N            0.846710558094     0.521125590234    -0.033520657105    14.003074004430
         N            1.872176558094    -0.367380409766    -0.019584657105    14.003074004430
         C           -0.365422441906    -0.091974409766     0.002314342895    12.000000000000
         C           -0.140551441906    -1.460933409766     0.021024342895    12.000000000000
         C            1.106776558094     1.945425590234     0.016631342895    12.000000000000
         C            1.262976558094    -1.566446409766     0.006136342895    12.000000000000
         C           -2.693696441906    -0.054755409766    -0.014382657105    12.000000000000
         H           -0.870345441906    -2.256702409766     0.033940342895     1.007825032230
         H            1.157922558094     2.295750590234     1.050884342895     1.007825032230
         H            2.061299558094     2.118783590234    -0.478669657105     1.007825032230
         H            0.305971558094     2.468697590234    -0.506592657105     1.007825032230
         H            1.869956158094    -2.462349209766     0.156007442895     1.007825032230
         H           -3.493566441906     0.684232590234    -0.013981657105     1.007825032230
         H           -2.772259441906    -0.692074409766     0.871894342895     1.007825032230
         H           -2.750487441906    -0.669948409766    -0.917773657105     1.007825032230

  Basis Set: AUG-CC-PVTZ
    Blend: AUG-CC-PVTZ
  Basis Set: (AUG-CC-PVTZ AUX)
    Blend: AUG-CC-PVTZ-JKFIT
	 Reference Energy          =    -377.8425137581436957 [Eh]
	 Singles Energy            =      -0.0000000000000000 [Eh]
	 Same-Spin Energy          =      -0.3965227421329360 [Eh]
	 Opposite-Spin Energy      =      -1.2398069199852939 [Eh]
	 Correlation Energy        =      -1.6363296621182299 [Eh]
	 Total Energy              =    -379.4788434202619101 [Eh]

	 ================> DF-SCS-MP2 Energies <==================
	-----------------------------------------------------------
	 SCS Same-Spin Scale       =       0.3333333333333333 [-]
	 SCS Opposite-Spin Scale   =       1.2000000000000000 [-]
	 SCS Same-Spin Energy      =      -0.1321742473776453 [Eh]
	 SCS Opposite-Spin Energy  =      -1.4877683039823526 [Eh]
	 SCS Correlation Energy    =      -1.6199425513599979 [Eh]
	 SCS Total Energy          =    -379.4624563095036933 [Eh]
	-----------------------------------------------------------

  Dipole Moment: [D]
     X:    -3.0045      Y:     0.6656      Z:     0.1106     Total:     3.0793

*** Psi4 exiting successfully. Buy a developer a beer!
