                               Psi4 1.3.2 release

  ==> Input File <==

--------------------------------------------------------------------------
#psi4
#
memory 32 gb

molecule  {
0 1
  O       -1.4373610     0.6812660     0.0112400
  N        0.8840130     0.5088410    -0.0326410
  N        1.9094790    -0.3796650    -0.0187050
  C       -0.3281200    -0.1042590     0.0031940
  C       -0.1062779    -1.4758357    -0.1280426
  C        1.1440790     1.9331410     0.0175110
  C        1.3002790    -1.5787310     0.0070160
  C       -2.6563940    -0.0670400    -0.0135030
  H       -0.8330430    -2.2689870     0.0348200
  H        1.1952250     2.2834660     1.0517640
  H        2.0986020     2.1064990    -0.4777900
  H        0.3432740     2.4564130    -0.5057130
  H        1.9052260    -2.4764620     0.0069120
  H       -3.4562640     0.6719480    -0.0131020
  H       -2.7349570    -0.7043590     0.8727740
  H       -2.7131850    -0.6822330    -0.9168940
units angstrom
no_reorient  #important for SAPT in psi4, default
symmetry c1  #important for SAPT in psi4, default
}

set PROPERTIES_ORIGIN ["COM"]
properties('MP2/aug-cc-pvtz', properties = ['dipole'])
--------------------------------------------------------------------------

    Molecular point group: c1
  Charge       = 0
  Multiplicity = 1
  Basis Set: AUG-CC-PVTZ
    Blend: AUG-CC-PVTZ
  Basis Set: (AUG-CC-PVTZ AUX)
    Blend: AUG-CC-PVTZ-JKFIT

    Orbital Energies [Eh]
    ---------------------

    Doubly Occupied:

       1A    -20.610034     2A    -15.629125     3A    -15.574373
       4A    -11.337856     5A    -11.298126     6A    -11.264574
       7A    -11.253761     8A    -11.217387     9A     -1.437493
      10A     -1.356757    11A     -1.114129    12A     -1.048580
      13A     -0.964187    14A     -0.933978    15A     -0.804442
      16A     -0.770549    17A     -0.725495    18A     -0.682359
      19A     -0.644287    20A     -0.633602    21A     -0.618876
      22A     -0.592922    23A     -0.575422    24A     -0.547390
      25A     -0.544123    26A     -0.523211    27A     -0.501181
      28A     -0.448130    29A     -0.349275    30A     -0.321146

  @DF-RHF Final Energy:  -377.83858474972362

   => Energetics <=

    Nuclear Repulsion Energy =            377.2174307329929661
    One-Electron Energy =               -1261.4664900840498376
    Two-Electron Energy =                 506.4104746013332488
    Total Energy =                       -377.8385847497236227
  Basis Set: (AUG-CC-PVTZ AUX)
    Blend: AUG-CC-PVTZ-RI
    Molecular point group: c1

    Geometry (in Angstrom), charge = 0, multiplicity = 1:

       Center              X                  Y                   Z               Mass
    ------------   -----------------  -----------------  -----------------  -----------------
         O           -1.474320821433     0.693847340357     0.027765698117    15.994914619570
         N            0.847053178567     0.521422340357    -0.016115301883    14.003074004430
         N            1.872519178567    -0.367083659643    -0.002179301883    14.003074004430
         C           -0.365079821433    -0.091677659643     0.019719698117    12.000000000000
         C           -0.143237721433    -1.463254359643    -0.111516901883    12.000000000000
         C            1.107119178567     1.945722340357     0.034036698117    12.000000000000
         C            1.263319178567    -1.566149659643     0.023541698117    12.000000000000
         C           -2.693353821433    -0.054458659643     0.003022698117    12.000000000000
         H           -0.870002821433    -2.256405659643     0.051345698117     1.007825032230
         H            1.158265178567     2.296047340357     1.068289698117     1.007825032230
         H            2.061642178567     2.119080340357    -0.461264301883     1.007825032230
         H            0.306314178567     2.468994340357    -0.489187301883     1.007825032230
         H            1.868266178567    -2.463880659643     0.023437698117     1.007825032230
         H           -3.493223821433     0.684529340357     0.003423698117     1.007825032230
         H           -2.771916821433    -0.691777659643     0.889299698117     1.007825032230
         H           -2.750144821433    -0.669651659643    -0.900368301883     1.007825032230

  Basis Set: AUG-CC-PVTZ
    Blend: AUG-CC-PVTZ
  Basis Set: (AUG-CC-PVTZ AUX)
    Blend: AUG-CC-PVTZ-JKFIT
	 Reference Energy          =    -377.8385847497236227 [Eh]
	 Singles Energy            =      -0.0000000000000000 [Eh]
	 Same-Spin Energy          =      -0.3966002113100444 [Eh]
	 Opposite-Spin Energy      =      -1.2402432059039512 [Eh]
	 Correlation Energy        =      -1.6368434172139956 [Eh]
	 Total Energy              =    -379.4754281669376041 [Eh]

	 ================> DF-SCS-MP2 Energies <==================
	-----------------------------------------------------------
	 SCS Same-Spin Scale       =       0.3333333333333333 [-]
	 SCS Opposite-Spin Scale   =       1.2000000000000000 [-]
	 SCS Same-Spin Energy      =      -0.1322000704366815 [Eh]
	 SCS Opposite-Spin Energy  =      -1.4882918470847415 [Eh]
	 SCS Correlation Energy    =      -1.6204919175214230 [Eh]
	 SCS Total Energy          =    -379.4590766672450286 [Eh]
	-----------------------------------------------------------

  Dipole Moment: [D]
     X:    -2.9668      Y:     0.7023      Z:     0.1638     Total:     3.0531

*** Psi4 exiting successfully. Buy a developer a beer!
