                               Psi4 1.3.2 release

  ==> Input File <==

--------------------------------------------------------------------------
#psi4
#
memory 32 gb

molecule  {
0 1
  O       -1.4373610     0.6812660     0.0112400
  N        0.8840130     0.5088410    -0.0326410
  N        1.9094790    -0.3796650    -0.0187050
  C       -0.3281200    -0.1042590     0.0031940
  C       -0.1032490    -1.4732180     0.0219040
  C        1.1440790     1.9331410     0.0175110
  C        1.3002790    -1.5787310     0.0070160
  C       -2.6563940    -0.0670400    -0.0135030
  H       -0.8352888    -2.2721152    -0.2151503
  H        1.1952250     2.2834660     1.0517640
  H        2.0986020     2.1064990    -0.4777900
  H        0.3432740     2.4564130    -0.5057130
  H        1.9052260    -2.4764620     0.0069120
  H       -3.4562640     0.6719480    -0.0131020
  H       -2.7349570    -0.7043590     0.8727740
  H       -2.7131850    -0.6822330    -0.9168940
units angstrom
no_reorient  #important for SAPT in psi4, default
symmetry c1  #important for SAPT in psi4, default
}

set PROPERTIES_ORIGIN ["COM"]
properties('MP2/aug-cc-pvtz', properties = ['dipole'])
--------------------------------------------------------------------------

    Molecular point group: c1
  Charge       = 0
  Multiplicity = 1
  Basis Set: AUG-CC-PVTZ
    Blend: AUG-CC-PVTZ
  Basis Set: (AUG-CC-PVTZ AUX)
    Blend: AUG-CC-PVTZ-JKFIT

    Orbital Energies [Eh]
    ---------------------

    Doubly Occupied:

       1A    -20.609615     2A    -15.629134     3A    -15.574306
       4A    -11.336311     5A    -11.297910     6A    -11.264432
       7A    -11.252692     8A    -11.217831     9A     -1.437193
      10A     -1.356946    11A     -1.114484    12A     -1.049591
      13A     -0.964025    14A     -0.933993    15A     -0.803984
      16A     -0.770980    17A     -0.725056    18A     -0.682427
      19A     -0.643017    20A     -0.633168    21A     -0.618582
      22A     -0.593492    23A     -0.576700    24A     -0.546681
      25A     -0.544101    26A     -0.522481    27A     -0.501050
      28A     -0.448437    29A     -0.349952    30A     -0.321174

  @DF-RHF Final Energy:  -377.84038779912566

   => Energetics <=

    Nuclear Repulsion Energy =            377.3777259185482649
    One-Electron Energy =               -1261.7967330763715381
    Two-Electron Energy =                 506.5786193586975514
    Total Energy =                       -377.8403877991256650
  Basis Set: (AUG-CC-PVTZ AUX)
    Blend: AUG-CC-PVTZ-RI
    Molecular point group: c1

    Geometry (in Angstrom), charge = 0, multiplicity = 1:

       Center              X                  Y                   Z               Mass
    ------------   -----------------  -----------------  -----------------  -----------------
         O           -1.474624964861     0.693595164754     0.013957182185    15.994914619570
         N            0.846749035139     0.521170164754    -0.029923817815    14.003074004430
         N            1.872215035139    -0.367335835246    -0.015987817815    14.003074004430
         C           -0.365383964861    -0.091929835246     0.005911182185    12.000000000000
         C           -0.140512964861    -1.460888835246     0.024621182185    12.000000000000
         C            1.106815035139     1.945470164754     0.020228182185    12.000000000000
         C            1.263015035139    -1.566401835246     0.009733182185    12.000000000000
         C           -2.693657964861    -0.054710835246    -0.010785817815    12.000000000000
         H           -0.872552764861    -2.259786035246    -0.212433117815     1.007825032230
         H            1.157961035139     2.295795164754     1.054481182185     1.007825032230
         H            2.061338035139     2.118828164754    -0.475072817815     1.007825032230
         H            0.306010035139     2.468742164754    -0.502995817815     1.007825032230
         H            1.867962035139    -2.464132835246     0.009629182185     1.007825032230
         H           -3.493527964861     0.684277164754    -0.010384817815     1.007825032230
         H           -2.772220964861    -0.692029835246     0.875491182185     1.007825032230
         H           -2.750448964861    -0.669903835246    -0.914176817815     1.007825032230

  Basis Set: AUG-CC-PVTZ
    Blend: AUG-CC-PVTZ
  Basis Set: (AUG-CC-PVTZ AUX)
    Blend: AUG-CC-PVTZ-JKFIT
	 Reference Energy          =    -377.8403877991256650 [Eh]
	 Singles Energy            =      -0.0000000000000000 [Eh]
	 Same-Spin Energy          =      -0.3965655837221637 [Eh]
	 Opposite-Spin Energy      =      -1.2399422618616673 [Eh]
	 Correlation Energy        =      -1.6365078455838309 [Eh]
	 Total Energy              =    -379.4768956447094865 [Eh]

	 ================> DF-SCS-MP2 Energies <==================
	-----------------------------------------------------------
	 SCS Same-Spin Scale       =       0.3333333333333333 [-]
	 SCS Opposite-Spin Scale   =       1.2000000000000000 [-]
	 SCS Same-Spin Energy      =      -0.1321885279073879 [Eh]
	 SCS Opposite-Spin Energy  =      -1.4879307142340008 [Eh]
	 SCS Correlation Energy    =      -1.6201192421413886 [Eh]
	 SCS Total Energy          =    -379.4605070412670784 [Eh]
	-----------------------------------------------------------

  Dipole Moment: [D]
     X:    -2.9602      Y:     0.6879      Z:    -0.2121     Total:     3.0465

*** Psi4 exiting successfully. Buy a developer a beer!
