                               Psi4 1.3.2 release

  ==> Input File <==

--------------------------------------------------------------------------
#psi4
#
memory 32 gb

molecule  {
0 1
  O       -1.4373610     0.6812660     0.0112400
  N        0.8840130     0.5088410    -0.0326410
  N        1.9094790    -0.3796650    -0.0187050
  C       -0.3281200    -0.1042590     0.0031940
  C       -0.1052683    -1.4749632    -0.0780604
  C        1.1440790     1.9331410     0.0175110
  C        1.3002790    -1.5787310     0.0070160
  C       -2.6563940    -0.0670400    -0.0135030
  H       -0.8330430    -2.2689870     0.0348200
  H        1.1952250     2.2834660     1.0517640
  H        2.0986020     2.1064990    -0.4777900
  H        0.3432740     2.4564130    -0.5057130
  H        1.9052260    -2.4764620     0.0069120
  H       -3.4562640     0.6719480    -0.0131020
  H       -2.7349570    -0.7043590     0.8727740
  H       -2.7131850    -0.6822330    -0.9168940
units angstrom
no_reorient  #important for SAPT in psi4, default
symmetry c1  #important for SAPT in psi4, default
}

set PROPERTIES_ORIGIN ["COM"]
properties('MP2/aug-cc-pvtz', properties = ['dipole'])
--------------------------------------------------------------------------

    Molecular point group: c1
  Charge       = 0
  Multiplicity = 1
  Basis Set: AUG-CC-PVTZ
    Blend: AUG-CC-PVTZ
  Basis Set: (AUG-CC-PVTZ AUX)
    Blend: AUG-CC-PVTZ-JKFIT

    Orbital Energies [Eh]
    ---------------------

    Doubly Occupied:

       1A    -20.609580     2A    -15.628730     3A    -15.574025
       4A    -11.336593     5A    -11.298075     6A    -11.264322
       7A    -11.252872     8A    -11.216411     9A     -1.437118
      10A     -1.356516    11A     -1.114057    12A     -1.049128
      13A     -0.964283    14A     -0.933917    15A     -0.804634
      16A     -0.770848    17A     -0.725957    18A     -0.682149
      19A     -0.644621    20A     -0.633274    21A     -0.620034
      22A     -0.593419    23A     -0.576326    24A     -0.546956
      25A     -0.544433    26A     -0.523670    27A     -0.501076
      28A     -0.448201    29A     -0.349402    30A     -0.320964

  @DF-RHF Final Energy:  -377.84156273438725

   => Energetics <=

    Nuclear Repulsion Energy =            377.3669614126450824
    One-Electron Energy =               -1261.7738683696563839
    Two-Electron Energy =                 506.5653442226240486
    Total Energy =                       -377.8415627343872529
  Basis Set: (AUG-CC-PVTZ AUX)
    Blend: AUG-CC-PVTZ-RI
    Molecular point group: c1

    Geometry (in Angstrom), charge = 0, multiplicity = 1:

       Center              X                  Y                   Z               Mass
    ------------   -----------------  -----------------  -----------------  -----------------
         O           -1.474428931410     0.693753911321     0.022413504689    15.994914619570
         N            0.846945068590     0.521328911321    -0.021467495311    14.003074004430
         N            1.872411068590    -0.367177088679    -0.007531495311    14.003074004430
         C           -0.365187931410    -0.091771088679     0.014367504689    12.000000000000
         C           -0.142336231410    -1.462475288679    -0.066886895311    12.000000000000
         C            1.107011068590     1.945628911321     0.028684504689    12.000000000000
         C            1.263211068590    -1.566243088679     0.018189504689    12.000000000000
         C           -2.693461931410    -0.054552088679    -0.002329495311    12.000000000000
         H           -0.870110931410    -2.256499088679     0.045993504689     1.007825032230
         H            1.158157068590     2.295953911321     1.062937504689     1.007825032230
         H            2.061534068590     2.118986911321    -0.466616495311     1.007825032230
         H            0.306206068590     2.468900911321    -0.494539495311     1.007825032230
         H            1.868158068590    -2.463974088679     0.018085504689     1.007825032230
         H           -3.493331931410     0.684435911321    -0.001928495311     1.007825032230
         H           -2.772024931410    -0.691871088679     0.883947504689     1.007825032230
         H           -2.750252931410    -0.669745088679    -0.905720495311     1.007825032230

  Basis Set: AUG-CC-PVTZ
    Blend: AUG-CC-PVTZ
  Basis Set: (AUG-CC-PVTZ AUX)
    Blend: AUG-CC-PVTZ-JKFIT
	 Reference Energy          =    -377.8415627343872529 [Eh]
	 Singles Energy            =      -0.0000000000000000 [Eh]
	 Same-Spin Energy          =      -0.3965060209728009 [Eh]
	 Opposite-Spin Energy      =      -1.2398738971334231 [Eh]
	 Correlation Energy        =      -1.6363799181062240 [Eh]
	 Total Energy              =    -379.4779426524934820 [Eh]

	 ================> DF-SCS-MP2 Energies <==================
	-----------------------------------------------------------
	 SCS Same-Spin Scale       =       0.3333333333333333 [-]
	 SCS Opposite-Spin Scale   =       1.2000000000000000 [-]
	 SCS Same-Spin Energy      =      -0.1321686736576003 [Eh]
	 SCS Opposite-Spin Energy  =      -1.4878486765601078 [Eh]
	 SCS Correlation Energy    =      -1.6200173502177080 [Eh]
	 SCS Total Energy          =    -379.4615800846049751 [Eh]
	-----------------------------------------------------------

  Dipole Moment: [D]
     X:    -2.9851      Y:     0.6722      Z:     0.1097     Total:     3.0619

*** Psi4 exiting successfully. Buy a developer a beer!
