                               Psi4 1.3.2 release

  ==> Input File <==

--------------------------------------------------------------------------
#psi4
#
memory 32 gb

molecule  {
0 1
  O       -1.4373610     0.6812660     0.0112400
  N        0.8840130     0.5088410    -0.0326410
  N        1.9094790    -0.3796650    -0.0187050
  C       -0.3281200    -0.1042590     0.0031940
  C       -0.1032490    -1.4732180     0.0219040
  C        1.1440790     1.9331410     0.0175110
  C        1.3002790    -1.5787310     0.0070160
  C       -2.6563940    -0.0670400    -0.0135030
  H       -0.8330430    -2.2689870     0.0348200
  H        1.1952250     2.2834660     1.0517640
  H        2.0986020     2.1064990    -0.4777900
  H        0.3432740     2.4564130    -0.5057130
  H        1.9065811    -2.4752432     0.1068954
  H       -3.4562640     0.6719480    -0.0131020
  H       -2.7349570    -0.7043590     0.8727740
  H       -2.7131850    -0.6822330    -0.9168940
units angstrom
no_reorient  #important for SAPT in psi4, default
symmetry c1  #important for SAPT in psi4, default
}

set PROPERTIES_ORIGIN ["COM"]
properties('MP2/aug-cc-pvtz', properties = ['dipole'])
--------------------------------------------------------------------------

    Molecular point group: c1
  Charge       = 0
  Multiplicity = 1
  Basis Set: AUG-CC-PVTZ
    Blend: AUG-CC-PVTZ
  Basis Set: (AUG-CC-PVTZ AUX)
    Blend: AUG-CC-PVTZ-JKFIT

    Orbital Energies [Eh]
    ---------------------

    Doubly Occupied:

       1A    -20.609194     2A    -15.628507     3A    -15.573892
       4A    -11.335546     5A    -11.298041     6A    -11.264204
       7A    -11.252528     8A    -11.215699     9A     -1.436816
      10A     -1.356420    11A     -1.114058    12A     -1.049624
      13A     -0.964365    14A     -0.933812    15A     -0.804476
      16A     -0.771119    17A     -0.726053    18A     -0.682009
      19A     -0.644705    20A     -0.632989    21A     -0.620968
      22A     -0.593840    23A     -0.576666    24A     -0.546546
      25A     -0.545020    26A     -0.523418    27A     -0.500972
      28A     -0.448310    29A     -0.349550    30A     -0.320839

  @DF-RHF Final Energy:  -377.84330231210055

   => Energetics <=

    Nuclear Repulsion Energy =            377.4736271114148849
    One-Electron Energy =               -1261.9934855926724140
    Two-Electron Energy =                 506.6765561691569815
    Total Energy =                       -377.8433023121005476
  Basis Set: (AUG-CC-PVTZ AUX)
    Blend: AUG-CC-PVTZ-RI
    Molecular point group: c1

    Geometry (in Angstrom), charge = 0, multiplicity = 1:

       Center              X                  Y                   Z               Mass
    ------------   -----------------  -----------------  -----------------  -----------------
         O           -1.474657348928     0.693556070767     0.010809934541    15.994914619570
         N            0.846716651072     0.521131070767    -0.033071065459    14.003074004430
         N            1.872182651072    -0.367374929233    -0.019135065459    14.003074004430
         C           -0.365416348928    -0.091968929233     0.002763934541    12.000000000000
         C           -0.140545348928    -1.460927929233     0.021473934541    12.000000000000
         C            1.106782651072     1.945431070767     0.017080934541    12.000000000000
         C            1.262982651072    -1.566440929233     0.006585934541    12.000000000000
         C           -2.693690348928    -0.054749929233    -0.013933065459    12.000000000000
         H           -0.870339348928    -2.256696929233     0.034389934541     1.007825032230
         H            1.157928651072     2.295756070767     1.051333934541     1.007825032230
         H            2.061305651072     2.118789070767    -0.478220065459     1.007825032230
         H            0.305977651072     2.468703070767    -0.506143065459     1.007825032230
         H            1.869284751072    -2.462953129233     0.106465334541     1.007825032230
         H           -3.493560348928     0.684238070767    -0.013532065459     1.007825032230
         H           -2.772253348928    -0.692068929233     0.872343934541     1.007825032230
         H           -2.750481348928    -0.669942929233    -0.917324065459     1.007825032230

  Basis Set: AUG-CC-PVTZ
    Blend: AUG-CC-PVTZ
  Basis Set: (AUG-CC-PVTZ AUX)
    Blend: AUG-CC-PVTZ-JKFIT
	 Reference Energy          =    -377.8433023121005476 [Eh]
	 Singles Energy            =      -0.0000000000000000 [Eh]
	 Same-Spin Energy          =      -0.3964705178342331 [Eh]
	 Opposite-Spin Energy      =      -1.2396941430899686 [Eh]
	 Correlation Energy        =      -1.6361646609242018 [Eh]
	 Total Energy              =    -379.4794669730247278 [Eh]

	 ================> DF-SCS-MP2 Energies <==================
	-----------------------------------------------------------
	 SCS Same-Spin Scale       =       0.3333333333333333 [-]
	 SCS Opposite-Spin Scale   =       1.2000000000000000 [-]
	 SCS Same-Spin Energy      =      -0.1321568392780777 [Eh]
	 SCS Opposite-Spin Energy  =      -1.4876329717079624 [Eh]
	 SCS Correlation Energy    =      -1.6197898109860400 [Eh]
	 SCS Total Energy          =    -379.4630921230865965 [Eh]
	-----------------------------------------------------------

  Dipole Moment: [D]
     X:    -3.0003      Y:     0.6548      Z:     0.0750     Total:     3.0718

*** Psi4 exiting successfully. Buy a developer a beer!
