                               Psi4 1.3.2 release

  ==> Input File <==

--------------------------------------------------------------------------
#psi4
#
memory 32 gb

molecule  {
0 1
  O       -1.4373610     0.6812660     0.0112400
  N        0.8840130     0.5088410    -0.0326410
  N        1.9094790    -0.3796650    -0.0187050
  C       -0.3281200    -0.1042590     0.0031940
  C       -0.1032490    -1.4732180     0.0219040
  C        1.1440790     1.9331410     0.0175110
  C        1.3002790    -1.5787310     0.0070160
  C       -2.6563940    -0.0670400    -0.0135030
  H       -0.8334922    -2.2696126    -0.0151741
  H        1.1952250     2.2834660     1.0517640
  H        2.0986020     2.1064990    -0.4777900
  H        0.3432740     2.4564130    -0.5057130
  H        1.9052260    -2.4764620     0.0069120
  H       -3.4562640     0.6719480    -0.0131020
  H       -2.7349570    -0.7043590     0.8727740
  H       -2.7131850    -0.6822330    -0.9168940
units angstrom
no_reorient  #important for SAPT in psi4, default
symmetry c1  #important for SAPT in psi4, default
}

set PROPERTIES_ORIGIN ["COM"]
properties('MP2/aug-cc-pvtz', properties = ['dipole'])
--------------------------------------------------------------------------

    Molecular point group: c1
  Charge       = 0
  Multiplicity = 1
  Basis Set: AUG-CC-PVTZ
    Blend: AUG-CC-PVTZ
  Basis Set: (AUG-CC-PVTZ AUX)
    Blend: AUG-CC-PVTZ-JKFIT

    Orbital Energies [Eh]
    ---------------------

    Doubly Occupied:

       1A    -20.609186     2A    -15.628516     3A    -15.573786
       4A    -11.335551     5A    -11.298020     6A    -11.264148
       7A    -11.252188     8A    -11.215781     9A     -1.436804
      10A     -1.356391    11A     -1.114086    12A     -1.049584
      13A     -0.964331    14A     -0.933910    15A     -0.804755
      16A     -0.771109    17A     -0.726275    18A     -0.681984
      19A     -0.644697    20A     -0.632972    21A     -0.620809
      22A     -0.593888    23A     -0.577541    24A     -0.545737
      25A     -0.545308    26A     -0.523605    27A     -0.501006
      28A     -0.448247    29A     -0.349718    30A     -0.320834

  @DF-RHF Final Energy:  -377.84375622545605

   => Energetics <=

    Nuclear Repulsion Energy =            377.4859973083247269
    One-Electron Energy =               -1262.0179757437574608
    Two-Electron Energy =                 506.6882222099766864
    Total Energy =                       -377.8437562254560476
  Basis Set: (AUG-CC-PVTZ AUX)
    Blend: AUG-CC-PVTZ-RI
    Molecular point group: c1

    Geometry (in Angstrom), charge = 0, multiplicity = 1:

       Center              X                  Y                   Z               Mass
    ------------   -----------------  -----------------  -----------------  -----------------
         O           -1.474641122270     0.693572658057     0.012158731063    15.994914619570
         N            0.846732877730     0.521147658057    -0.031722268937    14.003074004430
         N            1.872198877730    -0.367358341943    -0.017786268937    14.003074004430
         C           -0.365400122270    -0.091952341943     0.004112731063    12.000000000000
         C           -0.140529122270    -1.460911341943     0.022822731063    12.000000000000
         C            1.106798877730     1.945447658057     0.018429731063    12.000000000000
         C            1.262998877730    -1.566424341943     0.007934731063    12.000000000000
         C           -2.693674122270    -0.054733341943    -0.012584268937    12.000000000000
         H           -0.870772322270    -2.257305941943    -0.014255368937     1.007825032230
         H            1.157944877730     2.295772658057     1.052682731063     1.007825032230
         H            2.061321877730     2.118805658057    -0.476871268937     1.007825032230
         H            0.305993877730     2.468719658057    -0.504794268937     1.007825032230
         H            1.867945877730    -2.464155341943     0.007830731063     1.007825032230
         H           -3.493544122270     0.684254658057    -0.012183268937     1.007825032230
         H           -2.772237122270    -0.692052341943     0.873692731063     1.007825032230
         H           -2.750465122270    -0.669926341943    -0.915975268937     1.007825032230

  Basis Set: AUG-CC-PVTZ
    Blend: AUG-CC-PVTZ
  Basis Set: (AUG-CC-PVTZ AUX)
    Blend: AUG-CC-PVTZ-JKFIT
	 Reference Energy          =    -377.8437562254560476 [Eh]
	 Singles Energy            =      -0.0000000000000000 [Eh]
	 Same-Spin Energy          =      -0.3964412539851316 [Eh]
	 Opposite-Spin Energy      =      -1.2396281195764434 [Eh]
	 Correlation Energy        =      -1.6360693735615750 [Eh]
	 Total Energy              =    -379.4798255990176017 [Eh]

	 ================> DF-SCS-MP2 Energies <==================
	-----------------------------------------------------------
	 SCS Same-Spin Scale       =       0.3333333333333333 [-]
	 SCS Opposite-Spin Scale   =       1.2000000000000000 [-]
	 SCS Same-Spin Energy      =      -0.1321470846617105 [Eh]
	 SCS Opposite-Spin Energy  =      -1.4875537434917321 [Eh]
	 SCS Correlation Energy    =      -1.6197008281534426 [Eh]
	 SCS Total Energy          =    -379.4634570536094884 [Eh]
	-----------------------------------------------------------

  Dipole Moment: [D]
     X:    -2.9965      Y:     0.6474      Z:    -0.0407     Total:     3.0659

*** Psi4 exiting successfully. Buy a developer a beer!
