                               Psi4 1.3.2 release

  ==> Input File <==

--------------------------------------------------------------------------
#psi4
#
memory 32 gb

molecule  {
0 1
  O       -1.4373610     0.6812660     0.0112400
  N        0.8840130     0.5088410    -0.0326410
  N        1.9094790    -0.3796650    -0.0187050
  C       -0.3281200    -0.1042590     0.0031940
  C       -0.1042586    -1.4740906    -0.0280782
  C        1.1440790     1.9331410     0.0175110
  C        1.3002790    -1.5787310     0.0070160
  C       -2.6563940    -0.0670400    -0.0135030
  H       -0.8330430    -2.2689870     0.0348200
  H        1.1952250     2.2834660     1.0517640
  H        2.0986020     2.1064990    -0.4777900
  H        0.3432740     2.4564130    -0.5057130
  H        1.9052260    -2.4764620     0.0069120
  H       -3.4562640     0.6719480    -0.0131020
  H       -2.7349570    -0.7043590     0.8727740
  H       -2.7131850    -0.6822330    -0.9168940
units angstrom
no_reorient  #important for SAPT in psi4, default
symmetry c1  #important for SAPT in psi4, default
}

set PROPERTIES_ORIGIN ["COM"]
properties('MP2/aug-cc-pvtz', properties = ['dipole'])
--------------------------------------------------------------------------

    Molecular point group: c1
  Charge       = 0
  Multiplicity = 1
  Basis Set: AUG-CC-PVTZ
    Blend: AUG-CC-PVTZ
  Basis Set: (AUG-CC-PVTZ AUX)
    Blend: AUG-CC-PVTZ-JKFIT

    Orbital Energies [Eh]
    ---------------------

    Doubly Occupied:

       1A    -20.609291     2A    -15.628511     3A    -15.573819
       4A    -11.335811     5A    -11.298041     6A    -11.264177
       7A    -11.252332     8A    -11.215842     9A     -1.436882
      10A     -1.356383    11A     -1.114036    12A     -1.049461
      13A     -0.964333    14A     -0.933893    15A     -0.804756
      16A     -0.771040    17A     -0.726244    18A     -0.682012
      19A     -0.644801    20A     -0.633058    21A     -0.620740
      22A     -0.593745    23A     -0.577002    24A     -0.546512
      25A     -0.544730    26A     -0.523839    27A     -0.501015
      28A     -0.448235    29A     -0.349536    30A     -0.320858

  @DF-RHF Final Energy:  -377.84332564315923

   => Energetics <=

    Nuclear Repulsion Energy =            377.4583675471884021
    One-Electron Energy =               -1261.9615145796651632
    Two-Electron Energy =                 506.6598213893175853
    Total Energy =                       -377.8433256431592326
  Basis Set: (AUG-CC-PVTZ AUX)
    Blend: AUG-CC-PVTZ-RI
    Molecular point group: c1

    Geometry (in Angstrom), charge = 0, multiplicity = 1:

       Center              X                  Y                   Z               Mass
    ------------   -----------------  -----------------  -----------------  -----------------
         O           -1.474537052095     0.693660471576     0.017061311261    15.994914619570
         N            0.846836947905     0.521235471576    -0.026819688739    14.003074004430
         N            1.872302947905    -0.367270528424    -0.012883688739    14.003074004430
         C           -0.365296052095    -0.091864528424     0.009015311261    12.000000000000
         C           -0.141434652095    -1.461696128424    -0.022256888739    12.000000000000
         C            1.106902947905     1.945535471576     0.023332311261    12.000000000000
         C            1.263102947905    -1.566336528424     0.012837311261    12.000000000000
         C           -2.693570052095    -0.054645528424    -0.007681688739    12.000000000000
         H           -0.870219052095    -2.256592528424     0.040641311261     1.007825032230
         H            1.158048947905     2.295860471576     1.057585311261     1.007825032230
         H            2.061425947905     2.118893471576    -0.471968688739     1.007825032230
         H            0.306097947905     2.468807471576    -0.499891688739     1.007825032230
         H            1.868049947905    -2.464067528424     0.012733311261     1.007825032230
         H           -3.493440052095     0.684342471576    -0.007280688739     1.007825032230
         H           -2.772133052095    -0.691964528424     0.878595311261     1.007825032230
         H           -2.750361052095    -0.669838528424    -0.911072688739     1.007825032230

  Basis Set: AUG-CC-PVTZ
    Blend: AUG-CC-PVTZ
  Basis Set: (AUG-CC-PVTZ AUX)
    Blend: AUG-CC-PVTZ-JKFIT
	 Reference Energy          =    -377.8433256431592326 [Eh]
	 Singles Energy            =      -0.0000000000000000 [Eh]
	 Same-Spin Energy          =      -0.3964504411006061 [Eh]
	 Opposite-Spin Energy      =      -1.2396725054830133 [Eh]
	 Correlation Energy        =      -1.6361229465836193 [Eh]
	 Total Energy              =    -379.4794485897428444 [Eh]

	 ================> DF-SCS-MP2 Energies <==================
	-----------------------------------------------------------
	 SCS Same-Spin Scale       =       0.3333333333333333 [-]
	 SCS Opposite-Spin Scale   =       1.2000000000000000 [-]
	 SCS Same-Spin Energy      =      -0.1321501470335354 [Eh]
	 SCS Opposite-Spin Energy  =      -1.4876070065796159 [Eh]
	 SCS Correlation Energy    =      -1.6197571536131512 [Eh]
	 SCS Total Energy          =    -379.4630827967723690 [Eh]
	-----------------------------------------------------------

  Dipole Moment: [D]
     X:    -2.9958      Y:     0.6534      Z:     0.0562     Total:     3.0667

*** Psi4 exiting successfully. Buy a developer a beer!
