                               Psi4 1.3.2 release

  ==> Input File <==

--------------------------------------------------------------------------
#psi4
#
memory 32 gb

molecule  {
0 1
  O       -1.2542770    -0.2468050     0.3469180
  O       -0.1468590     1.6858550    -0.1065980
  O        2.1477990    -1.6706520    -0.3530900
  C        0.9946260    -0.1111920     1.0566790
  C       -2.4120090     0.3089700    -0.3319760
  C       -0.1772750     0.5642190     0.3788660
  C        2.0280760    -0.5019680    -0.0034050
  C       -3.4935710    -0.7441700    -0.2685760
  C        2.8657550     0.6173710    -0.5671120
  H        0.6103444    -1.1777156     1.6726307
  H        1.4326490     0.6059550     1.7585010
  H       -2.7005340     1.2360120     0.1703920
  H       -2.1291700     0.5558430    -1.3586020
  H       -4.3948760    -0.3798980    -0.7694460
  H       -3.1658200    -1.6603590    -0.7638670
  H       -3.7423020    -0.9776200     0.7686940
  H        3.4353450     0.2519410    -1.4221430
  H        3.5571500     0.9732660     0.2049480
  H        2.2307250     1.4606800    -0.8503130
units angstrom
no_reorient  #important for SAPT in psi4, default
symmetry c1  #important for SAPT in psi4, default
}

set PROPERTIES_ORIGIN ["COM"]
properties('MP2/aug-cc-pvtz', properties = ['dipole'])
--------------------------------------------------------------------------

    Molecular point group: c1
  Charge       = 0
  Multiplicity = 1
  Basis Set: AUG-CC-PVTZ
    Blend: AUG-CC-PVTZ
  Basis Set: (AUG-CC-PVTZ AUX)
    Blend: AUG-CC-PVTZ-JKFIT

    Orbital Energies [Eh]
    ---------------------

    Doubly Occupied:

       1A    -20.615331     2A    -20.560026     3A    -20.558473
       4A    -11.401940     5A    -11.350605     6A    -11.296704
       7A    -11.282544     8A    -11.237767     9A    -11.229750
      10A     -1.467242    11A     -1.388676    12A     -1.367189
      13A     -1.077580    14A     -1.040512    15A     -0.986914
      16A     -0.875423    17A     -0.799721    18A     -0.755226
      19A     -0.700411    20A     -0.693662    21A     -0.679634
      22A     -0.652650    23A     -0.634263    24A     -0.601460
      25A     -0.584955    26A     -0.570516    27A     -0.568680
      28A     -0.551012    29A     -0.523075    30A     -0.519552
      31A     -0.514630    32A     -0.503351    33A     -0.469963
      34A     -0.456222    35A     -0.424367

  @DF-RHF Final Energy:  -457.78471357383717

   => Energetics <=

    Nuclear Repulsion Energy =            452.2906743079694820
    One-Electron Energy =               -1522.2707239389023925
    Two-Electron Energy =                 612.1953360570956875
    Total Energy =                       -457.7847135738371662
  Basis Set: (AUG-CC-PVTZ AUX)
    Blend: AUG-CC-PVTZ-RI
    Molecular point group: c1

    Geometry (in Angstrom), charge = 0, multiplicity = 1:

       Center              X                  Y                   Z               Mass
    ------------   -----------------  -----------------  -----------------  -----------------
         O           -1.290455360602    -0.237496892204     0.340950509917    15.994914619570
         O           -0.183037360602     1.695163107796    -0.112565490083    15.994914619570
         O            2.111620639398    -1.661343892204    -0.359057490083    15.994914619570
         C            0.958447639398    -0.101883892204     1.050711509917    12.000000000000
         C           -2.448187360602     0.318278107796    -0.337943490083    12.000000000000
         C           -0.213453360602     0.573527107796     0.372898509917    12.000000000000
         C            1.991897639398    -0.492659892204    -0.009372490083    12.000000000000
         C           -3.529749360602    -0.734861892204    -0.274543490083    12.000000000000
         C            2.829576639398     0.626679107796    -0.573079490083    12.000000000000
         H            0.574166039398    -1.168407492204     1.666663209917     1.007825032230
         H            1.396470639398     0.615263107796     1.752533509917     1.007825032230
         H           -2.736712360602     1.245320107796     0.164424509917     1.007825032230
         H           -2.165348360602     0.565151107796    -1.364569490083     1.007825032230
         H           -4.431054360602    -0.370589892204    -0.775413490083     1.007825032230
         H           -3.201998360602    -1.651050892204    -0.769834490083     1.007825032230
         H           -3.778480360602    -0.968311892204     0.762726509917     1.007825032230
         H            3.399166639398     0.261249107796    -1.428110490083     1.007825032230
         H            3.520971639398     0.982574107796     0.198980509917     1.007825032230
         H            2.194546639398     1.469988107796    -0.856280490083     1.007825032230

  Basis Set: AUG-CC-PVTZ
    Blend: AUG-CC-PVTZ
  Basis Set: (AUG-CC-PVTZ AUX)
    Blend: AUG-CC-PVTZ-JKFIT
	 Reference Energy          =    -457.7847135738371662 [Eh]
	 Singles Energy            =      -0.0000000000000000 [Eh]
	 Same-Spin Energy          =      -0.4487126475245019 [Eh]
	 Opposite-Spin Energy      =      -1.4415742493632981 [Eh]
	 Correlation Energy        =      -1.8902868968878002 [Eh]
	 Total Energy              =    -459.6750004707249673 [Eh]

	 ================> DF-SCS-MP2 Energies <==================
	-----------------------------------------------------------
	 SCS Same-Spin Scale       =       0.3333333333333333 [-]
	 SCS Opposite-Spin Scale   =       1.2000000000000000 [-]
	 SCS Same-Spin Energy      =      -0.1495708825081673 [Eh]
	 SCS Opposite-Spin Energy  =      -1.7298890992359577 [Eh]
	 SCS Correlation Energy    =      -1.8794599817441249 [Eh]
	 SCS Total Energy          =    -459.6641735555812716 [Eh]
	-----------------------------------------------------------

  Dipole Moment: [D]
     X:    -1.3040      Y:     1.1298      Z:     0.9433     Total:     1.9664

*** Psi4 exiting successfully. Buy a developer a beer!
