                               Psi4 1.4a3.dev225

  ==> Input File <==

--------------------------------------------------------------------------
#psi4
#
memory 32 gb

molecule  {
0 1
  O       -1.2544100    -0.2466020     0.3472100
  O       -0.1467170     1.6857710    -0.1068680
  O        2.1477710    -1.6706650    -0.3531650
  C        0.9946280    -0.1112570     1.0566320
  C       -2.3723068     0.2899754    -0.3083393
  C       -0.1772600     0.5642340     0.3788210
  C        2.0280890    -0.5019850    -0.0034200
  C       -3.4935060    -0.7442920    -0.2688040
  C        2.8658400     0.6173540    -0.5670070
  H        0.6698310    -1.0124810     1.5769910
  H        1.4325960     0.6058250     1.7585570
  H       -2.7009940     1.2359100     0.1709210
  H       -2.1292340     0.5563720    -1.3582130
  H       -4.3948380    -0.3800300    -0.7696350
  H       -3.1655030    -1.6602290    -0.7643920
  H       -3.7422990    -0.9781810     0.7683530
  H        3.4354090     0.2520080    -1.4220870
  H        3.5572420     0.9731160     0.2051050
  H        2.2308310     1.4607170    -0.8501030
units angstrom
no_reorient  #important for SAPT in psi4, default
symmetry c1  #important for SAPT in psi4, default
}

set PROPERTIES_ORIGIN ["COM"]
properties('MP2/aug-cc-pvtz', properties = ['dipole'])
--------------------------------------------------------------------------

    Molecular point group: c1
  Charge       = 0
  Multiplicity = 1
  Basis Set: AUG-CC-PVTZ
    Blend: AUG-CC-PVTZ
  Basis Set: (AUG-CC-PVTZ AUX)
    Blend: AUG-CC-PVTZ-JKFIT

    Orbital Energies [Eh]
    ---------------------

    Doubly Occupied:

       1A    -20.621294     2A    -20.562135     3A    -20.560051
       4A    -11.403878     5A    -11.351090     6A    -11.295824
       7A    -11.265407     8A    -11.237581     9A    -11.228296
      10A     -1.479617    11A     -1.390476    12A     -1.374200
      13A     -1.084823    14A     -1.037591    15A     -0.991908
      16A     -0.880075    17A     -0.801174    18A     -0.759887
      19A     -0.713600    20A     -0.697967    21A     -0.683679
      22A     -0.652899    23A     -0.644691    24A     -0.605849
      25A     -0.588229    26A     -0.577685    27A     -0.569117
      28A     -0.554601    29A     -0.542689    30A     -0.513125
      31A     -0.511156    32A     -0.505367    33A     -0.466038
      34A     -0.460959    35A     -0.425125

  @DF-RHF Final Energy:  -457.80493061254384

   => Energetics <=

    Nuclear Repulsion Energy =            454.0269173671214276
    One-Electron Energy =               -1525.5875331897934757
    Two-Electron Energy =                 613.7556852101281493
    Total Energy =                       -457.8049306125437852
  Basis Set: (AUG-CC-PVTZ AUX)
    Blend: AUG-CC-PVTZ-RI
    Molecular point group: c1

    Geometry (in Angstrom), charge = 0, multiplicity = 1:

       Center              X                  Y                   Z               Mass
    ------------   -----------------  -----------------  -----------------  -----------------
         O           -1.294726954528    -0.236813366480     0.339827893384    15.994914619570
         O           -0.187033954528     1.695559633520    -0.114250106616    15.994914619570
         O            2.107454045472    -1.660876366480    -0.360547106616    15.994914619570
         C            0.954311045472    -0.101468366480     1.049249893384    12.000000000000
         C           -2.412623754528     0.299764033520    -0.315721406616    12.000000000000
         C           -0.217576954528     0.574022633520     0.371438893384    12.000000000000
         C            1.987772045472    -0.492196366480    -0.010802106616    12.000000000000
         C           -3.533822954528    -0.734503366480    -0.276186106616    12.000000000000
         C            2.825523045472     0.627142633520    -0.574389106616    12.000000000000
         H            0.629514045472    -1.002692366480     1.569608893384     1.007825032230
         H            1.392279045472     0.615613633520     1.751174893384     1.007825032230
         H           -2.741310954528     1.245698633520     0.163538893384     1.007825032230
         H           -2.169550954528     0.566160633520    -1.365595106616     1.007825032230
         H           -4.435154954528    -0.370241366480    -0.777017106616     1.007825032230
         H           -3.205819954528    -1.650440366480    -0.771774106616     1.007825032230
         H           -3.782615954528    -0.968392366480     0.760970893384     1.007825032230
         H            3.395092045472     0.261796633520    -1.429469106616     1.007825032230
         H            3.516925045472     0.982904633520     0.197722893384     1.007825032230
         H            2.190514045472     1.470505633520    -0.857485106616     1.007825032230

  Basis Set: AUG-CC-PVTZ
    Blend: AUG-CC-PVTZ
  Basis Set: (AUG-CC-PVTZ AUX)
    Blend: AUG-CC-PVTZ-JKFIT
	 Reference Energy          =    -457.8049306125438420 [Eh]
	 Singles Energy            =      -0.0000000000000000 [Eh]
	 Same-Spin Energy          =      -0.4482491999954078 [Eh]
	 Opposite-Spin Energy      =      -1.4390128546238761 [Eh]
	 Correlation Energy        =      -1.8872620546192840 [Eh]
	 Total Energy              =    -459.6921926671631127 [Eh]

	 ================> DF-SCS-MP2 Energies <==================
	-----------------------------------------------------------
	 SCS Same-Spin Scale       =       0.3333333333333333 [-]
	 SCS Opposite-Spin Scale   =       1.2000000000000000 [-]
	 SCS Same-Spin Energy      =      -0.1494163999984693 [Eh]
	 SCS Opposite-Spin Energy  =      -1.7268154255486512 [Eh]
	 SCS Correlation Energy    =      -1.8762318255471204 [Eh]
	 SCS Total Energy          =    -459.6811624380909507 [Eh]
	-----------------------------------------------------------

  Dipole Moment: [D]
     X:    -1.0921      Y:     1.1081      Z:     1.0575     Total:     1.8812

*** Psi4 exiting successfully. Buy a developer a beer!
