                               Psi4 1.3.2 release

  ==> Input File <==

--------------------------------------------------------------------------
#psi4
#
memory 32 gb

molecule  {
0 1
  O       -1.2542770    -0.2468050     0.3469180
  O       -0.1468590     1.6858550    -0.1065980
  O        2.1477990    -1.6706520    -0.3530900
  C        0.9946260    -0.1111920     1.0566790
  C       -2.4120090     0.3089700    -0.3319760
  C       -0.1653079     0.5610592     0.3555412
  C        2.0280760    -0.5019680    -0.0034050
  C       -3.4935710    -0.7441700    -0.2685760
  C        2.8657550     0.6173710    -0.5671120
  H        0.6699150    -1.0123850     1.5771470
  H        1.4326490     0.6059550     1.7585010
  H       -2.7005340     1.2360120     0.1703920
  H       -2.1291700     0.5558430    -1.3586020
  H       -4.3948760    -0.3798980    -0.7694460
  H       -3.1658200    -1.6603590    -0.7638670
  H       -3.7423020    -0.9776200     0.7686940
  H        3.4353450     0.2519410    -1.4221430
  H        3.5571500     0.9732660     0.2049480
  H        2.2307250     1.4606800    -0.8503130
units angstrom
no_reorient  #important for SAPT in psi4, default
symmetry c1  #important for SAPT in psi4, default
}

set PROPERTIES_ORIGIN ["COM"]
properties('MP2/aug-cc-pvtz', properties = ['dipole'])
--------------------------------------------------------------------------

    Molecular point group: c1
  Charge       = 0
  Multiplicity = 1
  Basis Set: AUG-CC-PVTZ
    Blend: AUG-CC-PVTZ
  Basis Set: (AUG-CC-PVTZ AUX)
    Blend: AUG-CC-PVTZ-JKFIT

    Orbital Energies [Eh]
    ---------------------

    Doubly Occupied:

       1A    -20.613913     2A    -20.560357     3A    -20.558547
       4A    -11.400279     5A    -11.349473     6A    -11.296089
       7A    -11.263488     8A    -11.236836     9A    -11.229319
      10A     -1.466022    11A     -1.389014    12A     -1.368973
      13A     -1.082600    14A     -1.039979    15A     -0.991260
      16A     -0.874870    17A     -0.798698    18A     -0.755753
      19A     -0.710489    20A     -0.693043    21A     -0.679722
      22A     -0.652682    23A     -0.643090    24A     -0.602876
      25A     -0.587978    26A     -0.575969    27A     -0.569508
      28A     -0.552030    29A     -0.538907    30A     -0.521335
      31A     -0.515449    32A     -0.504229    33A     -0.470037
      34A     -0.458653    35A     -0.423199

  @DF-RHF Final Energy:  -457.80621768070705

   => Energetics <=

    Nuclear Repulsion Energy =            453.2992824267669789
    One-Electron Energy =               -1524.2616653741913524
    Two-Electron Energy =                 613.1561652667173803
    Total Energy =                       -457.8062176807070500
  Basis Set: (AUG-CC-PVTZ AUX)
    Blend: AUG-CC-PVTZ-RI
    Molecular point group: c1

    Geometry (in Angstrom), charge = 0, multiplicity = 1:

       Center              X                  Y                   Z               Mass
    ------------   -----------------  -----------------  -----------------  -----------------
         O           -1.292021078377    -0.238486464357     0.343842404460    15.994914619570
         O           -0.184603078377     1.694173535643    -0.109673595540    15.994914619570
         O            2.110054921623    -1.662333464357    -0.356165595540    15.994914619570
         C            0.956881921623    -0.102873464357     1.053603404460    12.000000000000
         C           -2.449753078377     0.317288535643    -0.335051595540    12.000000000000
         C           -0.203051978377     0.569377735643     0.352465604460    12.000000000000
         C            1.990331921623    -0.493649464357    -0.006480595540    12.000000000000
         C           -3.531315078377    -0.735851464357    -0.271651595540    12.000000000000
         C            2.828010921623     0.625689535643    -0.570187595540    12.000000000000
         H            0.632170921623    -1.004066464357     1.574071404460     1.007825032230
         H            1.394904921623     0.614273535643     1.755425404460     1.007825032230
         H           -2.738278078377     1.244330535643     0.167316404460     1.007825032230
         H           -2.166914078377     0.564161535643    -1.361677595540     1.007825032230
         H           -4.432620078377    -0.371579464357    -0.772521595540     1.007825032230
         H           -3.203564078377    -1.652040464357    -0.766942595540     1.007825032230
         H           -3.780046078377    -0.969301464357     0.765618404460     1.007825032230
         H            3.397600921623     0.260259535643    -1.425218595540     1.007825032230
         H            3.519405921623     0.981584535643     0.201872404460     1.007825032230
         H            2.192980921623     1.468998535643    -0.853388595540     1.007825032230

  Basis Set: AUG-CC-PVTZ
    Blend: AUG-CC-PVTZ
  Basis Set: (AUG-CC-PVTZ AUX)
    Blend: AUG-CC-PVTZ-JKFIT
	 Reference Energy          =    -457.8062176807070500 [Eh]
	 Singles Energy            =      -0.0000000000000000 [Eh]
	 Same-Spin Energy          =      -0.4482538512519612 [Eh]
	 Opposite-Spin Energy      =      -1.4393837589295524 [Eh]
	 Correlation Energy        =      -1.8876376101815135 [Eh]
	 Total Energy              =    -459.6938552908885640 [Eh]

	 ================> DF-SCS-MP2 Energies <==================
	-----------------------------------------------------------
	 SCS Same-Spin Scale       =       0.3333333333333333 [-]
	 SCS Opposite-Spin Scale   =       1.2000000000000000 [-]
	 SCS Same-Spin Energy      =      -0.1494179504173204 [Eh]
	 SCS Opposite-Spin Energy  =      -1.7272605107154628 [Eh]
	 SCS Correlation Energy    =      -1.8766784611327831 [Eh]
	 SCS Total Energy          =    -459.6828961418398194 [Eh]
	-----------------------------------------------------------

  Dipole Moment: [D]
     X:    -1.2506      Y:     1.1564      Z:     0.9715     Total:     1.9609

*** Psi4 exiting successfully. Buy a developer a beer!
