                               Psi4 1.3.2 release

  ==> Input File <==

--------------------------------------------------------------------------
#psi4
#
memory 32 gb

molecule  {
0 1
  O       -1.2542770    -0.2468050     0.3469180
  O       -0.1468590     1.6858550    -0.1065980
  O        2.1477990    -1.6706520    -0.3530900
  C        0.9946260    -0.1111920     1.0566790
  C       -2.4120090     0.3089700    -0.3319760
  C       -0.1772750     0.5642190     0.3788660
  C        2.0280760    -0.5019680    -0.0034050
  C       -3.4935710    -0.7441700    -0.2685760
  C        2.8657550     0.6173710    -0.5671120
  H        0.7294856    -0.8470544     1.4816633
  H        1.4326490     0.6059550     1.7585010
  H       -2.7005340     1.2360120     0.1703920
  H       -2.1291700     0.5558430    -1.3586020
  H       -4.3948760    -0.3798980    -0.7694460
  H       -3.1658200    -1.6603590    -0.7638670
  H       -3.7423020    -0.9776200     0.7686940
  H        3.4353450     0.2519410    -1.4221430
  H        3.5571500     0.9732660     0.2049480
  H        2.2307250     1.4606800    -0.8503130
units angstrom
no_reorient  #important for SAPT in psi4, default
symmetry c1  #important for SAPT in psi4, default
}

set PROPERTIES_ORIGIN ["COM"]
properties('MP2/aug-cc-pvtz', properties = ['dipole'])
--------------------------------------------------------------------------

    Molecular point group: c1
  Charge       = 0
  Multiplicity = 1
  Basis Set: AUG-CC-PVTZ
    Blend: AUG-CC-PVTZ
  Basis Set: (AUG-CC-PVTZ AUX)
    Blend: AUG-CC-PVTZ-JKFIT

    Orbital Energies [Eh]
    ---------------------

    Doubly Occupied:

       1A    -20.616332     2A    -20.559168     3A    -20.557765
       4A    -11.399652     5A    -11.349369     6A    -11.297411
       7A    -11.241663     8A    -11.235646     9A    -11.230073
      10A     -1.467356    11A     -1.389666    12A     -1.366081
      13A     -1.094825    14A     -1.041906    15A     -0.998751
      16A     -0.878219    17A     -0.800192    18A     -0.762806
      19A     -0.727165    20A     -0.694073    21A     -0.679915
      22A     -0.657047    23A     -0.650379    24A     -0.606470
      25A     -0.592524    26A     -0.579306    27A     -0.569322
      28A     -0.552858    29A     -0.545810    30A     -0.522269
      31A     -0.514519    32A     -0.504193    33A     -0.470207
      34A     -0.458571    35A     -0.423303

  @DF-RHF Final Energy:  -457.77226281878887

   => Energetics <=

    Nuclear Repulsion Energy =            454.3120652842582103
    One-Electron Energy =               -1526.0990334154205357
    Two-Electron Energy =                 614.0147053123732803
    Total Energy =                       -457.7722628187889313
  Basis Set: (AUG-CC-PVTZ AUX)
    Blend: AUG-CC-PVTZ-RI
    Molecular point group: c1

    Geometry (in Angstrom), charge = 0, multiplicity = 1:

       Center              X                  Y                   Z               Mass
    ------------   -----------------  -----------------  -----------------  -----------------
         O           -1.291378555431    -0.240059101667     0.342430267686    15.994914619570
         O           -0.183960555431     1.692600898333    -0.111085732314    15.994914619570
         O            2.110697444569    -1.663906101667    -0.357577732314    15.994914619570
         C            0.957524444569    -0.104446101667     1.052191267686    12.000000000000
         C           -2.449110555431     0.315715898333    -0.336463732314    12.000000000000
         C           -0.214376555431     0.570964898333     0.374378267686    12.000000000000
         C            1.990974444569    -0.495222101667    -0.007892732314    12.000000000000
         C           -3.530672555431    -0.737424101667    -0.273063732314    12.000000000000
         C            2.828653444569     0.624116898333    -0.571599732314    12.000000000000
         H            0.692384044569    -0.840308501667     1.477175567686     1.007825032230
         H            1.395547444569     0.612700898333     1.754013267686     1.007825032230
         H           -2.737635555431     1.242757898333     0.165904267686     1.007825032230
         H           -2.166271555431     0.562588898333    -1.363089732314     1.007825032230
         H           -4.431977555431    -0.373152101667    -0.773933732314     1.007825032230
         H           -3.202921555431    -1.653613101667    -0.768354732314     1.007825032230
         H           -3.779403555431    -0.970874101667     0.764206267686     1.007825032230
         H            3.398243444569     0.258686898333    -1.426630732314     1.007825032230
         H            3.520048444569     0.980011898333     0.200460267686     1.007825032230
         H            2.193623444569     1.467425898333    -0.854800732314     1.007825032230

  Basis Set: AUG-CC-PVTZ
    Blend: AUG-CC-PVTZ
  Basis Set: (AUG-CC-PVTZ AUX)
    Blend: AUG-CC-PVTZ-JKFIT
	 Reference Energy          =    -457.7722628187888745 [Eh]
	 Singles Energy            =      -0.0000000000000000 [Eh]
	 Same-Spin Energy          =      -0.4480994738565582 [Eh]
	 Opposite-Spin Energy      =      -1.4385609247463269 [Eh]
	 Correlation Energy        =      -1.8866603986028851 [Eh]
	 Total Energy              =    -459.6589232173917594 [Eh]

	 ================> DF-SCS-MP2 Energies <==================
	-----------------------------------------------------------
	 SCS Same-Spin Scale       =       0.3333333333333333 [-]
	 SCS Opposite-Spin Scale   =       1.2000000000000000 [-]
	 SCS Same-Spin Energy      =      -0.1493664912855194 [Eh]
	 SCS Opposite-Spin Energy  =      -1.7262731096955923 [Eh]
	 SCS Correlation Energy    =      -1.8756396009811118 [Eh]
	 SCS Total Energy          =    -459.6479024197699914 [Eh]
	-----------------------------------------------------------

  Dipole Moment: [D]
     X:    -1.3095      Y:     1.1282      Z:     1.0000     Total:     1.9969

*** Psi4 exiting successfully. Buy a developer a beer!
