                               Psi4 1.3.2 release

  ==> Input File <==

--------------------------------------------------------------------------
#psi4
#
memory 32 gb

molecule  {
0 1
  O       -1.2542770    -0.2468050     0.3469180
  O       -0.1468590     1.6858550    -0.1065980
  O        2.1477990    -1.6706520    -0.3530900
  C        0.9946260    -0.1111920     1.0566790
  C       -2.4120090     0.3089700    -0.3319760
  C       -0.1436109     0.6918583     0.4663490
  C        2.0280760    -0.5019680    -0.0034050
  C       -3.4935710    -0.7441700    -0.2685760
  C        2.8657550     0.6173710    -0.5671120
  H        0.6699150    -1.0123850     1.5771470
  H        1.4326490     0.6059550     1.7585010
  H       -2.7005340     1.2360120     0.1703920
  H       -2.1291700     0.5558430    -1.3586020
  H       -4.3948760    -0.3798980    -0.7694460
  H       -3.1658200    -1.6603590    -0.7638670
  H       -3.7423020    -0.9776200     0.7686940
  H        3.4353450     0.2519410    -1.4221430
  H        3.5571500     0.9732660     0.2049480
  H        2.2307250     1.4606800    -0.8503130
units angstrom
no_reorient  #important for SAPT in psi4, default
symmetry c1  #important for SAPT in psi4, default
}

set PROPERTIES_ORIGIN ["COM"]
properties('MP2/aug-cc-pvtz', properties = ['dipole'])
--------------------------------------------------------------------------

    Molecular point group: c1
  Charge       = 0
  Multiplicity = 1
  Basis Set: AUG-CC-PVTZ
    Blend: AUG-CC-PVTZ
  Basis Set: (AUG-CC-PVTZ AUX)
    Blend: AUG-CC-PVTZ-JKFIT

    Orbital Energies [Eh]
    ---------------------

    Doubly Occupied:

       1A    -20.587355     2A    -20.582136     3A    -20.561657
       4A    -11.399864     5A    -11.353477     6A    -11.283292
       7A    -11.267763     8A    -11.240962     9A    -11.221068
      10A     -1.484899    11A     -1.391343    12A     -1.361430
      13A     -1.081941    14A     -1.027286    15A     -0.993064
      16A     -0.857355    17A     -0.794848    18A     -0.754695
      19A     -0.719004    20A     -0.690278    21A     -0.680390
      22A     -0.649957    23A     -0.646353    24A     -0.604077
      25A     -0.591832    26A     -0.583608    27A     -0.565967
      28A     -0.552518    29A     -0.534770    30A     -0.523549
      31A     -0.514727    32A     -0.503013    33A     -0.458965
      34A     -0.454708    35A     -0.427612

  @DF-RHF Final Energy:  -457.78689108916421

   => Energetics <=

    Nuclear Repulsion Energy =            452.3812751412116313
    One-Electron Energy =               -1522.4448110613627705
    Two-Electron Energy =                 612.2766448309868110
    Total Energy =                       -457.7868910891642145
  Basis Set: (AUG-CC-PVTZ AUX)
    Blend: AUG-CC-PVTZ-RI
    Molecular point group: c1

    Geometry (in Angstrom), charge = 0, multiplicity = 1:

       Center              X                  Y                   Z               Mass
    ------------   -----------------  -----------------  -----------------  -----------------
         O           -1.294022908349    -0.250554379677     0.333618946140    15.994914619570
         O           -0.186604908349     1.682105620323    -0.119897053860    15.994914619570
         O            2.108053091651    -1.674401379677    -0.366389053860    15.994914619570
         C            0.954880091651    -0.114941379677     1.043379946140    12.000000000000
         C           -2.451754908349     0.305220620323    -0.345275053860    12.000000000000
         C           -0.183356808349     0.688108920323     0.453049946140    12.000000000000
         C            1.988330091651    -0.505717379677    -0.016704053860    12.000000000000
         C           -3.533316908349    -0.747919379677    -0.281875053860    12.000000000000
         C            2.826009091651     0.613621620323    -0.580411053860    12.000000000000
         H            0.630169091651    -1.016134379677     1.563847946140     1.007825032230
         H            1.392903091651     0.602205620323     1.745201946140     1.007825032230
         H           -2.740279908349     1.232262620323     0.157092946140     1.007825032230
         H           -2.168915908349     0.552093620323    -1.371901053860     1.007825032230
         H           -4.434621908349    -0.383647379677    -0.782745053860     1.007825032230
         H           -3.205565908349    -1.664108379677    -0.777166053860     1.007825032230
         H           -3.782047908349    -0.981369379677     0.755394946140     1.007825032230
         H            3.395599091651     0.248191620323    -1.435442053860     1.007825032230
         H            3.517404091651     0.969516620323     0.191648946140     1.007825032230
         H            2.190979091651     1.456930620323    -0.863612053860     1.007825032230

  Basis Set: AUG-CC-PVTZ
    Blend: AUG-CC-PVTZ
  Basis Set: (AUG-CC-PVTZ AUX)
    Blend: AUG-CC-PVTZ-JKFIT
	 Reference Energy          =    -457.7868910891642145 [Eh]
	 Singles Energy            =      -0.0000000000000000 [Eh]
	 Same-Spin Energy          =      -0.4483896142302064 [Eh]
	 Opposite-Spin Energy      =      -1.4403061839867446 [Eh]
	 Correlation Energy        =      -1.8886957982169510 [Eh]
	 Total Energy              =    -459.6755868873811437 [Eh]

	 ================> DF-SCS-MP2 Energies <==================
	-----------------------------------------------------------
	 SCS Same-Spin Scale       =       0.3333333333333333 [-]
	 SCS Opposite-Spin Scale   =       1.2000000000000000 [-]
	 SCS Same-Spin Energy      =      -0.1494632047434021 [Eh]
	 SCS Opposite-Spin Energy  =      -1.7283674207840936 [Eh]
	 SCS Correlation Energy    =      -1.8778306255274957 [Eh]
	 SCS Total Energy          =    -459.6647217146917228 [Eh]
	-----------------------------------------------------------

  Dipole Moment: [D]
     X:    -0.4824      Y:     1.7874      Z:     1.0627     Total:     2.1346

*** Psi4 exiting successfully. Buy a developer a beer!
