                               Psi4 1.3.2 release

  ==> Input File <==

--------------------------------------------------------------------------
#psi4
#
memory 32 gb

molecule  {
0 1
  O       -1.2542770    -0.2468050     0.3469180
  O       -0.1468590     1.6858550    -0.1065980
  O        2.1477990    -1.6706520    -0.3530900
  C        0.9946260    -0.1111920     1.0566790
  C       -2.4120090     0.3089700    -0.3319760
  C       -0.1888851     0.5671731     0.4023972
  C        2.0280760    -0.5019680    -0.0034050
  C       -3.4935710    -0.7441700    -0.2685760
  C        2.8657550     0.6173710    -0.5671120
  H        0.6699150    -1.0123850     1.5771470
  H        1.4326490     0.6059550     1.7585010
  H       -2.7005340     1.2360120     0.1703920
  H       -2.1291700     0.5558430    -1.3586020
  H       -4.3948760    -0.3798980    -0.7694460
  H       -3.1658200    -1.6603590    -0.7638670
  H       -3.7423020    -0.9776200     0.7686940
  H        3.4353450     0.2519410    -1.4221430
  H        3.5571500     0.9732660     0.2049480
  H        2.2307250     1.4606800    -0.8503130
units angstrom
no_reorient  #important for SAPT in psi4, default
symmetry c1  #important for SAPT in psi4, default
}

set PROPERTIES_ORIGIN ["COM"]
properties('MP2/aug-cc-pvtz', properties = ['dipole'])
--------------------------------------------------------------------------

    Molecular point group: c1
  Charge       = 0
  Multiplicity = 1
  Basis Set: AUG-CC-PVTZ
    Blend: AUG-CC-PVTZ
  Basis Set: (AUG-CC-PVTZ AUX)
    Blend: AUG-CC-PVTZ-JKFIT

    Orbital Energies [Eh]
    ---------------------

    Doubly Occupied:

       1A    -20.617551     2A    -20.558714     3A    -20.556929
       4A    -11.400719     5A    -11.349850     6A    -11.297888
       7A    -11.263202     8A    -11.236048     9A    -11.230455
      10A     -1.468360    11A     -1.388986    12A     -1.363152
      13A     -1.082363    14A     -1.041510    15A     -0.991151
      16A     -0.877711    17A     -0.800588    18A     -0.757050
      19A     -0.707978    20A     -0.694517    21A     -0.679240
      22A     -0.652191    23A     -0.642475    24A     -0.602638
      25A     -0.587615    26A     -0.575702    27A     -0.568957
      28A     -0.551065    29A     -0.539313    30A     -0.522611
      31A     -0.513649    32A     -0.503453    33A     -0.469732
      34A     -0.456979    35A     -0.423887

  @DF-RHF Final Energy:  -457.80565267449356

   => Energetics <=

    Nuclear Repulsion Energy =            453.0689806915327154
    One-Electron Energy =               -1523.8008074039180428
    Two-Electron Energy =                 612.9261740378917693
    Total Energy =                       -457.8056526744935582
  Basis Set: (AUG-CC-PVTZ AUX)
    Blend: AUG-CC-PVTZ-RI
    Molecular point group: c1

    Geometry (in Angstrom), charge = 0, multiplicity = 1:

       Center              X                  Y                   Z               Mass
    ------------   -----------------  -----------------  -----------------  -----------------
         O           -1.289845775542    -0.239050551017     0.339519330064    15.994914619570
         O           -0.182427775542     1.693609448983    -0.113996669936    15.994914619570
         O            2.112230224458    -1.662897551017    -0.360488669936    15.994914619570
         C            0.959057224458    -0.103437551017     1.049280330064    12.000000000000
         C           -2.447577775542     0.316724448983    -0.339374669936    12.000000000000
         C           -0.224453875542     0.574927548983     0.394998530064    12.000000000000
         C            1.992507224458    -0.494213551017    -0.010803669936    12.000000000000
         C           -3.529139775542    -0.736415551017    -0.275974669936    12.000000000000
         C            2.830186224458     0.625125448983    -0.574510669936    12.000000000000
         H            0.634346224458    -1.004630551017     1.569748330064     1.007825032230
         H            1.397080224458     0.613709448983     1.751102330064     1.007825032230
         H           -2.736102775542     1.243766448983     0.162993330064     1.007825032230
         H           -2.164738775542     0.563597448983    -1.366000669936     1.007825032230
         H           -4.430444775542    -0.372143551017    -0.776844669936     1.007825032230
         H           -3.201388775542    -1.652604551017    -0.771265669936     1.007825032230
         H           -3.777870775542    -0.969865551017     0.761295330064     1.007825032230
         H            3.399776224458     0.259695448983    -1.429541669936     1.007825032230
         H            3.521581224458     0.981020448983     0.197549330064     1.007825032230
         H            2.195156224458     1.468434448983    -0.857711669936     1.007825032230

  Basis Set: AUG-CC-PVTZ
    Blend: AUG-CC-PVTZ
  Basis Set: (AUG-CC-PVTZ AUX)
    Blend: AUG-CC-PVTZ-JKFIT
	 Reference Energy          =    -457.8056526744935582 [Eh]
	 Singles Energy            =      -0.0000000000000000 [Eh]
	 Same-Spin Energy          =      -0.4483494977123225 [Eh]
	 Opposite-Spin Energy      =      -1.4395791831837987 [Eh]
	 Correlation Energy        =      -1.8879286808961213 [Eh]
	 Total Energy              =    -459.6935813553896537 [Eh]

	 ================> DF-SCS-MP2 Energies <==================
	-----------------------------------------------------------
	 SCS Same-Spin Scale       =       0.3333333333333333 [-]
	 SCS Opposite-Spin Scale   =       1.2000000000000000 [-]
	 SCS Same-Spin Energy      =      -0.1494498325707742 [Eh]
	 SCS Opposite-Spin Energy  =      -1.7274950198205585 [Eh]
	 SCS Correlation Energy    =      -1.8769448523913326 [Eh]
	 SCS Total Energy          =    -459.6825975268848765 [Eh]
	-----------------------------------------------------------

  Dipole Moment: [D]
     X:    -1.3662      Y:     1.0765      Z:     1.0045     Total:     2.0086

*** Psi4 exiting successfully. Buy a developer a beer!
