                               Psi4 1.3.2 release

  ==> Input File <==

--------------------------------------------------------------------------
#psi4
#
memory 32 gb

molecule  {
0 1
  O       -1.2542770    -0.2468050     0.3469180
  O       -0.1468590     1.6858550    -0.1065980
  O        2.1477990    -1.6706520    -0.3530900
  C        0.9946260    -0.1111920     1.0566790
  C       -2.2526107     0.2324500    -0.2385048
  C       -0.1772750     0.5642190     0.3788660
  C        2.0280760    -0.5019680    -0.0034050
  C       -3.4935710    -0.7441700    -0.2685760
  C        2.8657550     0.6173710    -0.5671120
  H        0.6699150    -1.0123850     1.5771470
  H        1.4326490     0.6059550     1.7585010
  H       -2.7005340     1.2360120     0.1703920
  H       -2.1291700     0.5558430    -1.3586020
  H       -4.3948760    -0.3798980    -0.7694460
  H       -3.1658200    -1.6603590    -0.7638670
  H       -3.7423020    -0.9776200     0.7686940
  H        3.4353450     0.2519410    -1.4221430
  H        3.5571500     0.9732660     0.2049480
  H        2.2307250     1.4606800    -0.8503130
units angstrom
no_reorient  #important for SAPT in psi4, default
symmetry c1  #important for SAPT in psi4, default
}

set PROPERTIES_ORIGIN ["COM"]
properties('MP2/aug-cc-pvtz', properties = ['dipole'])
--------------------------------------------------------------------------

    Molecular point group: c1
  Charge       = 0
  Multiplicity = 1
  Basis Set: AUG-CC-PVTZ
    Blend: AUG-CC-PVTZ
  Basis Set: (AUG-CC-PVTZ AUX)
    Blend: AUG-CC-PVTZ-JKFIT

    Orbital Energies [Eh]
    ---------------------

    Doubly Occupied:

       1A    -20.636412     2A    -20.573825     3A    -20.564427
       4A    -11.414517     5A    -11.355491     6A    -11.298176
       7A    -11.271853     8A    -11.241111     9A    -11.224698
      10A     -1.533728    11A     -1.398257    12A     -1.393286
      13A     -1.094849    14A     -1.033051    15A     -0.991380
      16A     -0.901562    17A     -0.803784    18A     -0.769816
      19A     -0.727530    20A     -0.717970    21A     -0.698096
      22A     -0.657790    23A     -0.650432    24A     -0.622383
      25A     -0.594261    26A     -0.580286    27A     -0.568602
      28A     -0.557769    29A     -0.549596    30A     -0.518849
      31A     -0.510746    32A     -0.474483    33A     -0.465815
      34A     -0.436944    35A     -0.428653

  @DF-RHF Final Energy:  -457.76564517766258

   => Energetics <=

    Nuclear Repulsion Energy =            456.7788987592143712
    One-Electron Energy =               -1530.5682337729792835
    Two-Electron Energy =                 616.0236898361023350
    Total Energy =                       -457.7656451776625772
  Basis Set: (AUG-CC-PVTZ AUX)
    Blend: AUG-CC-PVTZ-RI
    Molecular point group: c1

    Geometry (in Angstrom), charge = 0, multiplicity = 1:

       Center              X                  Y                   Z               Mass
    ------------   -----------------  -----------------  -----------------  -----------------
         O           -1.305623520879    -0.231718033371     0.333066456937    15.994914619570
         O           -0.198205520879     1.700941966629    -0.120449543063    15.994914619570
         O            2.096452479121    -1.655565033371    -0.366941543063    15.994914619570
         C            0.943279479121    -0.096105033371     1.042827456937    12.000000000000
         C           -2.303957220879     0.247536966629    -0.252356343063    12.000000000000
         C           -0.228621520879     0.579305966629     0.365014456937    12.000000000000
         C            1.976729479121    -0.486881033371    -0.017256543063    12.000000000000
         C           -3.544917520879    -0.729083033371    -0.282427543063    12.000000000000
         C            2.814408479121     0.632457966629    -0.580963543063    12.000000000000
         H            0.618568479121    -0.997298033371     1.563295456937     1.007825032230
         H            1.381302479121     0.621041966629     1.744649456937     1.007825032230
         H           -2.751880520879     1.251098966629     0.156540456937     1.007825032230
         H           -2.180516520879     0.570929966629    -1.372453543063     1.007825032230
         H           -4.446222520879    -0.364811033371    -0.783297543063     1.007825032230
         H           -3.217166520879    -1.645272033371    -0.777718543063     1.007825032230
         H           -3.793648520879    -0.962533033371     0.754842456937     1.007825032230
         H            3.383998479121     0.267027966629    -1.435994543063     1.007825032230
         H            3.505803479121     0.988352966629     0.191096456937     1.007825032230
         H            2.179378479121     1.475766966629    -0.864164543063     1.007825032230

  Basis Set: AUG-CC-PVTZ
    Blend: AUG-CC-PVTZ
  Basis Set: (AUG-CC-PVTZ AUX)
    Blend: AUG-CC-PVTZ-JKFIT
	 Reference Energy          =    -457.7656451776625772 [Eh]
	 Singles Energy            =      -0.0000000000000000 [Eh]
	 Same-Spin Energy          =      -0.4492536511009751 [Eh]
	 Opposite-Spin Energy      =      -1.4396137990335998 [Eh]
	 Correlation Energy        =      -1.8888674501345748 [Eh]
	 Total Energy              =    -459.6545126277971463 [Eh]

	 ================> DF-SCS-MP2 Energies <==================
	-----------------------------------------------------------
	 SCS Same-Spin Scale       =       0.3333333333333333 [-]
	 SCS Opposite-Spin Scale   =       1.2000000000000000 [-]
	 SCS Same-Spin Energy      =      -0.1497512170336584 [Eh]
	 SCS Opposite-Spin Energy  =      -1.7275365588403198 [Eh]
	 SCS Correlation Energy    =      -1.8772877758739781 [Eh]
	 SCS Total Energy          =    -459.6429329535365582 [Eh]
	-----------------------------------------------------------

  Dipole Moment: [D]
     X:    -0.3902      Y:     1.0490      Z:     1.2912     Total:     1.7088

*** Psi4 exiting successfully. Buy a developer a beer!
