                               Psi4 1.4a3.dev225

  ==> Input File <==

--------------------------------------------------------------------------
#psi4
#
memory 32 gb

molecule  {
0 1
  O       -1.2544100    -0.2466020     0.3472100
  O       -0.1467170     1.6857710    -0.1068680
  O        2.1477710    -1.6706650    -0.3531650
  C        0.9946280    -0.1112570     1.0566320
  C       -2.4280971     0.3167541    -0.3410555
  C       -0.1772600     0.5642340     0.3788210
  C        2.0280890    -0.5019850    -0.0034200
  C       -3.4935060    -0.7442920    -0.2688040
  C        2.8658400     0.6173540    -0.5670070
  H        0.6698310    -1.0124810     1.5769910
  H        1.4325960     0.6058250     1.7585570
  H       -2.7009940     1.2359100     0.1709210
  H       -2.1292340     0.5563720    -1.3582130
  H       -4.3948380    -0.3800300    -0.7696350
  H       -3.1655030    -1.6602290    -0.7643920
  H       -3.7422990    -0.9781810     0.7683530
  H        3.4354090     0.2520080    -1.4220870
  H        3.5572420     0.9731160     0.2051050
  H        2.2308310     1.4607170    -0.8501030
units angstrom
no_reorient  #important for SAPT in psi4, default
symmetry c1  #important for SAPT in psi4, default
}

set PROPERTIES_ORIGIN ["COM"]
properties('MP2/aug-cc-pvtz', properties = ['dipole'])
--------------------------------------------------------------------------

    Molecular point group: c1
  Charge       = 0
  Multiplicity = 1
  Basis Set: AUG-CC-PVTZ
    Blend: AUG-CC-PVTZ
  Basis Set: (AUG-CC-PVTZ AUX)
    Blend: AUG-CC-PVTZ-JKFIT

    Orbital Energies [Eh]
    ---------------------

    Doubly Occupied:

       1A    -20.613431     2A    -20.558023     3A    -20.557188
       4A    -11.398997     5A    -11.349042     6A    -11.297776
       7A    -11.262417     8A    -11.235951     9A    -11.230639
      10A     -1.462712    11A     -1.388375    12A     -1.363299
      13A     -1.081627    14A     -1.042164    15A     -0.990801
      16A     -0.875375    17A     -0.798829    18A     -0.754965
      19A     -0.707504    20A     -0.692489    21A     -0.677932
      22A     -0.652455    23A     -0.642010    24A     -0.601807
      25A     -0.587677    26A     -0.575083    27A     -0.569480
      28A     -0.550500    29A     -0.538043    30A     -0.524873
      31A     -0.515736    32A     -0.503171    33A     -0.470753
      34A     -0.456591    35A     -0.422888

  @DF-RHF Final Energy:  -457.80578663130950

   => Energetics <=

    Nuclear Repulsion Energy =            452.8671688299658058
    One-Electron Energy =               -1523.4447089517848326
    Two-Electron Energy =                 612.7717534905095818
    Total Energy =                       -457.8057866313095019
  Basis Set: (AUG-CC-PVTZ AUX)
    Blend: AUG-CC-PVTZ-RI
    Molecular point group: c1

    Geometry (in Angstrom), charge = 0, multiplicity = 1:

       Center              X                  Y                   Z               Mass
    ------------   -----------------  -----------------  -----------------  -----------------
         O           -1.289579574950    -0.239284049260     0.342846387633    15.994914619570
         O           -0.181886574950     1.693088950740    -0.111231612367    15.994914619570
         O            2.112601425050    -1.663347049260    -0.357528612367    15.994914619570
         C            0.959458425050    -0.103939049260     1.052268387633    12.000000000000
         C           -2.463266674950     0.324072050740    -0.345419112367    12.000000000000
         C           -0.212429574950     0.571551950740     0.374457387633    12.000000000000
         C            1.992919425050    -0.494667049260    -0.007783612367    12.000000000000
         C           -3.528675574950    -0.736974049260    -0.273167612367    12.000000000000
         C            2.830670425050     0.624671950740    -0.571370612367    12.000000000000
         H            0.634661425050    -1.005163049260     1.572627387633     1.007825032230
         H            1.397426425050     0.613142950740     1.754193387633     1.007825032230
         H           -2.736163574950     1.243227950740     0.166557387633     1.007825032230
         H           -2.164403574950     0.563689950740    -1.362576612367     1.007825032230
         H           -4.430007574950    -0.372712049260    -0.773998612367     1.007825032230
         H           -3.200672574950    -1.652911049260    -0.768755612367     1.007825032230
         H           -3.777468574950    -0.970863049260     0.763989387633     1.007825032230
         H            3.400239425050     0.259325950740    -1.426450612367     1.007825032230
         H            3.522072425050     0.980433950740     0.200741387633     1.007825032230
         H            2.195661425050     1.468034950740    -0.854466612367     1.007825032230

  Basis Set: AUG-CC-PVTZ
    Blend: AUG-CC-PVTZ
  Basis Set: (AUG-CC-PVTZ AUX)
    Blend: AUG-CC-PVTZ-JKFIT
	 Reference Energy          =    -457.8057866313095019 [Eh]
	 Singles Energy            =      -0.0000000000000000 [Eh]
	 Same-Spin Energy          =      -0.4483225195341719 [Eh]
	 Opposite-Spin Energy      =      -1.4396295049710308 [Eh]
	 Correlation Energy        =      -1.8879520245052026 [Eh]
	 Total Energy              =    -459.6937386558146841 [Eh]

	 ================> DF-SCS-MP2 Energies <==================
	-----------------------------------------------------------
	 SCS Same-Spin Scale       =       0.3333333333333333 [-]
	 SCS Opposite-Spin Scale   =       1.2000000000000000 [-]
	 SCS Same-Spin Energy      =      -0.1494408398447239 [Eh]
	 SCS Opposite-Spin Energy  =      -1.7275554059652369 [Eh]
	 SCS Correlation Energy    =      -1.8769962458099609 [Eh]
	 SCS Total Energy          =    -459.6827828771194504 [Eh]
	-----------------------------------------------------------

  Dipole Moment: [D]
     X:    -1.3977      Y:     1.1185      Z:     0.9617     Total:     2.0322

*** Psi4 exiting successfully. Buy a developer a beer!
