                               Psi4 1.4a3.dev225

  ==> Input File <==

--------------------------------------------------------------------------
#psi4
#
memory 32 gb

molecule  {
0 1
  O       -1.2544100    -0.2466020     0.3472100
  O       -0.1467170     1.6857710    -0.1068680
  O        2.1477710    -1.6706650    -0.3531650
  C        0.9946280    -0.1112570     1.0566320
  C       -2.4121570     0.3091030    -0.3317080
  C       -0.1772600     0.5642340     0.3788210
  C        1.9943411    -0.4892257     0.0311962
  C       -3.4935060    -0.7442920    -0.2688040
  C        2.8658400     0.6173540    -0.5670070
  H        0.6698310    -1.0124810     1.5769910
  H        1.4325960     0.6058250     1.7585570
  H       -2.7009940     1.2359100     0.1709210
  H       -2.1292340     0.5563720    -1.3582130
  H       -4.3948380    -0.3800300    -0.7696350
  H       -3.1655030    -1.6602290    -0.7643920
  H       -3.7422990    -0.9781810     0.7683530
  H        3.4354090     0.2520080    -1.4220870
  H        3.5572420     0.9731160     0.2051050
  H        2.2308310     1.4607170    -0.8501030
units angstrom
no_reorient  #important for SAPT in psi4, default
symmetry c1  #important for SAPT in psi4, default
}

set PROPERTIES_ORIGIN ["COM"]
properties('MP2/aug-cc-pvtz', properties = ['dipole'])
--------------------------------------------------------------------------

    Molecular point group: c1
  Charge       = 0
  Multiplicity = 1
  Basis Set: AUG-CC-PVTZ
    Blend: AUG-CC-PVTZ
  Basis Set: (AUG-CC-PVTZ AUX)
    Blend: AUG-CC-PVTZ-JKFIT

    Orbital Energies [Eh]
    ---------------------

    Doubly Occupied:

       1A    -20.618180     2A    -20.561712     3A    -20.556067
       4A    -11.404193     5A    -11.350562     6A    -11.298531
       7A    -11.265728     8A    -11.236329     9A    -11.230918
      10A     -1.469776    11A     -1.371825    12A     -1.368530
      13A     -1.091220    14A     -1.042646    15A     -0.987681
      16A     -0.879795    17A     -0.803600    18A     -0.758844
      19A     -0.713128    20A     -0.695672    21A     -0.680923
      22A     -0.651035    23A     -0.642632    24A     -0.599552
      25A     -0.585618    26A     -0.572734    27A     -0.568805
      28A     -0.553178    29A     -0.540994    30A     -0.523481
      31A     -0.515619    32A     -0.496698    33A     -0.471878
      34A     -0.457065    35A     -0.426175

  @DF-RHF Final Energy:  -457.80050485767856

   => Energetics <=

    Nuclear Repulsion Energy =            453.3811921056857841
    One-Electron Energy =               -1524.3807428511795479
    Two-Electron Energy =                 613.1990458878151458
    Total Energy =                       -457.8005048576785612
  Basis Set: (AUG-CC-PVTZ AUX)
    Blend: AUG-CC-PVTZ-RI
    Molecular point group: c1

    Geometry (in Angstrom), charge = 0, multiplicity = 1:

       Center              X                  Y                   Z               Mass
    ------------   -----------------  -----------------  -----------------  -----------------
         O           -1.287936574177    -0.239755347036     0.338790165467    15.994914619570
         O           -0.180243574177     1.692617652964    -0.115287834533    15.994914619570
         O            2.114244425823    -1.663818347036    -0.361584834533    15.994914619570
         C            0.961101425823    -0.104410347036     1.048212165467    12.000000000000
         C           -2.445683574177     0.315949652964    -0.340127834533    12.000000000000
         C           -0.210786574177     0.571080652964     0.370401165467    12.000000000000
         C            1.960814525823    -0.482379047036     0.022776365467    12.000000000000
         C           -3.527032574177    -0.737445347036    -0.277223834533    12.000000000000
         C            2.832313425823     0.624200652964    -0.575426834533    12.000000000000
         H            0.636304425823    -1.005634347036     1.568571165467     1.007825032230
         H            1.399069425823     0.612671652964     1.750137165467     1.007825032230
         H           -2.734520574177     1.242756652964     0.162501165467     1.007825032230
         H           -2.162760574177     0.563218652964    -1.366632834533     1.007825032230
         H           -4.428364574177    -0.373183347036    -0.778054834533     1.007825032230
         H           -3.199029574177    -1.653382347036    -0.772811834533     1.007825032230
         H           -3.775825574177    -0.971334347036     0.759933165467     1.007825032230
         H            3.401882425823     0.258854652964    -1.430506834533     1.007825032230
         H            3.523715425823     0.979962652964     0.196685165467     1.007825032230
         H            2.197304425823     1.467563652964    -0.858522834533     1.007825032230

  Basis Set: AUG-CC-PVTZ
    Blend: AUG-CC-PVTZ
  Basis Set: (AUG-CC-PVTZ AUX)
    Blend: AUG-CC-PVTZ-JKFIT
	 Reference Energy          =    -457.8005048576785612 [Eh]
	 Singles Energy            =      -0.0000000000000000 [Eh]
	 Same-Spin Energy          =      -0.4491314646267885 [Eh]
	 Opposite-Spin Energy      =      -1.4413583128559742 [Eh]
	 Correlation Energy        =      -1.8904897774827627 [Eh]
	 Total Energy              =    -459.6909946351613030 [Eh]

	 ================> DF-SCS-MP2 Energies <==================
	-----------------------------------------------------------
	 SCS Same-Spin Scale       =       0.3333333333333333 [-]
	 SCS Opposite-Spin Scale   =       1.2000000000000000 [-]
	 SCS Same-Spin Energy      =      -0.1497104882089295 [Eh]
	 SCS Opposite-Spin Energy  =      -1.7296299754271689 [Eh]
	 SCS Correlation Energy    =      -1.8793404636360984 [Eh]
	 SCS Total Energy          =    -459.6798453213146445 [Eh]
	-----------------------------------------------------------

  Dipole Moment: [D]
     X:    -1.5532      Y:     1.2004      Z:     1.1256     Total:     2.2629

*** Psi4 exiting successfully. Buy a developer a beer!
