                               Psi4 1.4a3.dev225

  ==> Input File <==

--------------------------------------------------------------------------
#psi4
#
memory 32 gb

molecule  {
0 1
  O       -1.2544100    -0.2466020     0.3472100
  O       -0.1467170     1.6857710    -0.1068680
  O        2.1477710    -1.6706650    -0.3531650
  C        0.9946280    -0.1112570     1.0566320
  C       -2.4121570     0.3091030    -0.3317080
  C       -0.1385316     0.5419105     0.4012212
  C        2.0280890    -0.5019850    -0.0034200
  C       -3.4935060    -0.7442920    -0.2688040
  C        2.8658400     0.6173540    -0.5670070
  H        0.6698310    -1.0124810     1.5769910
  H        1.4325960     0.6058250     1.7585570
  H       -2.7009940     1.2359100     0.1709210
  H       -2.1292340     0.5563720    -1.3582130
  H       -4.3948380    -0.3800300    -0.7696350
  H       -3.1655030    -1.6602290    -0.7643920
  H       -3.7422990    -0.9781810     0.7683530
  H        3.4354090     0.2520080    -1.4220870
  H        3.5572420     0.9731160     0.2051050
  H        2.2308310     1.4607170    -0.8501030
units angstrom
no_reorient  #important for SAPT in psi4, default
symmetry c1  #important for SAPT in psi4, default
}

set PROPERTIES_ORIGIN ["COM"]
properties('MP2/aug-cc-pvtz', properties = ['dipole'])
--------------------------------------------------------------------------

    Molecular point group: c1
  Charge       = 0
  Multiplicity = 1
  Basis Set: AUG-CC-PVTZ
    Blend: AUG-CC-PVTZ
  Basis Set: (AUG-CC-PVTZ AUX)
    Blend: AUG-CC-PVTZ-JKFIT

    Orbital Energies [Eh]
    ---------------------

    Doubly Occupied:

       1A    -20.611671     2A    -20.562696     3A    -20.555950
       4A    -11.403780     5A    -11.354205     6A    -11.294749
       7A    -11.266222     8A    -11.238489     9A    -11.228251
      10A     -1.454180    11A     -1.392786    12A     -1.348066
      13A     -1.093628    14A     -1.039635    15A     -0.997279
      16A     -0.874372    17A     -0.799428    18A     -0.758258
      19A     -0.710330    20A     -0.689969    21A     -0.676909
      22A     -0.655117    23A     -0.642961    24A     -0.602732
      25A     -0.586426    26A     -0.573750    27A     -0.569209
      28A     -0.552881    29A     -0.540643    30A     -0.517717
      31A     -0.509143    32A     -0.504579    33A     -0.463876
      34A     -0.458818    35A     -0.427241

  @DF-RHF Final Energy:  -457.79883681752801

   => Energetics <=

    Nuclear Repulsion Energy =            452.9921879373789579
    One-Electron Energy =               -1523.6701623628673588
    Two-Electron Energy =                 612.8791376079603879
    Total Energy =                       -457.7988368175280129
  Basis Set: (AUG-CC-PVTZ AUX)
    Blend: AUG-CC-PVTZ-RI
    Molecular point group: c1

    Geometry (in Angstrom), charge = 0, multiplicity = 1:

       Center              X                  Y                   Z               Mass
    ------------   -----------------  -----------------  -----------------  -----------------
         O           -1.294623453912    -0.236518503208     0.339917250084    15.994914619570
         O           -0.186930453912     1.695854496792    -0.114160749916    15.994914619570
         O            2.107557546088    -1.660581503208    -0.360457749916    15.994914619570
         C            0.954414546088    -0.101173503208     1.049339250084    12.000000000000
         C           -2.452370453912     0.319186496792    -0.339000749916    12.000000000000
         C           -0.178745053912     0.551993996792     0.393928450084    12.000000000000
         C            1.987875546088    -0.491901503208    -0.010712749916    12.000000000000
         C           -3.533719453912    -0.734208503208    -0.276096749916    12.000000000000
         C            2.825626546088     0.627437496792    -0.574299749916    12.000000000000
         H            0.629617546088    -1.002397503208     1.569698250084     1.007825032230
         H            1.392382546088     0.615908496792     1.751264250084     1.007825032230
         H           -2.741207453912     1.245993496792     0.163628250084     1.007825032230
         H           -2.169447453912     0.566455496792    -1.365505749916     1.007825032230
         H           -4.435051453912    -0.369946503208    -0.776927749916     1.007825032230
         H           -3.205716453912    -1.650145503208    -0.771684749916     1.007825032230
         H           -3.782512453912    -0.968097503208     0.761060250084     1.007825032230
         H            3.395195546088     0.262091496792    -1.429379749916     1.007825032230
         H            3.517028546088     0.983199496792     0.197812250084     1.007825032230
         H            2.190617546088     1.470800496792    -0.857395749916     1.007825032230

  Basis Set: AUG-CC-PVTZ
    Blend: AUG-CC-PVTZ
  Basis Set: (AUG-CC-PVTZ AUX)
    Blend: AUG-CC-PVTZ-JKFIT
	 Reference Energy          =    -457.7988368175280129 [Eh]
	 Singles Energy            =      -0.0000000000000000 [Eh]
	 Same-Spin Energy          =      -0.4495153752177663 [Eh]
	 Opposite-Spin Energy      =      -1.4416789844280171 [Eh]
	 Correlation Energy        =      -1.8911943596457834 [Eh]
	 Total Energy              =    -459.6900311771738075 [Eh]

	 ================> DF-SCS-MP2 Energies <==================
	-----------------------------------------------------------
	 SCS Same-Spin Scale       =       0.3333333333333333 [-]
	 SCS Opposite-Spin Scale   =       1.2000000000000000 [-]
	 SCS Same-Spin Energy      =      -0.1498384584059221 [Eh]
	 SCS Opposite-Spin Energy  =      -1.7300147813136204 [Eh]
	 SCS Correlation Energy    =      -1.8798532397195424 [Eh]
	 SCS Total Energy          =    -459.6786900572475361 [Eh]
	-----------------------------------------------------------

  Dipole Moment: [D]
     X:    -1.0026      Y:     0.9847      Z:     1.0800     Total:     1.7724

*** Psi4 exiting successfully. Buy a developer a beer!
