                               Psi4 1.3.2 release

  ==> Input File <==

--------------------------------------------------------------------------
#psi4
#
memory 32 gb

molecule  {
0 1
  O       -1.2542770    -0.2468050     0.3469180
  O       -0.1468590     1.6858550    -0.1065980
  O        2.1477990    -1.6706520    -0.3530900
  C        0.9946260    -0.1111920     1.0566790
  C       -2.4120090     0.3089700    -0.3319760
  C       -0.1772750     0.5642190     0.3788660
  C        1.9151242    -0.5965306    -0.0665451
  C       -3.4935710    -0.7441700    -0.2685760
  C        2.8657550     0.6173710    -0.5671120
  H        0.6699150    -1.0123850     1.5771470
  H        1.4326490     0.6059550     1.7585010
  H       -2.7005340     1.2360120     0.1703920
  H       -2.1291700     0.5558430    -1.3586020
  H       -4.3948760    -0.3798980    -0.7694460
  H       -3.1658200    -1.6603590    -0.7638670
  H       -3.7423020    -0.9776200     0.7686940
  H        3.4353450     0.2519410    -1.4221430
  H        3.5571500     0.9732660     0.2049480
  H        2.2307250     1.4606800    -0.8503130
units angstrom
no_reorient  #important for SAPT in psi4, default
symmetry c1  #important for SAPT in psi4, default
}

set PROPERTIES_ORIGIN ["COM"]
properties('MP2/aug-cc-pvtz', properties = ['dipole'])
--------------------------------------------------------------------------

    Molecular point group: c1
  Charge       = 0
  Multiplicity = 1
  Basis Set: AUG-CC-PVTZ
    Blend: AUG-CC-PVTZ
  Basis Set: (AUG-CC-PVTZ AUX)
    Blend: AUG-CC-PVTZ-JKFIT

    Orbital Energies [Eh]
    ---------------------

    Doubly Occupied:

       1A    -20.615133     2A    -20.568498     3A    -20.557218
       4A    -11.398199     5A    -11.344202     6A    -11.296879
       7A    -11.261371     8A    -11.230262     9A    -11.227877
      10A     -1.467096    11A     -1.456695    12A     -1.365350
      13A     -1.080400    14A     -1.034868    15A     -0.965825
      16A     -0.875398    17A     -0.798226    18A     -0.758616
      19A     -0.709934    20A     -0.696665    21A     -0.681952
      22A     -0.663888    23A     -0.649375    24A     -0.603555
      25A     -0.591544    26A     -0.579605    27A     -0.568013
      28A     -0.549647    29A     -0.536065    30A     -0.534217
      31A     -0.521649    32A     -0.513753    33A     -0.469374
      34A     -0.458713    35A     -0.400038

  @DF-RHF Final Energy:  -457.78964903588889

   => Energetics <=

    Nuclear Repulsion Energy =            454.3597346890408062
    One-Electron Energy =               -1526.2385666566140117
    Two-Electron Energy =                 614.0891829316842632
    Total Energy =                       -457.7896490358889423
  Basis Set: (AUG-CC-PVTZ AUX)
    Blend: AUG-CC-PVTZ-RI
    Molecular point group: c1

    Geometry (in Angstrom), charge = 0, multiplicity = 1:

       Center              X                  Y                   Z               Mass
    ------------   -----------------  -----------------  -----------------  -----------------
         O           -1.280495687858    -0.230053369249     0.347515882862    15.994914619570
         O           -0.173077687858     1.702606630751    -0.106000117138    15.994914619570
         O            2.121580312142    -1.653900369249    -0.352492117138    15.994914619570
         C            0.968407312142    -0.094440369249     1.057276882862    12.000000000000
         C           -2.438227687858     0.325721630751    -0.331378117138    12.000000000000
         C           -0.203493687858     0.580970630751     0.379463882862    12.000000000000
         C            1.888905512142    -0.579778969249    -0.065947217138    12.000000000000
         C           -3.519789687858    -0.727418369249    -0.267978117138    12.000000000000
         C            2.839536312142     0.634122630751    -0.566514117138    12.000000000000
         H            0.643696312142    -0.995633369249     1.577744882862     1.007825032230
         H            1.406430312142     0.622706630751     1.759098882862     1.007825032230
         H           -2.726752687858     1.252763630751     0.170989882862     1.007825032230
         H           -2.155388687858     0.572594630751    -1.358004117138     1.007825032230
         H           -4.421094687858    -0.363146369249    -0.768848117138     1.007825032230
         H           -3.192038687858    -1.643607369249    -0.763269117138     1.007825032230
         H           -3.768520687858    -0.960868369249     0.769291882862     1.007825032230
         H            3.409126312142     0.268692630751    -1.421545117138     1.007825032230
         H            3.530931312142     0.990017630751     0.205545882862     1.007825032230
         H            2.204506312142     1.477431630751    -0.849715117138     1.007825032230

  Basis Set: AUG-CC-PVTZ
    Blend: AUG-CC-PVTZ
  Basis Set: (AUG-CC-PVTZ AUX)
    Blend: AUG-CC-PVTZ-JKFIT
	 Reference Energy          =    -457.7896490358888855 [Eh]
	 Singles Energy            =      -0.0000000000000000 [Eh]
	 Same-Spin Energy          =      -0.4464347210966306 [Eh]
	 Opposite-Spin Energy      =      -1.4359080635023456 [Eh]
	 Correlation Energy        =      -1.8823427845989762 [Eh]
	 Total Energy              =    -459.6719918204878468 [Eh]

	 ================> DF-SCS-MP2 Energies <==================
	-----------------------------------------------------------
	 SCS Same-Spin Scale       =       0.3333333333333333 [-]
	 SCS Opposite-Spin Scale   =       1.2000000000000000 [-]
	 SCS Same-Spin Energy      =      -0.1488115736988769 [Eh]
	 SCS Opposite-Spin Energy  =      -1.7230896762028147 [Eh]
	 SCS Correlation Energy    =      -1.8719012499016916 [Eh]
	 SCS Total Energy          =    -459.6615502857905540 [Eh]
	-----------------------------------------------------------

  Dipole Moment: [D]
     X:    -1.5338      Y:     0.5109      Z:     1.0188     Total:     1.9109

*** Psi4 exiting successfully. Buy a developer a beer!
