                               Psi4 1.4a3.dev225

  ==> Input File <==

--------------------------------------------------------------------------
#psi4
#
memory 32 gb

molecule  {
0 1
  O       -1.2544100    -0.2466020     0.3472100
  O       -0.1467170     1.6857710    -0.1068680
  O        2.1477710    -1.6706650    -0.3531650
  C        0.9946280    -0.1112570     1.0566320
  C       -2.4121570     0.3091030    -0.3317080
  C       -0.1772600     0.5642340     0.3788210
  C        2.0280890    -0.5019850    -0.0034200
  C       -3.4935060    -0.7442920    -0.2688040
  C        2.8658400     0.6173540    -0.5670070
  H        0.6638724    -1.0290146     1.5865374
  H        1.4325960     0.6058250     1.7585570
  H       -2.7009940     1.2359100     0.1709210
  H       -2.1292340     0.5563720    -1.3582130
  H       -4.3948380    -0.3800300    -0.7696350
  H       -3.1655030    -1.6602290    -0.7643920
  H       -3.7422990    -0.9781810     0.7683530
  H        3.4354090     0.2520080    -1.4220870
  H        3.5572420     0.9731160     0.2051050
  H        2.2308310     1.4607170    -0.8501030
units angstrom
no_reorient  #important for SAPT in psi4, default
symmetry c1  #important for SAPT in psi4, default
}

set PROPERTIES_ORIGIN ["COM"]
properties('MP2/aug-cc-pvtz', properties = ['dipole'])
--------------------------------------------------------------------------

    Molecular point group: c1
  Charge       = 0
  Multiplicity = 1
  Basis Set: AUG-CC-PVTZ
    Blend: AUG-CC-PVTZ
  Basis Set: (AUG-CC-PVTZ AUX)
    Blend: AUG-CC-PVTZ-JKFIT

    Orbital Energies [Eh]
    ---------------------

    Doubly Occupied:

       1A    -20.615717     2A    -20.558707     3A    -20.558575
       4A    -11.400525     5A    -11.349702     6A    -11.296983
       7A    -11.265367     8A    -11.236532     9A    -11.229892
      10A     -1.467140    11A     -1.388925    12A     -1.366497
      13A     -1.081712    14A     -1.040722    15A     -0.990610
      16A     -0.876199    17A     -0.799632    18A     -0.756137
      19A     -0.707959    20A     -0.693776    21A     -0.679490
      22A     -0.652408    23A     -0.641723    24A     -0.602521
      25A     -0.587333    26A     -0.575259    27A     -0.569245
      28A     -0.551506    29A     -0.537878    30A     -0.521947
      31A     -0.514608    32A     -0.503817    33A     -0.470035
      34A     -0.457771    35A     -0.423603

  @DF-RHF Final Energy:  -457.80577488236349

   => Energetics <=

    Nuclear Repulsion Energy =            453.0942416579766245
    One-Electron Energy =               -1523.8591224765361858
    Two-Electron Energy =                 612.9591059361960106
    Total Energy =                       -457.8057748823634938
  Basis Set: (AUG-CC-PVTZ AUX)
    Blend: AUG-CC-PVTZ-RI
    Molecular point group: c1

    Geometry (in Angstrom), charge = 0, multiplicity = 1:

       Center              X                  Y                   Z               Mass
    ------------   -----------------  -----------------  -----------------  -----------------
         O           -1.291004084473    -0.238450021282     0.341909986764    15.994914619570
         O           -0.183311084473     1.693922978718    -0.112168013236    15.994914619570
         O            2.111176915527    -1.662513021282    -0.358465013236    15.994914619570
         C            0.958033915527    -0.103105021282     1.051331986764    12.000000000000
         C           -2.448751084473     0.317254978718    -0.337008013236    12.000000000000
         C           -0.213854084473     0.572385978718     0.373520986764    12.000000000000
         C            1.991494915527    -0.493833021282    -0.008720013236    12.000000000000
         C           -3.530100084473    -0.736140021282    -0.274104013236    12.000000000000
         C            2.829245915527     0.625505978718    -0.572307013236    12.000000000000
         H            0.627278315527    -1.020862621282     1.581237386764     1.007825032230
         H            1.396001915527     0.613976978718     1.753256986764     1.007825032230
         H           -2.737588084473     1.244061978718     0.165620986764     1.007825032230
         H           -2.165828084473     0.564523978718    -1.363513013236     1.007825032230
         H           -4.431432084473    -0.371878021282    -0.774935013236     1.007825032230
         H           -3.202097084473    -1.652077021282    -0.769692013236     1.007825032230
         H           -3.778893084473    -0.970029021282     0.763052986764     1.007825032230
         H            3.398814915527     0.260159978718    -1.427387013236     1.007825032230
         H            3.520647915527     0.981267978718     0.199804986764     1.007825032230
         H            2.194236915527     1.468868978718    -0.855403013236     1.007825032230

  Basis Set: AUG-CC-PVTZ
    Blend: AUG-CC-PVTZ
  Basis Set: (AUG-CC-PVTZ AUX)
    Blend: AUG-CC-PVTZ-JKFIT
	 Reference Energy          =    -457.8057748823634938 [Eh]
	 Singles Energy            =      -0.0000000000000000 [Eh]
	 Same-Spin Energy          =      -0.4483085796337102 [Eh]
	 Opposite-Spin Energy      =      -1.4395799824675310 [Eh]
	 Correlation Energy        =      -1.8878885621012413 [Eh]
	 Total Energy              =    -459.6936634444647325 [Eh]

	 ================> DF-SCS-MP2 Energies <==================
	-----------------------------------------------------------
	 SCS Same-Spin Scale       =       0.3333333333333333 [-]
	 SCS Opposite-Spin Scale   =       1.2000000000000000 [-]
	 SCS Same-Spin Energy      =      -0.1494361932112367 [Eh]
	 SCS Opposite-Spin Energy  =      -1.7274959789610371 [Eh]
	 SCS Correlation Energy    =      -1.8769321721722738 [Eh]
	 SCS Total Energy          =    -459.6827070545357401 [Eh]
	-----------------------------------------------------------

  Dipole Moment: [D]
     X:    -1.3105      Y:     1.1166      Z:     0.9856     Total:     1.9838

*** Psi4 exiting successfully. Buy a developer a beer!
