                               Psi4 1.4a3.dev225

  ==> Input File <==

--------------------------------------------------------------------------
#psi4
#
memory 32 gb

molecule  {
0 1
  O       -1.2544100    -0.2466020     0.3472100
  O       -0.1467170     1.6857710    -0.1068680
  O        2.1477710    -1.6706650    -0.3531650
  C        0.9946280    -0.1112570     1.0566320
  C       -2.4121570     0.3091030    -0.3317080
  C       -0.1617686     0.5553046     0.3877811
  C        2.0280890    -0.5019850    -0.0034200
  C       -3.4935060    -0.7442920    -0.2688040
  C        2.8658400     0.6173540    -0.5670070
  H        0.6698310    -1.0124810     1.5769910
  H        1.4325960     0.6058250     1.7585570
  H       -2.7009940     1.2359100     0.1709210
  H       -2.1292340     0.5563720    -1.3582130
  H       -4.3948380    -0.3800300    -0.7696350
  H       -3.1655030    -1.6602290    -0.7643920
  H       -3.7422990    -0.9781810     0.7683530
  H        3.4354090     0.2520080    -1.4220870
  H        3.5572420     0.9731160     0.2051050
  H        2.2308310     1.4607170    -0.8501030
units angstrom
no_reorient  #important for SAPT in psi4, default
symmetry c1  #important for SAPT in psi4, default
}

set PROPERTIES_ORIGIN ["COM"]
properties('MP2/aug-cc-pvtz', properties = ['dipole'])
--------------------------------------------------------------------------

    Molecular point group: c1
  Charge       = 0
  Multiplicity = 1
  Basis Set: AUG-CC-PVTZ
    Blend: AUG-CC-PVTZ
  Basis Set: (AUG-CC-PVTZ AUX)
    Blend: AUG-CC-PVTZ-JKFIT

    Orbital Energies [Eh]
    ---------------------

    Doubly Occupied:

       1A    -20.614123     2A    -20.560246     3A    -20.557512
       4A    -11.401687     5A    -11.351440     6A    -11.296102
       7A    -11.264566     8A    -11.237243     9A    -11.229243
      10A     -1.461949    11A     -1.390498    12A     -1.359048
      13A     -1.086596    14A     -1.040419    15A     -0.993679
      16A     -0.875559    17A     -0.799317    18A     -0.757268
      19A     -0.709460    20A     -0.692094    21A     -0.678375
      22A     -0.653603    23A     -0.643014    24A     -0.602716
      25A     -0.586991    26A     -0.575020    27A     -0.569424
      28A     -0.552131    29A     -0.539796    30A     -0.520300
      31A     -0.512371    32A     -0.504129    33A     -0.467519
      34A     -0.458707    35A     -0.425099

  @DF-RHF Final Energy:  -457.80424935387947

   => Energetics <=

    Nuclear Repulsion Energy =            453.1092680565274691
    One-Electron Energy =               -1523.8925414835036918
    Two-Electron Energy =                 612.9790240730966389
    Total Energy =                       -457.8042493538795270
  Basis Set: (AUG-CC-PVTZ AUX)
    Blend: AUG-CC-PVTZ-RI
    Molecular point group: c1

    Geometry (in Angstrom), charge = 0, multiplicity = 1:

       Center              X                  Y                   Z               Mass
    ------------   -----------------  -----------------  -----------------  -----------------
         O           -1.292479538944    -0.237754282847     0.341157273821    15.994914619570
         O           -0.184786538944     1.694618717153    -0.112920726179    15.994914619570
         O            2.109701461056    -1.661817282847    -0.359217726179    15.994914619570
         C            0.956558461056    -0.102409282847     1.050579273821    12.000000000000
         C           -2.450226538944     0.317950717153    -0.337760726179    12.000000000000
         C           -0.199838138944     0.564152317153     0.381728373821    12.000000000000
         C            1.990019461056    -0.493137282847    -0.009472726179    12.000000000000
         C           -3.531575538944    -0.735444282847    -0.274856726179    12.000000000000
         C            2.827770461056     0.626201717153    -0.573059726179    12.000000000000
         H            0.631761461056    -1.003633282847     1.570938273821     1.007825032230
         H            1.394526461056     0.614672717153     1.752504273821     1.007825032230
         H           -2.739063538944     1.244757717153     0.164868273821     1.007825032230
         H           -2.167303538944     0.565219717153    -1.364265726179     1.007825032230
         H           -4.432907538944    -0.371182282847    -0.775687726179     1.007825032230
         H           -3.203572538944    -1.651381282847    -0.770444726179     1.007825032230
         H           -3.780368538944    -0.969333282847     0.762300273821     1.007825032230
         H            3.397339461056     0.260855717153    -1.428139726179     1.007825032230
         H            3.519172461056     0.981963717153     0.199052273821     1.007825032230
         H            2.192761461056     1.469564717153    -0.856155726179     1.007825032230

  Basis Set: AUG-CC-PVTZ
    Blend: AUG-CC-PVTZ
  Basis Set: (AUG-CC-PVTZ AUX)
    Blend: AUG-CC-PVTZ-JKFIT
	 Reference Energy          =    -457.8042493538794702 [Eh]
	 Singles Energy            =      -0.0000000000000000 [Eh]
	 Same-Spin Energy          =      -0.4487280957938731 [Eh]
	 Opposite-Spin Energy      =      -1.4402437929757179 [Eh]
	 Correlation Energy        =      -1.8889718887695910 [Eh]
	 Total Energy              =    -459.6932212426490878 [Eh]

	 ================> DF-SCS-MP2 Energies <==================
	-----------------------------------------------------------
	 SCS Same-Spin Scale       =       0.3333333333333333 [-]
	 SCS Opposite-Spin Scale   =       1.2000000000000000 [-]
	 SCS Same-Spin Energy      =      -0.1495760319312910 [Eh]
	 SCS Opposite-Spin Energy  =      -1.7282925515708614 [Eh]
	 SCS Correlation Energy    =      -1.8778685835021525 [Eh]
	 SCS Total Energy          =    -459.6821179373816335 [Eh]
	-----------------------------------------------------------

  Dipole Moment: [D]
     X:    -1.1868      Y:     1.0626      Z:     1.0260     Total:     1.8948

*** Psi4 exiting successfully. Buy a developer a beer!
