                               Psi4 1.3.2 release

  ==> Input File <==

--------------------------------------------------------------------------
#psi4
#
memory 32 gb

molecule  {
0 1
  O       -1.2542770    -0.2468050     0.3469180
  O       -0.1468590     1.6858550    -0.1065980
  O        2.1477990    -1.6706520    -0.3530900
  C        0.9946260    -0.1111920     1.0566790
  C       -2.4120090     0.3089700    -0.3319760
  C       -0.0223571     0.4749339     0.4684686
  C        2.0280760    -0.5019680    -0.0034050
  C       -3.4935710    -0.7441700    -0.2685760
  C        2.8657550     0.6173710    -0.5671120
  H        0.6699150    -1.0123850     1.5771470
  H        1.4326490     0.6059550     1.7585010
  H       -2.7005340     1.2360120     0.1703920
  H       -2.1291700     0.5558430    -1.3586020
  H       -4.3948760    -0.3798980    -0.7694460
  H       -3.1658200    -1.6603590    -0.7638670
  H       -3.7423020    -0.9776200     0.7686940
  H        3.4353450     0.2519410    -1.4221430
  H        3.5571500     0.9732660     0.2049480
  H        2.2307250     1.4606800    -0.8503130
units angstrom
no_reorient  #important for SAPT in psi4, default
symmetry c1  #important for SAPT in psi4, default
}

set PROPERTIES_ORIGIN ["COM"]
properties('MP2/aug-cc-pvtz', properties = ['dipole'])
--------------------------------------------------------------------------

    Molecular point group: c1
  Charge       = 0
  Multiplicity = 1
  Basis Set: AUG-CC-PVTZ
    Blend: AUG-CC-PVTZ
  Basis Set: (AUG-CC-PVTZ AUX)
    Blend: AUG-CC-PVTZ-JKFIT

    Orbital Energies [Eh]
    ---------------------

    Doubly Occupied:

       1A    -20.598527     2A    -20.575880     3A    -20.546919
       4A    -11.414178     5A    -11.370185     6A    -11.287647
       7A    -11.270960     8A    -11.245454     9A    -11.222992
      10A     -1.416922    11A     -1.403764    12A     -1.295668
      13A     -1.141108    14A     -1.034242    15A     -1.011844
      16A     -0.867755    17A     -0.809507    18A     -0.759385
      19A     -0.720020    20A     -0.689907    21A     -0.677435
      22A     -0.655425    23A     -0.636233    24A     -0.604654
      25A     -0.590911    26A     -0.568261    27A     -0.562434
      28A     -0.552009    29A     -0.539095    30A     -0.512840
      31A     -0.499935    32A     -0.493537    33A     -0.449554
      34A     -0.445214    35A     -0.430798

  @DF-RHF Final Energy:  -457.72903829705274

   => Energetics <=

    Nuclear Repulsion Energy =            452.6081224372117049
    One-Electron Energy =               -1522.8719231259974549
    Two-Electron Energy =                 612.5347623917330111
    Total Energy =                       -457.7290382970527389
  Basis Set: (AUG-CC-PVTZ AUX)
    Blend: AUG-CC-PVTZ-RI
    Molecular point group: c1

    Geometry (in Angstrom), charge = 0, multiplicity = 1:

       Center              X                  Y                   Z               Mass
    ------------   -----------------  -----------------  -----------------  -----------------
         O           -1.305210145804    -0.230540287149     0.333423385518    15.994914619570
         O           -0.197792145804     1.702119712851    -0.120092614482    15.994914619570
         O            2.096865854196    -1.654387287149    -0.366584614482    15.994914619570
         C            0.943692854196    -0.094927287149     1.043184385518    12.000000000000
         C           -2.462942145804     0.325234712851    -0.345470614482    12.000000000000
         C           -0.073290245804     0.491198612851     0.454973985518    12.000000000000
         C            1.977142854196    -0.485703287149    -0.016899614482    12.000000000000
         C           -3.544504145804    -0.727905287149    -0.282070614482    12.000000000000
         C            2.814821854196     0.633635712851    -0.580606614482    12.000000000000
         H            0.618981854196    -0.996120287149     1.563652385518     1.007825032230
         H            1.381715854196     0.622219712851     1.745006385518     1.007825032230
         H           -2.751467145804     1.252276712851     0.156897385518     1.007825032230
         H           -2.180103145804     0.572107712851    -1.372096614482     1.007825032230
         H           -4.445809145804    -0.363633287149    -0.782940614482     1.007825032230
         H           -3.216753145804    -1.644094287149    -0.777361614482     1.007825032230
         H           -3.793235145804    -0.961355287149     0.755199385518     1.007825032230
         H            3.384411854196     0.268205712851    -1.435637614482     1.007825032230
         H            3.506216854196     0.989530712851     0.191453385518     1.007825032230
         H            2.179791854196     1.476944712851    -0.863807614482     1.007825032230

  Basis Set: AUG-CC-PVTZ
    Blend: AUG-CC-PVTZ
  Basis Set: (AUG-CC-PVTZ AUX)
    Blend: AUG-CC-PVTZ-JKFIT
	 Reference Energy          =    -457.7290382970527389 [Eh]
	 Singles Energy            =      -0.0000000000000000 [Eh]
	 Same-Spin Energy          =      -0.4551915486010233 [Eh]
	 Opposite-Spin Energy      =      -1.4518677168203467 [Eh]
	 Correlation Energy        =      -1.9070592654213701 [Eh]
	 Total Energy              =    -459.6360975624741059 [Eh]

	 ================> DF-SCS-MP2 Energies <==================
	-----------------------------------------------------------
	 SCS Same-Spin Scale       =       0.3333333333333333 [-]
	 SCS Opposite-Spin Scale   =       1.2000000000000000 [-]
	 SCS Same-Spin Energy      =      -0.1517305162003411 [Eh]
	 SCS Opposite-Spin Energy  =      -1.7422412601844159 [Eh]
	 SCS Correlation Energy    =      -1.8939717763847570 [Eh]
	 SCS Total Energy          =    -459.6230100734375128 [Eh]
	-----------------------------------------------------------

  Dipole Moment: [D]
     X:    -0.0527      Y:     0.6172      Z:     1.3304     Total:     1.4675

*** Psi4 exiting successfully. Buy a developer a beer!
