                               Psi4 1.3.2 release

  ==> Input File <==

--------------------------------------------------------------------------
#psi4
#
memory 32 gb

molecule  {
0 1
  O       -1.2542770    -0.2468050     0.3469180
  O       -0.1468590     1.6858550    -0.1065980
  O        2.1477990    -1.6706520    -0.3530900
  C        0.9946260    -0.1111920     1.0566790
  C       -2.4120090     0.3089700    -0.3319760
  C       -0.2547339     0.6088615     0.3340647
  C        2.0280760    -0.5019680    -0.0034050
  C       -3.4935710    -0.7441700    -0.2685760
  C        2.8657550     0.6173710    -0.5671120
  H        0.6699150    -1.0123850     1.5771470
  H        1.4326490     0.6059550     1.7585010
  H       -2.7005340     1.2360120     0.1703920
  H       -2.1291700     0.5558430    -1.3586020
  H       -4.3948760    -0.3798980    -0.7694460
  H       -3.1658200    -1.6603590    -0.7638670
  H       -3.7423020    -0.9776200     0.7686940
  H        3.4353450     0.2519410    -1.4221430
  H        3.5571500     0.9732660     0.2049480
  H        2.2307250     1.4606800    -0.8503130
units angstrom
no_reorient  #important for SAPT in psi4, default
symmetry c1  #important for SAPT in psi4, default
}

set PROPERTIES_ORIGIN ["COM"]
properties('MP2/aug-cc-pvtz', properties = ['dipole'])
--------------------------------------------------------------------------

    Molecular point group: c1
  Charge       = 0
  Multiplicity = 1
  Basis Set: AUG-CC-PVTZ
    Blend: AUG-CC-PVTZ
  Basis Set: (AUG-CC-PVTZ AUX)
    Blend: AUG-CC-PVTZ-JKFIT

    Orbital Energies [Eh]
    ---------------------

    Doubly Occupied:

       1A    -20.624536     2A    -20.565197     3A    -20.550090
       4A    -11.396363     5A    -11.340719     6A    -11.302049
       7A    -11.254314     8A    -11.233453     9A    -11.232278
      10A     -1.493546    11A     -1.404271    12A     -1.380965
      13A     -1.068877    14A     -1.039457    15A     -0.977844
      16A     -0.880014    17A     -0.805455    18A     -0.750062
      19A     -0.713924    20A     -0.704972    21A     -0.685462
      22A     -0.645997    23A     -0.639406    24A     -0.603974
      25A     -0.595214    26A     -0.578571    27A     -0.567970
      28A     -0.548878    29A     -0.535876    30A     -0.529563
      31A     -0.525829    32A     -0.501575    33A     -0.482665
      34A     -0.445625    35A     -0.413938

  @DF-RHF Final Energy:  -457.80053965337748

   => Energetics <=

    Nuclear Repulsion Energy =            453.6524157130866683
    One-Electron Energy =               -1524.8680561205749200
    Two-Electron Energy =                 613.4151007541108811
    Total Energy =                       -457.8005396533774274
  Basis Set: (AUG-CC-PVTZ AUX)
    Blend: AUG-CC-PVTZ-RI
    Molecular point group: c1

    Geometry (in Angstrom), charge = 0, multiplicity = 1:

       Center              X                  Y                   Z               Mass
    ------------   -----------------  -----------------  -----------------  -----------------
         O           -1.283770368736    -0.242896847215     0.345823890444    15.994914619570
         O           -0.176352368736     1.689763152785    -0.107692109556    15.994914619570
         O            2.118305631264    -1.666743847215    -0.354184109556    15.994914619570
         C            0.965132631264    -0.107283847215     1.055584890444    12.000000000000
         C           -2.441502368736     0.312878152785    -0.333070109556    12.000000000000
         C           -0.284227268736     0.612769652785     0.332970590444    12.000000000000
         C            1.998582631264    -0.498059847215    -0.004499109556    12.000000000000
         C           -3.523064368736    -0.740261847215    -0.269670109556    12.000000000000
         C            2.836261631264     0.621279152785    -0.568206109556    12.000000000000
         H            0.640421631264    -1.008476847215     1.576052890444     1.007825032230
         H            1.403155631264     0.609863152785     1.757406890444     1.007825032230
         H           -2.730027368736     1.239920152785     0.169297890444     1.007825032230
         H           -2.158663368736     0.559751152785    -1.359696109556     1.007825032230
         H           -4.424369368736    -0.375989847215    -0.770540109556     1.007825032230
         H           -3.195313368736    -1.656450847215    -0.764961109556     1.007825032230
         H           -3.771795368736    -0.973711847215     0.767599890444     1.007825032230
         H            3.405851631264     0.255849152785    -1.423237109556     1.007825032230
         H            3.527656631264     0.977174152785     0.203853890444     1.007825032230
         H            2.201231631264     1.464588152785    -0.851407109556     1.007825032230

  Basis Set: AUG-CC-PVTZ
    Blend: AUG-CC-PVTZ
  Basis Set: (AUG-CC-PVTZ AUX)
    Blend: AUG-CC-PVTZ-JKFIT
	 Reference Energy          =    -457.8005396533774842 [Eh]
	 Singles Energy            =      -0.0000000000000000 [Eh]
	 Same-Spin Energy          =      -0.4468385871450469 [Eh]
	 Opposite-Spin Energy      =      -1.4367025417256765 [Eh]
	 Correlation Energy        =      -1.8835411288707233 [Eh]
	 Total Energy              =    -459.6840807822482020 [Eh]

	 ================> DF-SCS-MP2 Energies <==================
	-----------------------------------------------------------
	 SCS Same-Spin Scale       =       0.3333333333333333 [-]
	 SCS Opposite-Spin Scale   =       1.2000000000000000 [-]
	 SCS Same-Spin Energy      =      -0.1489461957150156 [Eh]
	 SCS Opposite-Spin Energy  =      -1.7240430500708117 [Eh]
	 SCS Correlation Energy    =      -1.8729892457858273 [Eh]
	 SCS Total Energy          =    -459.6735288991633297 [Eh]
	-----------------------------------------------------------

  Dipole Moment: [D]
     X:    -1.9687      Y:     1.4185      Z:     0.7792     Total:     2.5485

*** Psi4 exiting successfully. Buy a developer a beer!
