                               Psi4 1.3.2 release

  ==> Input File <==

--------------------------------------------------------------------------
#psi4
#
memory 32 gb

molecule  {
0 1
  O       -1.2542770    -0.2468050     0.3469180
  O       -0.1468590     1.6858550    -0.1065980
  O        2.1477990    -1.6706520    -0.3530900
  C        0.9946260    -0.1111920     1.0566790
  C       -2.4120090     0.3089700    -0.3319760
  C       -0.1772750     0.5642190     0.3788660
  C        2.0971582    -0.4364817     0.0451889
  C       -3.4935710    -0.7441700    -0.2685760
  C        2.8657550     0.6173710    -0.5671120
  H        0.6699150    -1.0123850     1.5771470
  H        1.4326490     0.6059550     1.7585010
  H       -2.7005340     1.2360120     0.1703920
  H       -2.1291700     0.5558430    -1.3586020
  H       -4.3948760    -0.3798980    -0.7694460
  H       -3.1658200    -1.6603590    -0.7638670
  H       -3.7423020    -0.9776200     0.7686940
  H        3.4353450     0.2519410    -1.4221430
  H        3.5571500     0.9732660     0.2049480
  H        2.2307250     1.4606800    -0.8503130
units angstrom
no_reorient  #important for SAPT in psi4, default
symmetry c1  #important for SAPT in psi4, default
}

set PROPERTIES_ORIGIN ["COM"]
properties('MP2/aug-cc-pvtz', properties = ['dipole'])
--------------------------------------------------------------------------

    Molecular point group: c1
  Charge       = 0
  Multiplicity = 1
  Basis Set: AUG-CC-PVTZ
    Blend: AUG-CC-PVTZ
  Basis Set: (AUG-CC-PVTZ AUX)
    Blend: AUG-CC-PVTZ-JKFIT

    Orbital Energies [Eh]
    ---------------------

    Doubly Occupied:

       1A    -20.616582     2A    -20.559804     3A    -20.552804
       4A    -11.402357     5A    -11.355737     6A    -11.297400
       7A    -11.266890     8A    -11.240200     9A    -11.229901
      10A     -1.467913    11A     -1.367661    12A     -1.343358
      13A     -1.086821    14A     -1.047827    15A     -1.004088
      16A     -0.877404    17A     -0.801220    18A     -0.757073
      19A     -0.709946    20A     -0.694202    21A     -0.679450
      22A     -0.648443    23A     -0.640976    24A     -0.605736
      25A     -0.587108    26A     -0.573272    27A     -0.569629
      28A     -0.547069    29A     -0.542736    30A     -0.522187
      31A     -0.514235    32A     -0.482797    33A     -0.470754
      34A     -0.451483    35A     -0.428909

  @DF-RHF Final Energy:  -457.78699861385894

   => Energetics <=

    Nuclear Repulsion Energy =            452.3994108624930277
    One-Electron Energy =               -1522.4848778523387409
    Two-Electron Energy =                 612.2984683759868858
    Total Energy =                       -457.7869986138589411
  Basis Set: (AUG-CC-PVTZ AUX)
    Blend: AUG-CC-PVTZ-RI
    Molecular point group: c1

    Geometry (in Angstrom), charge = 0, multiplicity = 1:

       Center              X                  Y                   Z               Mass
    ------------   -----------------  -----------------  -----------------  -----------------
         O           -1.297290687956    -0.244819958409     0.337206970565    15.994914619570
         O           -0.189872687956     1.687840041591    -0.116309029435    15.994914619570
         O            2.104785312044    -1.668666958409    -0.362801029435    15.994914619570
         C            0.951612312044    -0.109206958409     1.046967970565    12.000000000000
         C           -2.455022687956     0.310955041591    -0.341687029435    12.000000000000
         C           -0.220288687956     0.566204041591     0.369154970565    12.000000000000
         C            2.054144512044    -0.434496658409     0.035477870565    12.000000000000
         C           -3.536584687956    -0.742184958409    -0.278287029435    12.000000000000
         C            2.822741312044     0.619356041591    -0.576823029435    12.000000000000
         H            0.626901312044    -1.010399958409     1.567435970565     1.007825032230
         H            1.389635312044     0.607940041591     1.748789970565     1.007825032230
         H           -2.743547687956     1.237997041591     0.160680970565     1.007825032230
         H           -2.172183687956     0.557828041591    -1.368313029435     1.007825032230
         H           -4.437889687956    -0.377912958409    -0.779157029435     1.007825032230
         H           -3.208833687956    -1.658373958409    -0.773578029435     1.007825032230
         H           -3.785315687956    -0.975634958409     0.758982970565     1.007825032230
         H            3.392331312044     0.253926041591    -1.431854029435     1.007825032230
         H            3.514136312044     0.975251041591     0.195236970565     1.007825032230
         H            2.187711312044     1.462665041591    -0.860024029435     1.007825032230

  Basis Set: AUG-CC-PVTZ
    Blend: AUG-CC-PVTZ
  Basis Set: (AUG-CC-PVTZ AUX)
    Blend: AUG-CC-PVTZ-JKFIT
	 Reference Energy          =    -457.7869986138589411 [Eh]
	 Singles Energy            =      -0.0000000000000000 [Eh]
	 Same-Spin Energy          =      -0.4507555272753091 [Eh]
	 Opposite-Spin Energy      =      -1.4444548637745656 [Eh]
	 Correlation Energy        =      -1.8952103910498748 [Eh]
	 Total Energy              =    -459.6822090049088274 [Eh]

	 ================> DF-SCS-MP2 Energies <==================
	-----------------------------------------------------------
	 SCS Same-Spin Scale       =       0.3333333333333333 [-]
	 SCS Opposite-Spin Scale   =       1.2000000000000000 [-]
	 SCS Same-Spin Energy      =      -0.1502518424251030 [Eh]
	 SCS Opposite-Spin Energy  =      -1.7333458365294787 [Eh]
	 SCS Correlation Energy    =      -1.8835976789545819 [Eh]
	 SCS Total Energy          =    -459.6705962928135136 [Eh]
	-----------------------------------------------------------

  Dipole Moment: [D]
     X:    -1.2290      Y:     1.4390      Z:     0.9736     Total:     2.1281

*** Psi4 exiting successfully. Buy a developer a beer!
