                               Psi4 1.3.2 release

  ==> Input File <==

--------------------------------------------------------------------------
#psi4
#
memory 32 gb

molecule  {
0 1
  O       -1.2542770    -0.2468050     0.3469180
  O       -0.1468590     1.6858550    -0.1065980
  O        2.1477990    -1.6706520    -0.3530900
  C        0.9946260    -0.1111920     1.0566790
  C       -2.4120090     0.3089700    -0.3319760
  C       -0.3321929     0.6535041     0.2892634
  C        2.0280760    -0.5019680    -0.0034050
  C       -3.4935710    -0.7441700    -0.2685760
  C        2.8657550     0.6173710    -0.5671120
  H        0.6699150    -1.0123850     1.5771470
  H        1.4326490     0.6059550     1.7585010
  H       -2.7005340     1.2360120     0.1703920
  H       -2.1291700     0.5558430    -1.3586020
  H       -4.3948760    -0.3798980    -0.7694460
  H       -3.1658200    -1.6603590    -0.7638670
  H       -3.7423020    -0.9776200     0.7686940
  H        3.4353450     0.2519410    -1.4221430
  H        3.5571500     0.9732660     0.2049480
  H        2.2307250     1.4606800    -0.8503130
units angstrom
no_reorient  #important for SAPT in psi4, default
symmetry c1  #important for SAPT in psi4, default
}

set PROPERTIES_ORIGIN ["COM"]
properties('MP2/aug-cc-pvtz', properties = ['dipole'])
--------------------------------------------------------------------------

    Molecular point group: c1
  Charge       = 0
  Multiplicity = 1
  Basis Set: AUG-CC-PVTZ
    Blend: AUG-CC-PVTZ
  Basis Set: (AUG-CC-PVTZ AUX)
    Blend: AUG-CC-PVTZ-JKFIT

    Orbital Energies [Eh]
    ---------------------

    Doubly Occupied:

       1A    -20.635297     2A    -20.575793     3A    -20.540150
       4A    -11.398613     5A    -11.331092     6A    -11.308548
       7A    -11.240039     8A    -11.237797     9A    -11.227645
      10A     -1.521613    11A     -1.442672    12A     -1.371839
      13A     -1.066839    14A     -1.031666    15A     -0.963473
      16A     -0.883884    17A     -0.816331    18A     -0.743210
      19A     -0.727371    20A     -0.719630    21A     -0.691513
      22A     -0.640461    23A     -0.634037    24A     -0.610291
      25A     -0.600450    26A     -0.581881    27A     -0.568203
      28A     -0.545802    29A     -0.541153    30A     -0.540625
      31A     -0.524456    32A     -0.497814    33A     -0.493054
      34A     -0.424763    35A     -0.398195

  @DF-RHF Final Energy:  -457.76980176395836

   => Energetics <=

    Nuclear Repulsion Energy =            454.1281193477581155
    One-Electron Energy =               -1525.6434418320977784
    Two-Electron Energy =                 613.7455207203814780
    Total Energy =                       -457.7698017639582986
  Basis Set: (AUG-CC-PVTZ AUX)
    Blend: AUG-CC-PVTZ-RI
    Molecular point group: c1

    Geometry (in Angstrom), charge = 0, multiplicity = 1:

       Center              X                  Y                   Z               Mass
    ------------   -----------------  -----------------  -----------------  -----------------
         O           -1.276623770229    -0.247015706722     0.349957392086    15.994914619570
         O           -0.169205770229     1.685644293278    -0.103558607914    15.994914619570
         O            2.125452229771    -1.670862706722    -0.350050607914    15.994914619570
         C            0.972279229771    -0.111402706722     1.059718392086    12.000000000000
         C           -2.434355770229     0.308759293278    -0.328936607914    12.000000000000
         C           -0.354539670229     0.653293393278     0.292302792086    12.000000000000
         C            2.005729229771    -0.502178706722    -0.000365607914    12.000000000000
         C           -3.515917770229    -0.744380706722    -0.265536607914    12.000000000000
         C            2.843408229771     0.617160293278    -0.564072607914    12.000000000000
         H            0.647568229771    -1.012595706722     1.580186392086     1.007825032230
         H            1.410302229771     0.605744293278     1.761540392086     1.007825032230
         H           -2.722880770229     1.235801293278     0.173431392086     1.007825032230
         H           -2.151516770229     0.555632293278    -1.355562607914     1.007825032230
         H           -4.417222770229    -0.380108706722    -0.766406607914     1.007825032230
         H           -3.188166770229    -1.660569706722    -0.760827607914     1.007825032230
         H           -3.764648770229    -0.977830706722     0.771733392086     1.007825032230
         H            3.412998229771     0.251730293278    -1.419103607914     1.007825032230
         H            3.534803229771     0.973055293278     0.207987392086     1.007825032230
         H            2.208378229771     1.460469293278    -0.847273607914     1.007825032230

  Basis Set: AUG-CC-PVTZ
    Blend: AUG-CC-PVTZ
  Basis Set: (AUG-CC-PVTZ AUX)
    Blend: AUG-CC-PVTZ-JKFIT
	 Reference Energy          =    -457.7698017639583554 [Eh]
	 Singles Energy            =      -0.0000000000000000 [Eh]
	 Same-Spin Energy          =      -0.4467757893372605 [Eh]
	 Opposite-Spin Energy      =      -1.4362951355084164 [Eh]
	 Correlation Energy        =      -1.8830709248456770 [Eh]
	 Total Energy              =    -459.6528726888040524 [Eh]

	 ================> DF-SCS-MP2 Energies <==================
	-----------------------------------------------------------
	 SCS Same-Spin Scale       =       0.3333333333333333 [-]
	 SCS Opposite-Spin Scale   =       1.2000000000000000 [-]
	 SCS Same-Spin Energy      =      -0.1489252631124202 [Eh]
	 SCS Opposite-Spin Energy  =      -1.7235541626100996 [Eh]
	 SCS Correlation Energy    =      -1.8724794257225197 [Eh]
	 SCS Total Energy          =    -459.6422811896808867 [Eh]
	-----------------------------------------------------------

  Dipole Moment: [D]
     X:    -2.7449      Y:     1.7961      Z:     0.5222     Total:     3.3216

*** Psi4 exiting successfully. Buy a developer a beer!
