                               Psi4 1.3.2 release

  ==> Input File <==

--------------------------------------------------------------------------
#psi4
#
memory 32 gb

molecule  {
0 1
  O       -1.2542770    -0.2468050     0.3469180
  O       -0.1468590     1.6858550    -0.1065980
  O        2.1477990    -1.6706520    -0.3530900
  C        0.9946260    -0.1111920     1.0566790
  C       -2.4120090     0.3089700    -0.3319760
  C       -0.1562390     0.6502223     0.4364205
  C        2.0280760    -0.5019680    -0.0034050
  C       -3.4935710    -0.7441700    -0.2685760
  C        2.8657550     0.6173710    -0.5671120
  H        0.6699150    -1.0123850     1.5771470
  H        1.4326490     0.6059550     1.7585010
  H       -2.7005340     1.2360120     0.1703920
  H       -2.1291700     0.5558430    -1.3586020
  H       -4.3948760    -0.3798980    -0.7694460
  H       -3.1658200    -1.6603590    -0.7638670
  H       -3.7423020    -0.9776200     0.7686940
  H        3.4353450     0.2519410    -1.4221430
  H        3.5571500     0.9732660     0.2049480
  H        2.2307250     1.4606800    -0.8503130
units angstrom
no_reorient  #important for SAPT in psi4, default
symmetry c1  #important for SAPT in psi4, default
}

set PROPERTIES_ORIGIN ["COM"]
properties('MP2/aug-cc-pvtz', properties = ['dipole'])
--------------------------------------------------------------------------

    Molecular point group: c1
  Charge       = 0
  Multiplicity = 1
  Basis Set: AUG-CC-PVTZ
    Blend: AUG-CC-PVTZ
  Basis Set: (AUG-CC-PVTZ AUX)
    Blend: AUG-CC-PVTZ-JKFIT

    Orbital Energies [Eh]
    ---------------------

    Doubly Occupied:

       1A    -20.597247     2A    -20.574235     3A    -20.560500
       4A    -11.399498     5A    -11.352022     6A    -11.287977
       7A    -11.265676     8A    -11.239388     9A    -11.224123
      10A     -1.471976    11A     -1.390362    12A     -1.370997
      13A     -1.081454    14A     -1.031889    15A     -0.992426
      16A     -0.863447    17A     -0.795373    18A     -0.754820
      19A     -0.716029    20A     -0.688920    21A     -0.679999
      22A     -0.651431    23A     -0.645455    24A     -0.603114
      25A     -0.590275    26A     -0.580847    27A     -0.567027
      28A     -0.551733    29A     -0.535795    30A     -0.522561
      31A     -0.516281    32A     -0.504508    33A     -0.464515
      34A     -0.458236    35A     -0.426369

  @DF-RHF Final Energy:  -457.79807558344567

   => Energetics <=

    Nuclear Repulsion Energy =            452.6864552574115237
    One-Electron Energy =               -1523.0560494901765196
    Two-Electron Energy =                 612.5715186493192732
    Total Energy =                       -457.7980755834456659
  Basis Set: (AUG-CC-PVTZ AUX)
    Blend: AUG-CC-PVTZ-RI
    Molecular point group: c1

    Geometry (in Angstrom), charge = 0, multiplicity = 1:

       Center              X                  Y                   Z               Mass
    ------------   -----------------  -----------------  -----------------  -----------------
         O           -1.292857802156    -0.246712918059     0.336380238867    15.994914619570
         O           -0.185439802156     1.685947081941    -0.117135761133    15.994914619570
         O            2.109218197844    -1.670559918059    -0.363627761133    15.994914619570
         C            0.956045197844    -0.111099918059     1.046141238867    12.000000000000
         C           -2.450589802156     0.309062081941    -0.342513761133    12.000000000000
         C           -0.194819802156     0.650314381941     0.425882738867    12.000000000000
         C            1.989495197844    -0.501875918059    -0.013942761133    12.000000000000
         C           -3.532151802156    -0.744077918059    -0.279113761133    12.000000000000
         C            2.827174197844     0.617463081941    -0.577649761133    12.000000000000
         H            0.631334197844    -1.012292918059     1.566609238867     1.007825032230
         H            1.394068197844     0.606047081941     1.747963238867     1.007825032230
         H           -2.739114802156     1.236104081941     0.159854238867     1.007825032230
         H           -2.167750802156     0.555935081941    -1.369139761133     1.007825032230
         H           -4.433456802156    -0.379805918059    -0.779983761133     1.007825032230
         H           -3.204400802156    -1.660266918059    -0.774404761133     1.007825032230
         H           -3.780882802156    -0.977527918059     0.758156238867     1.007825032230
         H            3.396764197844     0.252033081941    -1.432680761133     1.007825032230
         H            3.518569197844     0.973358081941     0.194410238867     1.007825032230
         H            2.192144197844     1.460772081941    -0.860850761133     1.007825032230

  Basis Set: AUG-CC-PVTZ
    Blend: AUG-CC-PVTZ
  Basis Set: (AUG-CC-PVTZ AUX)
    Blend: AUG-CC-PVTZ-JKFIT
	 Reference Energy          =    -457.7980755834456659 [Eh]
	 Singles Energy            =      -0.0000000000000000 [Eh]
	 Same-Spin Energy          =      -0.4481527426157991 [Eh]
	 Opposite-Spin Energy      =      -1.4395727720797331 [Eh]
	 Correlation Energy        =      -1.8877255146955323 [Eh]
	 Total Energy              =    -459.6858010981412122 [Eh]

	 ================> DF-SCS-MP2 Energies <==================
	-----------------------------------------------------------
	 SCS Same-Spin Scale       =       0.3333333333333333 [-]
	 SCS Opposite-Spin Scale   =       1.2000000000000000 [-]
	 SCS Same-Spin Energy      =      -0.1493842475385997 [Eh]
	 SCS Opposite-Spin Energy  =      -1.7274873264956796 [Eh]
	 SCS Correlation Energy    =      -1.8768715740342792 [Eh]
	 SCS Total Energy          =    -459.6749471574799486 [Eh]
	-----------------------------------------------------------

  Dipole Moment: [D]
     X:    -0.7714      Y:     1.5622      Z:     1.0302     Total:     2.0241

*** Psi4 exiting successfully. Buy a developer a beer!
