                               Psi4 1.3.2 release

  ==> Input File <==

--------------------------------------------------------------------------
#psi4
#
memory 32 gb

molecule  {
0 1
  O       -1.2542770    -0.2468050     0.3469180
  O       -0.1468590     1.6858550    -0.1065980
  O        2.1477990    -1.6706520    -0.3530900
  C        0.9946260    -0.1111920     1.0566790
  C       -2.4120090     0.3089700    -0.3319760
  C       -0.1772750     0.5642190     0.3788660
  C        2.0458322    -0.4857626     0.0082681
  C       -3.4935710    -0.7441700    -0.2685760
  C        2.8657550     0.6173710    -0.5671120
  H        0.6699150    -1.0123850     1.5771470
  H        1.4326490     0.6059550     1.7585010
  H       -2.7005340     1.2360120     0.1703920
  H       -2.1291700     0.5558430    -1.3586020
  H       -4.3948760    -0.3798980    -0.7694460
  H       -3.1658200    -1.6603590    -0.7638670
  H       -3.7423020    -0.9776200     0.7686940
  H        3.4353450     0.2519410    -1.4221430
  H        3.5571500     0.9732660     0.2049480
  H        2.2307250     1.4606800    -0.8503130
units angstrom
no_reorient  #important for SAPT in psi4, default
symmetry c1  #important for SAPT in psi4, default
}

set PROPERTIES_ORIGIN ["COM"]
properties('MP2/aug-cc-pvtz', properties = ['dipole'])
--------------------------------------------------------------------------

    Molecular point group: c1
  Charge       = 0
  Multiplicity = 1
  Basis Set: AUG-CC-PVTZ
    Blend: AUG-CC-PVTZ
  Basis Set: (AUG-CC-PVTZ AUX)
    Blend: AUG-CC-PVTZ-JKFIT

    Orbital Energies [Eh]
    ---------------------

    Doubly Occupied:

       1A    -20.615951     2A    -20.558882     3A    -20.557152
       4A    -11.400866     5A    -11.351047     6A    -11.297096
       7A    -11.264050     8A    -11.237478     9A    -11.229892
      10A     -1.467315    11A     -1.377512    12A     -1.366606
      13A     -1.083278    14A     -1.042341    15A     -0.994810
      16A     -0.876564    17A     -0.800006    18A     -0.756433
      19A     -0.709377    20A     -0.693821    21A     -0.679357
      22A     -0.651069    23A     -0.642075    24A     -0.603297
      25A     -0.587573    26A     -0.574985    27A     -0.569357
      28A     -0.551227    29A     -0.540069    30A     -0.522003
      31A     -0.514563    32A     -0.497990    33A     -0.470217
      34A     -0.457089    35A     -0.425638

  @DF-RHF Final Energy:  -457.80380477599482

   => Energetics <=

    Nuclear Repulsion Energy =            452.9949435333527958
    One-Electron Energy =               -1523.6635285096772350
    Two-Electron Energy =                 612.8647802003296192
    Total Energy =                       -457.8038047759947631
  Basis Set: (AUG-CC-PVTZ AUX)
    Blend: AUG-CC-PVTZ-RI
    Molecular point group: c1

    Geometry (in Angstrom), charge = 0, multiplicity = 1:

       Center              X                  Y                   Z               Mass
    ------------   -----------------  -----------------  -----------------  -----------------
         O           -1.292555198020    -0.240273155502     0.340613393759    15.994914619570
         O           -0.185137198020     1.692386844498    -0.112902606241    15.994914619570
         O            2.109520801980    -1.664120155502    -0.359394606241    15.994914619570
         C            0.956347801980    -0.104660155502     1.050374393759    12.000000000000
         C           -2.450287198020     0.315501844498    -0.338280606241    12.000000000000
         C           -0.215553198020     0.570750844498     0.372561393759    12.000000000000
         C            2.007554001980    -0.479230755502     0.001963493759    12.000000000000
         C           -3.531849198020    -0.737638155502    -0.274880606241    12.000000000000
         C            2.827476801980     0.623902844498    -0.573416606241    12.000000000000
         H            0.631636801980    -1.005853155502     1.570842393759     1.007825032230
         H            1.394370801980     0.612486844498     1.752196393759     1.007825032230
         H           -2.738812198020     1.242543844498     0.164087393759     1.007825032230
         H           -2.167448198020     0.562374844498    -1.364906606241     1.007825032230
         H           -4.433154198020    -0.373366155502    -0.775750606241     1.007825032230
         H           -3.204098198020    -1.653827155502    -0.770171606241     1.007825032230
         H           -3.780580198020    -0.971088155502     0.762389393759     1.007825032230
         H            3.397066801980     0.258472844498    -1.428447606241     1.007825032230
         H            3.518871801980     0.979797844498     0.198643393759     1.007825032230
         H            2.192446801980     1.467211844498    -0.856617606241     1.007825032230

  Basis Set: AUG-CC-PVTZ
    Blend: AUG-CC-PVTZ
  Basis Set: (AUG-CC-PVTZ AUX)
    Blend: AUG-CC-PVTZ-JKFIT
	 Reference Energy          =    -457.8038047759948199 [Eh]
	 Singles Energy            =      -0.0000000000000000 [Eh]
	 Same-Spin Energy          =      -0.4488012970181137 [Eh]
	 Opposite-Spin Energy      =      -1.4404751132934885 [Eh]
	 Correlation Energy        =      -1.8892764103116022 [Eh]
	 Total Energy              =    -459.6930811863064150 [Eh]

	 ================> DF-SCS-MP2 Energies <==================
	-----------------------------------------------------------
	 SCS Same-Spin Scale       =       0.3333333333333333 [-]
	 SCS Opposite-Spin Scale   =       1.2000000000000000 [-]
	 SCS Same-Spin Energy      =      -0.1496004323393712 [Eh]
	 SCS Opposite-Spin Energy  =      -1.7285701359521861 [Eh]
	 SCS Correlation Energy    =      -1.8781705682915573 [Eh]
	 SCS Total Energy          =    -459.6819753442863998 [Eh]
	-----------------------------------------------------------

  Dipole Moment: [D]
     X:    -1.2859      Y:     1.2040      Z:     0.9851     Total:     2.0183

*** Psi4 exiting successfully. Buy a developer a beer!
