                               Psi4 1.3.2 release

  ==> Input File <==

--------------------------------------------------------------------------
#psi4
#
memory 32 gb

molecule  {
0 1
  O       -1.2542770    -0.2468050     0.3469180
  O       -0.1468590     1.6858550    -0.1065980
  O        2.1477990    -1.6706520    -0.3530900
  C        0.9946260    -0.1111920     1.0566790
  C       -2.4120090     0.3089700    -0.3319760
  C       -0.1772750     0.5642190     0.3788660
  C        2.1297051    -0.4031240     0.0713496
  C       -3.4935710    -0.7441700    -0.2685760
  C        2.8657550     0.6173710    -0.5671120
  H        0.6699150    -1.0123850     1.5771470
  H        1.4326490     0.6059550     1.7585010
  H       -2.7005340     1.2360120     0.1703920
  H       -2.1291700     0.5558430    -1.3586020
  H       -4.3948760    -0.3798980    -0.7694460
  H       -3.1658200    -1.6603590    -0.7638670
  H       -3.7423020    -0.9776200     0.7686940
  H        3.4353450     0.2519410    -1.4221430
  H        3.5571500     0.9732660     0.2049480
  H        2.2307250     1.4606800    -0.8503130
units angstrom
no_reorient  #important for SAPT in psi4, default
symmetry c1  #important for SAPT in psi4, default
}

set PROPERTIES_ORIGIN ["COM"]
properties('MP2/aug-cc-pvtz', properties = ['dipole'])
--------------------------------------------------------------------------

    Molecular point group: c1
  Charge       = 0
  Multiplicity = 1
  Basis Set: AUG-CC-PVTZ
    Blend: AUG-CC-PVTZ
  Basis Set: (AUG-CC-PVTZ AUX)
    Blend: AUG-CC-PVTZ-JKFIT

    Orbital Energies [Eh]
    ---------------------

    Doubly Occupied:

       1A    -20.617042     2A    -20.560426     3A    -20.549820
       4A    -11.403395     5A    -11.359073     6A    -11.297638
       7A    -11.269131     8A    -11.241777     9A    -11.229938
      10A     -1.468353    11A     -1.368185    12A     -1.321912
      13A     -1.090154    14A     -1.051796    15A     -1.008910
      16A     -0.878045    17A     -0.802114    18A     -0.757813
      19A     -0.710461    20A     -0.694591    21A     -0.679887
      22A     -0.648021    23A     -0.641145    24A     -0.607703
      25A     -0.586861    26A     -0.572857    27A     -0.571110
      28A     -0.546321    29A     -0.538512    30A     -0.522361
      31A     -0.513508    32A     -0.476543    33A     -0.471091
      34A     -0.443807    35A     -0.428886

  @DF-RHF Final Energy:  -457.76879265379142

   => Energetics <=

    Nuclear Repulsion Energy =            452.0079675090872797
    One-Electron Energy =               -1521.6951448713723494
    Two-Electron Energy =                 611.9183847084937042
    Total Energy =                       -457.7687926537914791
  Basis Set: (AUG-CC-PVTZ AUX)
    Blend: AUG-CC-PVTZ-RI
    Molecular point group: c1

    Geometry (in Angstrom), charge = 0, multiplicity = 1:

       Center              X                  Y                   Z               Mass
    ------------   -----------------  -----------------  -----------------  -----------------
         O           -1.300293562082    -0.247897639363     0.334793306310    15.994914619570
         O           -0.192875562082     1.684762360637    -0.118722693690    15.994914619570
         O            2.101782437918    -1.671744639363    -0.365214693690    15.994914619570
         C            0.948609437918    -0.112284639363     1.044554306310    12.000000000000
         C           -2.458025562082     0.307877360637    -0.344100693690    12.000000000000
         C           -0.223291562082     0.563126360637     0.366741306310    12.000000000000
         C            2.083688537918    -0.404216639363     0.059224906310    12.000000000000
         C           -3.539587562082    -0.745262639363    -0.280700693690    12.000000000000
         C            2.819738437918     0.616278360637    -0.579236693690    12.000000000000
         H            0.623898437918    -1.013477639363     1.565022306310     1.007825032230
         H            1.386632437918     0.604862360637     1.746376306310     1.007825032230
         H           -2.746550562082     1.234919360637     0.158267306310     1.007825032230
         H           -2.175186562082     0.554750360637    -1.370726693690     1.007825032230
         H           -4.440892562082    -0.380990639363    -0.781570693690     1.007825032230
         H           -3.211836562082    -1.661451639363    -0.775991693690     1.007825032230
         H           -3.788318562082    -0.978712639363     0.756569306310     1.007825032230
         H            3.389328437918     0.250848360637    -1.434267693690     1.007825032230
         H            3.511133437918     0.972173360637     0.192823306310     1.007825032230
         H            2.184708437918     1.459587360637    -0.862437693690     1.007825032230

  Basis Set: AUG-CC-PVTZ
    Blend: AUG-CC-PVTZ
  Basis Set: (AUG-CC-PVTZ AUX)
    Blend: AUG-CC-PVTZ-JKFIT
	 Reference Energy          =    -457.7687926537914223 [Eh]
	 Singles Energy            =      -0.0000000000000000 [Eh]
	 Same-Spin Energy          =      -0.4523407606043376 [Eh]
	 Opposite-Spin Energy      =      -1.4477023914240086 [Eh]
	 Correlation Energy        =      -1.9000431520283461 [Eh]
	 Total Energy              =    -459.6688358058197537 [Eh]

	 ================> DF-SCS-MP2 Energies <==================
	-----------------------------------------------------------
	 SCS Same-Spin Scale       =       0.3333333333333333 [-]
	 SCS Opposite-Spin Scale   =       1.2000000000000000 [-]
	 SCS Same-Spin Energy      =      -0.1507802535347792 [Eh]
	 SCS Opposite-Spin Energy  =      -1.7372428697088103 [Eh]
	 SCS Correlation Energy    =      -1.8880231232435896 [Eh]
	 SCS Total Energy          =    -459.6568157770350354 [Eh]
	-----------------------------------------------------------

  Dipole Moment: [D]
     X:    -1.2028      Y:     1.5702      Z:     0.9611     Total:     2.1991

*** Psi4 exiting successfully. Buy a developer a beer!
