                               Psi4 1.3.2 release

  ==> Input File <==

--------------------------------------------------------------------------
#psi4
#
memory 32 gb

molecule  {
0 1
  O       -1.2542770    -0.2468050     0.3469180
  O       -0.1468590     1.6858550    -0.1065980
  O        2.1477990    -1.6706520    -0.3530900
  C        0.9946260    -0.1111920     1.0566790
  C       -2.4917082     0.3472300    -0.3787116
  C       -0.1772750     0.5642190     0.3788660
  C        2.0280760    -0.5019680    -0.0034050
  C       -3.4935710    -0.7441700    -0.2685760
  C        2.8657550     0.6173710    -0.5671120
  H        0.6699150    -1.0123850     1.5771470
  H        1.4326490     0.6059550     1.7585010
  H       -2.7005340     1.2360120     0.1703920
  H       -2.1291700     0.5558430    -1.3586020
  H       -4.3948760    -0.3798980    -0.7694460
  H       -3.1658200    -1.6603590    -0.7638670
  H       -3.7423020    -0.9776200     0.7686940
  H        3.4353450     0.2519410    -1.4221430
  H        3.5571500     0.9732660     0.2049480
  H        2.2307250     1.4606800    -0.8503130
units angstrom
no_reorient  #important for SAPT in psi4, default
symmetry c1  #important for SAPT in psi4, default
}

set PROPERTIES_ORIGIN ["COM"]
properties('MP2/aug-cc-pvtz', properties = ['dipole'])
--------------------------------------------------------------------------

    Molecular point group: c1
  Charge       = 0
  Multiplicity = 1
  Basis Set: AUG-CC-PVTZ
    Blend: AUG-CC-PVTZ
  Basis Set: (AUG-CC-PVTZ AUX)
    Blend: AUG-CC-PVTZ-JKFIT

    Orbital Energies [Eh]
    ---------------------

    Doubly Occupied:

       1A    -20.603253     2A    -20.555578     3A    -20.551588
       4A    -11.393186     5A    -11.346567     6A    -11.302360
       7A    -11.258787     8A    -11.234115     9A    -11.233992
      10A     -1.447418    11A     -1.385919    12A     -1.350654
      13A     -1.079288    14A     -1.047655    15A     -0.988814
      16A     -0.874318    17A     -0.794500    18A     -0.749189
      19A     -0.700333    20A     -0.689540    21A     -0.672044
      22A     -0.652935    23A     -0.638773    24A     -0.599187
      25A     -0.586712    26A     -0.574692    27A     -0.569953
      28A     -0.549797    29A     -0.541928    30A     -0.523531
      31A     -0.517716    32A     -0.499939    33A     -0.469519
      34A     -0.451379    35A     -0.420078

  @DF-RHF Final Energy:  -457.79784947617730

   => Energetics <=

    Nuclear Repulsion Energy =            451.6056323882929746
    One-Electron Energy =               -1521.0964830197228821
    Two-Electron Energy =                 611.6930011552526594
    Total Energy =                       -457.7978494761773618
  Basis Set: (AUG-CC-PVTZ AUX)
    Blend: AUG-CC-PVTZ-RI
    Molecular point group: c1

    Geometry (in Angstrom), charge = 0, multiplicity = 1:

       Center              X                  Y                   Z               Mass
    ------------   -----------------  -----------------  -----------------  -----------------
         O           -1.283563671972    -0.242307978718     0.346002354734    15.994914619570
         O           -0.176145671972     1.690352021282    -0.107513645266    15.994914619570
         O            2.118512328028    -1.666154978718    -0.354005645266    15.994914619570
         C            0.965339328028    -0.106694978718     1.055763354734    12.000000000000
         C           -2.520994871972     0.351727021282    -0.379627245266    12.000000000000
         C           -0.206561671972     0.568716021282     0.377950354734    12.000000000000
         C            1.998789328028    -0.497470978718    -0.004320645266    12.000000000000
         C           -3.522857671972    -0.739672978718    -0.269491645266    12.000000000000
         C            2.836468328028     0.621868021282    -0.568027645266    12.000000000000
         H            0.640628328028    -1.007887978718     1.576231354734     1.007825032230
         H            1.403362328028     0.610452021282     1.757585354734     1.007825032230
         H           -2.729820671972     1.240509021282     0.169476354734     1.007825032230
         H           -2.158456671972     0.560340021282    -1.359517645266     1.007825032230
         H           -4.424162671972    -0.375400978718    -0.770361645266     1.007825032230
         H           -3.195106671972    -1.655861978718    -0.764782645266     1.007825032230
         H           -3.771588671972    -0.973122978718     0.767778354734     1.007825032230
         H            3.406058328028     0.256438021282    -1.423058645266     1.007825032230
         H            3.527863328028     0.977763021282     0.204032354734     1.007825032230
         H            2.201438328028     1.465177021282    -0.851228645266     1.007825032230

  Basis Set: AUG-CC-PVTZ
    Blend: AUG-CC-PVTZ
  Basis Set: (AUG-CC-PVTZ AUX)
    Blend: AUG-CC-PVTZ-JKFIT
	 Reference Energy          =    -457.7978494761773050 [Eh]
	 Singles Energy            =      -0.0000000000000000 [Eh]
	 Same-Spin Energy          =      -0.4487123009254745 [Eh]
	 Opposite-Spin Energy      =      -1.4407792320533805 [Eh]
	 Correlation Energy        =      -1.8894915329788551 [Eh]
	 Total Energy              =    -459.6873410091561709 [Eh]

	 ================> DF-SCS-MP2 Energies <==================
	-----------------------------------------------------------
	 SCS Same-Spin Scale       =       0.3333333333333333 [-]
	 SCS Opposite-Spin Scale   =       1.2000000000000000 [-]
	 SCS Same-Spin Energy      =      -0.1495707669751582 [Eh]
	 SCS Opposite-Spin Energy  =      -1.7289350784640567 [Eh]
	 SCS Correlation Energy    =      -1.8785058454392149 [Eh]
	 SCS Total Energy          =    -459.6763553216165406 [Eh]
	-----------------------------------------------------------

  Dipole Moment: [D]
     X:    -1.7439      Y:     1.1213      Z:     0.8563     Total:     2.2432

*** Psi4 exiting successfully. Buy a developer a beer!
