                               Psi4 1.3.2 release

  ==> Input File <==

--------------------------------------------------------------------------
#psi4
#
memory 32 gb

molecule  {
0 1
  O       -1.2542770    -0.2468050     0.3469180
  O       -0.1468590     1.6858550    -0.1065980
  O        2.1477990    -1.6706520    -0.3530900
  C        0.9946260    -0.1111920     1.0566790
  C       -2.4120090     0.3089700    -0.3319760
  C       -0.2215388     0.5747923     0.4741577
  C        2.0280760    -0.5019680    -0.0034050
  C       -3.4935710    -0.7441700    -0.2685760
  C        2.8657550     0.6173710    -0.5671120
  H        0.6699150    -1.0123850     1.5771470
  H        1.4326490     0.6059550     1.7585010
  H       -2.7005340     1.2360120     0.1703920
  H       -2.1291700     0.5558430    -1.3586020
  H       -4.3948760    -0.3798980    -0.7694460
  H       -3.1658200    -1.6603590    -0.7638670
  H       -3.7423020    -0.9776200     0.7686940
  H        3.4353450     0.2519410    -1.4221430
  H        3.5571500     0.9732660     0.2049480
  H        2.2307250     1.4606800    -0.8503130
units angstrom
no_reorient  #important for SAPT in psi4, default
symmetry c1  #important for SAPT in psi4, default
}

set PROPERTIES_ORIGIN ["COM"]
properties('MP2/aug-cc-pvtz', properties = ['dipole'])
--------------------------------------------------------------------------

    Molecular point group: c1
  Charge       = 0
  Multiplicity = 1
  Basis Set: AUG-CC-PVTZ
    Blend: AUG-CC-PVTZ
  Basis Set: (AUG-CC-PVTZ AUX)
    Blend: AUG-CC-PVTZ-JKFIT

    Orbital Energies [Eh]
    ---------------------

    Doubly Occupied:

       1A    -20.622438     2A    -20.559199     3A    -20.552652
       4A    -11.402776     5A    -11.350736     6A    -11.300148
       7A    -11.263658     8A    -11.235109     9A    -11.231854
      10A     -1.472076    11A     -1.389179    12A     -1.349391
      13A     -1.082431    14A     -1.043256    15A     -0.991237
      16A     -0.881434    17A     -0.803267    18A     -0.759087
      19A     -0.704081    20A     -0.696144    21A     -0.678358
      22A     -0.651121    23A     -0.641517    24A     -0.602122
      25A     -0.587269    26A     -0.575155    27A     -0.567668
      28A     -0.548872    29A     -0.539998    30A     -0.523968
      31A     -0.510847    32A     -0.502229    33A     -0.466743
      34A     -0.453762    35A     -0.424854

  @DF-RHF Final Energy:  -457.79779553382889

   => Energetics <=

    Nuclear Repulsion Energy =            452.5699043223848435
    One-Electron Energy =               -1522.8061310277084885
    Two-Electron Energy =                 612.4384311714946989
    Total Energy =                       -457.7977955338288893
  Basis Set: (AUG-CC-PVTZ AUX)
    Blend: AUG-CC-PVTZ-RI
    Molecular point group: c1

    Geometry (in Angstrom), charge = 0, multiplicity = 1:

       Center              X                  Y                   Z               Mass
    ------------   -----------------  -----------------  -----------------  -----------------
         O           -1.286833047729    -0.239753521148     0.332898492174    15.994914619570
         O           -0.179415047729     1.692906478852    -0.120617507826    15.994914619570
         O            2.115242952271    -1.663600521148    -0.367109507826    15.994914619570
         C            0.962069952271    -0.104140521148     1.042659492174    12.000000000000
         C           -2.444565047729     0.316021478852    -0.345995507826    12.000000000000
         C           -0.254094847729     0.581843778852     0.460138192174    12.000000000000
         C            1.995519952271    -0.494916521148    -0.017424507826    12.000000000000
         C           -3.526127047729    -0.737118521148    -0.282595507826    12.000000000000
         C            2.833198952271     0.624422478852    -0.581131507826    12.000000000000
         H            0.637358952271    -1.005333521148     1.563127492174     1.007825032230
         H            1.400092952271     0.613006478852     1.744481492174     1.007825032230
         H           -2.733090047729     1.243063478852     0.156372492174     1.007825032230
         H           -2.161726047729     0.562894478852    -1.372621507826     1.007825032230
         H           -4.427432047729    -0.372846521148    -0.783465507826     1.007825032230
         H           -3.198376047729    -1.653307521148    -0.777886507826     1.007825032230
         H           -3.774858047729    -0.970568521148     0.754674492174     1.007825032230
         H            3.402788952271     0.258992478852    -1.436162507826     1.007825032230
         H            3.524593952271     0.980317478852     0.190928492174     1.007825032230
         H            2.198168952271     1.467731478852    -0.864332507826     1.007825032230

  Basis Set: AUG-CC-PVTZ
    Blend: AUG-CC-PVTZ
  Basis Set: (AUG-CC-PVTZ AUX)
    Blend: AUG-CC-PVTZ-JKFIT
	 Reference Energy          =    -457.7977955338288893 [Eh]
	 Singles Energy            =      -0.0000000000000000 [Eh]
	 Same-Spin Energy          =      -0.4489225743727481 [Eh]
	 Opposite-Spin Energy      =      -1.4409618875405292 [Eh]
	 Correlation Energy        =      -1.8898844619132773 [Eh]
	 Total Energy              =    -459.6876799957421440 [Eh]

	 ================> DF-SCS-MP2 Energies <==================
	-----------------------------------------------------------
	 SCS Same-Spin Scale       =       0.3333333333333333 [-]
	 SCS Opposite-Spin Scale   =       1.2000000000000000 [-]
	 SCS Same-Spin Energy      =      -0.1496408581242493 [Eh]
	 SCS Opposite-Spin Energy  =      -1.7291542650486351 [Eh]
	 SCS Correlation Energy    =      -1.8787951231728846 [Eh]
	 SCS Total Energy          =    -459.6765906570017819 [Eh]
	-----------------------------------------------------------

  Dipole Moment: [D]
     X:    -1.5059      Y:     0.9608      Z:     1.0500     Total:     2.0720

*** Psi4 exiting successfully. Buy a developer a beer!
