                               Psi4 1.4a3.dev225

  ==> Input File <==

--------------------------------------------------------------------------
#psi4
#
memory 32 gb

molecule  {
0 1
  O       -1.2544100    -0.2466020     0.3472100
  O       -0.1467170     1.6857710    -0.1068680
  O        2.1477710    -1.6706650    -0.3531650
  C        0.9946280    -0.1112570     1.0566320
  C       -2.4121570     0.3091030    -0.3317080
  C       -0.1772600     0.5642340     0.3788210
  C        2.0280890    -0.5019850    -0.0034200
  C       -3.4935060    -0.7442920    -0.2688040
  C        2.8658400     0.6173540    -0.5670070
  H        0.6549344    -1.0538151     1.6008570
  H        1.4325960     0.6058250     1.7585570
  H       -2.7009940     1.2359100     0.1709210
  H       -2.1292340     0.5563720    -1.3582130
  H       -4.3948380    -0.3800300    -0.7696350
  H       -3.1655030    -1.6602290    -0.7643920
  H       -3.7422990    -0.9781810     0.7683530
  H        3.4354090     0.2520080    -1.4220870
  H        3.5572420     0.9731160     0.2051050
  H        2.2308310     1.4607170    -0.8501030
units angstrom
no_reorient  #important for SAPT in psi4, default
symmetry c1  #important for SAPT in psi4, default
}

set PROPERTIES_ORIGIN ["COM"]
properties('MP2/aug-cc-pvtz', properties = ['dipole'])
--------------------------------------------------------------------------

    Molecular point group: c1
  Charge       = 0
  Multiplicity = 1
  Basis Set: AUG-CC-PVTZ
    Blend: AUG-CC-PVTZ
  Basis Set: (AUG-CC-PVTZ AUX)
    Blend: AUG-CC-PVTZ-JKFIT

    Orbital Energies [Eh]
    ---------------------

    Doubly Occupied:

       1A    -20.615642     2A    -20.558893     3A    -20.558530
       4A    -11.400721     5A    -11.349813     6A    -11.296931
       7A    -11.268431     8A    -11.236707     9A    -11.229867
      10A     -1.467137    11A     -1.388857    12A     -1.366591
      13A     -1.080734    14A     -1.040644    15A     -0.989809
      16A     -0.876024    17A     -0.799618    18A     -0.755836
      19A     -0.706202    20A     -0.693750    21A     -0.679481
      22A     -0.652371    23A     -0.640189    24A     -0.602215
      25A     -0.586711    26A     -0.574315    27A     -0.569245
      28A     -0.551382    29A     -0.535778    30A     -0.521887
      31A     -0.514635    32A     -0.503770    33A     -0.470020
      34A     -0.457612    35A     -0.423700

  @DF-RHF Final Energy:  -457.80400839319810

   => Energetics <=

    Nuclear Repulsion Energy =            452.9505158142401910
    One-Electron Energy =               -1523.5809556573933605
    Two-Electron Energy =                 612.8264314499550665
    Total Energy =                       -457.8040083931981599
  Basis Set: (AUG-CC-PVTZ AUX)
    Blend: AUG-CC-PVTZ-RI
    Molecular point group: c1

    Geometry (in Angstrom), charge = 0, multiplicity = 1:

       Center              X                  Y                   Z               Mass
    ------------   -----------------  -----------------  -----------------  -----------------
         O           -1.290934826186    -0.238257848521     0.341799027828    15.994914619570
         O           -0.183241826186     1.694115151479    -0.112278972172    15.994914619570
         O            2.111246173814    -1.662320848521    -0.358575972172    15.994914619570
         C            0.958103173814    -0.102912848521     1.051221027828    12.000000000000
         C           -2.448681826186     0.317447151479    -0.337118972172    12.000000000000
         C           -0.213784826186     0.572578151479     0.373410027828    12.000000000000
         C            1.991564173814    -0.493640848521    -0.008830972172    12.000000000000
         C           -3.530030826186    -0.735947848521    -0.274214972172    12.000000000000
         C            2.829315173814     0.625698151479    -0.572417972172    12.000000000000
         H            0.618409573814    -1.045470948521     1.595446027828     1.007825032230
         H            1.396071173814     0.614169151479     1.753146027828     1.007825032230
         H           -2.737518826186     1.244254151479     0.165510027828     1.007825032230
         H           -2.165758826186     0.564716151479    -1.363623972172     1.007825032230
         H           -4.431362826186    -0.371685848521    -0.775045972172     1.007825032230
         H           -3.202027826186    -1.651884848521    -0.769802972172     1.007825032230
         H           -3.778823826186    -0.969836848521     0.762942027828     1.007825032230
         H            3.398884173814     0.260352151479    -1.427497972172     1.007825032230
         H            3.520717173814     0.981460151479     0.199694027828     1.007825032230
         H            2.194306173814     1.469061151479    -0.855513972172     1.007825032230

  Basis Set: AUG-CC-PVTZ
    Blend: AUG-CC-PVTZ
  Basis Set: (AUG-CC-PVTZ AUX)
    Blend: AUG-CC-PVTZ-JKFIT
	 Reference Energy          =    -457.8040083931981030 [Eh]
	 Singles Energy            =      -0.0000000000000000 [Eh]
	 Same-Spin Energy          =      -0.4483669172743242 [Eh]
	 Opposite-Spin Energy      =      -1.4398585103685537 [Eh]
	 Correlation Energy        =      -1.8882254276428778 [Eh]
	 Total Energy              =    -459.6922338208409542 [Eh]

	 ================> DF-SCS-MP2 Energies <==================
	-----------------------------------------------------------
	 SCS Same-Spin Scale       =       0.3333333333333333 [-]
	 SCS Opposite-Spin Scale   =       1.2000000000000000 [-]
	 SCS Same-Spin Energy      =      -0.1494556390914414 [Eh]
	 SCS Opposite-Spin Energy  =      -1.7278302124422644 [Eh]
	 SCS Correlation Energy    =      -1.8772858515337059 [Eh]
	 SCS Total Energy          =    -459.6812942447318164 [Eh]
	-----------------------------------------------------------

  Dipole Moment: [D]
     X:    -1.3099      Y:     1.1174      Z:     0.9804     Total:     1.9813

*** Psi4 exiting successfully. Buy a developer a beer!
