                               Psi4 1.3.2 release

  ==> Input File <==

--------------------------------------------------------------------------
#psi4
#
memory 32 gb

molecule  {
0 1
  O       -1.2542770    -0.2468050     0.3469180
  O       -0.1468590     1.6858550    -0.1065980
  O        2.1477990    -1.6706520    -0.3530900
  C        0.9946260    -0.1111920     1.0566790
  C       -2.4120090     0.3089700    -0.3319760
  C       -0.1772750     0.5642190     0.3788660
  C        2.0955698    -0.5274893    -0.0726383
  C       -3.4935710    -0.7441700    -0.2685760
  C        2.8657550     0.6173710    -0.5671120
  H        0.6699150    -1.0123850     1.5771470
  H        1.4326490     0.6059550     1.7585010
  H       -2.7005340     1.2360120     0.1703920
  H       -2.1291700     0.5558430    -1.3586020
  H       -4.3948760    -0.3798980    -0.7694460
  H       -3.1658200    -1.6603590    -0.7638670
  H       -3.7423020    -0.9776200     0.7686940
  H        3.4353450     0.2519410    -1.4221430
  H        3.5571500     0.9732660     0.2049480
  H        2.2307250     1.4606800    -0.8503130
units angstrom
no_reorient  #important for SAPT in psi4, default
symmetry c1  #important for SAPT in psi4, default
}

set PROPERTIES_ORIGIN ["COM"]
properties('MP2/aug-cc-pvtz', properties = ['dipole'])
--------------------------------------------------------------------------

    Molecular point group: c1
  Charge       = 0
  Multiplicity = 1
  Basis Set: AUG-CC-PVTZ
    Blend: AUG-CC-PVTZ
  Basis Set: (AUG-CC-PVTZ AUX)
    Blend: AUG-CC-PVTZ-JKFIT

    Orbital Energies [Eh]
    ---------------------

    Doubly Occupied:

       1A    -20.610489     2A    -20.565239     3A    -20.551739
       4A    -11.392557     5A    -11.350052     6A    -11.293701
       7A    -11.255134     8A    -11.238711     9A    -11.227671
      10A     -1.461488    11A     -1.425277    12A     -1.360532
      13A     -1.070380    14A     -1.041159    15A     -0.992858
      16A     -0.869681    17A     -0.791996    18A     -0.753922
      19A     -0.701851    20A     -0.690797    21A     -0.676680
      22A     -0.656268    23A     -0.648401    24A     -0.612021
      25A     -0.592800    26A     -0.577814    27A     -0.566602
      28A     -0.549779    29A     -0.535538    30A     -0.522407
      31A     -0.518000    32A     -0.511457    33A     -0.465916
      34A     -0.455188    35A     -0.410074

  @DF-RHF Final Energy:  -457.80142794166159

   => Energetics <=

    Nuclear Repulsion Energy =            452.8679789622030967
    One-Electron Energy =               -1523.4504636379663225
    Two-Electron Energy =                 612.7810567341016394
    Total Energy =                       -457.8014279416615864
  Basis Set: (AUG-CC-PVTZ AUX)
    Blend: AUG-CC-PVTZ-RI
    Molecular point group: c1

    Geometry (in Angstrom), charge = 0, multiplicity = 1:

       Center              X                  Y                   Z               Mass
    ------------   -----------------  -----------------  -----------------  -----------------
         O           -1.297144137432    -0.236423325632     0.348078059678    15.994914619570
         O           -0.189726137432     1.696236674368    -0.105437940322    15.994914619570
         O            2.104931862568    -1.660270325632    -0.351929940322    15.994914619570
         C            0.951758862568    -0.100810325632     1.057839059678    12.000000000000
         C           -2.454876137432     0.319351674368    -0.330815940322    12.000000000000
         C           -0.220142137432     0.574600674368     0.380026059678    12.000000000000
         C            2.052702662568    -0.517107625632    -0.071478240322    12.000000000000
         C           -3.536438137432    -0.733788325632    -0.267415940322    12.000000000000
         C            2.822887862568     0.627752674368    -0.565951940322    12.000000000000
         H            0.627047862568    -1.002003325632     1.578307059678     1.007825032230
         H            1.389781862568     0.616336674368     1.759661059678     1.007825032230
         H           -2.743401137432     1.246393674368     0.171552059678     1.007825032230
         H           -2.172037137432     0.566224674368    -1.357441940322     1.007825032230
         H           -4.437743137432    -0.369516325632    -0.768285940322     1.007825032230
         H           -3.208687137432    -1.649977325632    -0.762706940322     1.007825032230
         H           -3.785169137432    -0.967238325632     0.769854059678     1.007825032230
         H            3.392477862568     0.262322674368    -1.420982940322     1.007825032230
         H            3.514282862568     0.983647674368     0.206108059678     1.007825032230
         H            2.187857862568     1.471061674368    -0.849152940322     1.007825032230

  Basis Set: AUG-CC-PVTZ
    Blend: AUG-CC-PVTZ
  Basis Set: (AUG-CC-PVTZ AUX)
    Blend: AUG-CC-PVTZ-JKFIT
	 Reference Energy          =    -457.8014279416615864 [Eh]
	 Singles Energy            =      -0.0000000000000000 [Eh]
	 Same-Spin Energy          =      -0.4474324304646816 [Eh]
	 Opposite-Spin Energy      =      -1.4370559891840851 [Eh]
	 Correlation Energy        =      -1.8844884196487666 [Eh]
	 Total Energy              =    -459.6859163613103760 [Eh]

	 ================> DF-SCS-MP2 Energies <==================
	-----------------------------------------------------------
	 SCS Same-Spin Scale       =       0.3333333333333333 [-]
	 SCS Opposite-Spin Scale   =       1.2000000000000000 [-]
	 SCS Same-Spin Energy      =      -0.1491441434882272 [Eh]
	 SCS Opposite-Spin Energy  =      -1.7244671870209021 [Eh]
	 SCS Correlation Energy    =      -1.8736113305091293 [Eh]
	 SCS Total Energy          =    -459.6750392721706930 [Eh]
	-----------------------------------------------------------

  Dipole Moment: [D]
     X:    -0.7530      Y:     0.9139      Z:     0.6634     Total:     1.3573

*** Psi4 exiting successfully. Buy a developer a beer!
