                               Psi4 1.3.2 release

  ==> Input File <==

--------------------------------------------------------------------------
#psi4
#
memory 32 gb

molecule  {
0 1
  O       -1.2542770    -0.2468050     0.3469180
  O       -0.1468590     1.6858550    -0.1065980
  O        2.1477990    -1.6706520    -0.3530900
  C        0.9946260    -0.1111920     1.0566790
  C       -2.4120090     0.3089700    -0.3319760
  C       -0.1926017     0.4749252     0.3246137
  C        2.0280760    -0.5019680    -0.0034050
  C       -3.4935710    -0.7441700    -0.2685760
  C        2.8657550     0.6173710    -0.5671120
  H        0.6699150    -1.0123850     1.5771470
  H        1.4326490     0.6059550     1.7585010
  H       -2.7005340     1.2360120     0.1703920
  H       -2.1291700     0.5558430    -1.3586020
  H       -4.3948760    -0.3798980    -0.7694460
  H       -3.1658200    -1.6603590    -0.7638670
  H       -3.7423020    -0.9776200     0.7686940
  H        3.4353450     0.2519410    -1.4221430
  H        3.5571500     0.9732660     0.2049480
  H        2.2307250     1.4606800    -0.8503130
units angstrom
no_reorient  #important for SAPT in psi4, default
symmetry c1  #important for SAPT in psi4, default
}

set PROPERTIES_ORIGIN ["COM"]
properties('MP2/aug-cc-pvtz', properties = ['dipole'])
--------------------------------------------------------------------------

    Molecular point group: c1
  Charge       = 0
  Multiplicity = 1
  Basis Set: AUG-CC-PVTZ
    Blend: AUG-CC-PVTZ
  Basis Set: (AUG-CC-PVTZ AUX)
    Blend: AUG-CC-PVTZ-JKFIT

    Orbital Energies [Eh]
    ---------------------

    Doubly Occupied:

       1A    -20.632648     2A    -20.557178     3A    -20.542963
       4A    -11.402500     5A    -11.347863     6A    -11.305554
       7A    -11.262900     8A    -11.235270     9A    -11.233688
      10A     -1.491421    11A     -1.388147    12A     -1.330972
      13A     -1.086322    14A     -1.048194    15A     -0.990271
      16A     -0.889615    17A     -0.807256    18A     -0.757850
      19A     -0.708161    20A     -0.699353    21A     -0.684226
      22A     -0.652228    23A     -0.640231    24A     -0.601654
      25A     -0.589798    26A     -0.573918    27A     -0.565733
      28A     -0.552803    29A     -0.540950    30A     -0.527565
      31A     -0.510857    32A     -0.500462    33A     -0.461406
      34A     -0.449351    35A     -0.420098

  @DF-RHF Final Energy:  -457.79368363062093

   => Energetics <=

    Nuclear Repulsion Energy =            453.5921955935148731
    One-Electron Energy =               -1524.7929396556976371
    Two-Electron Energy =                 613.4070604315618311
    Total Energy =                       -457.7936836306209898
  Basis Set: (AUG-CC-PVTZ AUX)
    Blend: AUG-CC-PVTZ-RI
    Molecular point group: c1

    Geometry (in Angstrom), charge = 0, multiplicity = 1:

       Center              X                  Y                   Z               Mass
    ------------   -----------------  -----------------  -----------------  -----------------
         O           -1.289502870934    -0.230539484461     0.346695867909    15.994914619570
         O           -0.182084870934     1.702120515539    -0.106820132091    15.994914619570
         O            2.112573129066    -1.654386484461    -0.353312132091    15.994914619570
         C            0.959400129066    -0.094926484461     1.056456867909    12.000000000000
         C           -2.447234870934     0.325235515539    -0.332198132091    12.000000000000
         C           -0.227827570934     0.491190715539     0.324391567909    12.000000000000
         C            1.992850129066    -0.485702484461    -0.003627132091    12.000000000000
         C           -3.528796870934    -0.727904484461    -0.268798132091    12.000000000000
         C            2.830529129066     0.633636515539    -0.567334132091    12.000000000000
         H            0.634689129066    -0.996119484461     1.576924867909     1.007825032230
         H            1.397423129066     0.622220515539     1.758278867909     1.007825032230
         H           -2.735759870934     1.252277515539     0.170169867909     1.007825032230
         H           -2.164395870934     0.572108515539    -1.358824132091     1.007825032230
         H           -4.430101870934    -0.363632484461    -0.769668132091     1.007825032230
         H           -3.201045870934    -1.644093484461    -0.764089132091     1.007825032230
         H           -3.777527870934    -0.961354484461     0.768471867909     1.007825032230
         H            3.400119129066     0.268206515539    -1.422365132091     1.007825032230
         H            3.521924129066     0.989531515539     0.204725867909     1.007825032230
         H            2.195499129066     1.476945515539    -0.850535132091     1.007825032230

  Basis Set: AUG-CC-PVTZ
    Blend: AUG-CC-PVTZ
  Basis Set: (AUG-CC-PVTZ AUX)
    Blend: AUG-CC-PVTZ-JKFIT
	 Reference Energy          =    -457.7936836306209329 [Eh]
	 Singles Energy            =      -0.0000000000000000 [Eh]
	 Same-Spin Energy          =      -0.4490830567452663 [Eh]
	 Opposite-Spin Energy      =      -1.4408542422473574 [Eh]
	 Correlation Energy        =      -1.8899372989926237 [Eh]
	 Total Energy              =    -459.6836209296135394 [Eh]

	 ================> DF-SCS-MP2 Energies <==================
	-----------------------------------------------------------
	 SCS Same-Spin Scale       =       0.3333333333333333 [-]
	 SCS Opposite-Spin Scale   =       1.2000000000000000 [-]
	 SCS Same-Spin Energy      =      -0.1496943522484221 [Eh]
	 SCS Opposite-Spin Energy  =      -1.7290250906968287 [Eh]
	 SCS Correlation Energy    =      -1.8787194429452510 [Eh]
	 SCS Total Energy          =    -459.6724030735661586 [Eh]
	-----------------------------------------------------------

  Dipole Moment: [D]
     X:    -1.7925      Y:     0.6930      Z:     0.9789     Total:     2.1568

*** Psi4 exiting successfully. Buy a developer a beer!
