                               Psi4 1.4a3.dev225

  ==> Input File <==

--------------------------------------------------------------------------
#psi4
#
memory 32 gb

molecule  {
0 1
  O       -1.2544100    -0.2466020     0.3472100
  O       -0.1467170     1.6857710    -0.1068680
  O        2.1477710    -1.6706650    -0.3531650
  C        0.9946280    -0.1112570     1.0566320
  C       -2.4121570     0.3091030    -0.3317080
  C       -0.1772600     0.5642340     0.3788210
  C        2.0280890    -0.5019850    -0.0034200
  C       -3.4935060    -0.7442920    -0.2688040
  C        2.8658400     0.6173540    -0.5670070
  H        0.6757896    -0.9959474     1.5674446
  H        1.4325960     0.6058250     1.7585570
  H       -2.7009940     1.2359100     0.1709210
  H       -2.1292340     0.5563720    -1.3582130
  H       -4.3948380    -0.3800300    -0.7696350
  H       -3.1655030    -1.6602290    -0.7643920
  H       -3.7422990    -0.9781810     0.7683530
  H        3.4354090     0.2520080    -1.4220870
  H        3.5572420     0.9731160     0.2051050
  H        2.2308310     1.4607170    -0.8501030
units angstrom
no_reorient  #important for SAPT in psi4, default
symmetry c1  #important for SAPT in psi4, default
}

set PROPERTIES_ORIGIN ["COM"]
properties('MP2/aug-cc-pvtz', properties = ['dipole'])
--------------------------------------------------------------------------

    Molecular point group: c1
  Charge       = 0
  Multiplicity = 1
  Basis Set: AUG-CC-PVTZ
    Blend: AUG-CC-PVTZ
  Basis Set: (AUG-CC-PVTZ AUX)
    Blend: AUG-CC-PVTZ-JKFIT

    Orbital Energies [Eh]
    ---------------------

    Doubly Occupied:

       1A    -20.615821     2A    -20.558651     3A    -20.558479
       4A    -11.400292     5A    -11.349577     6A    -11.297057
       7A    -11.261172     8A    -11.236319     9A    -11.229925
      10A     -1.467154    11A     -1.389029    12A     -1.366387
      13A     -1.083253    14A     -1.040857    15A     -0.991800
      16A     -0.876466    17A     -0.799670    18A     -0.756678
      19A     -0.710671    20A     -0.693817    21A     -0.679523
      22A     -0.652546    23A     -0.643868    24A     -0.603029
      25A     -0.588293    26A     -0.576399    27A     -0.569241
      28A     -0.551698    29A     -0.540208    30A     -0.522016
      31A     -0.514577    32A     -0.503879    33A     -0.470059
      34A     -0.457951    35A     -0.423494

  @DF-RHF Final Energy:  -457.80650964538529

   => Energetics <=

    Nuclear Repulsion Energy =            453.2928345544882518
    One-Electron Energy =               -1524.2389791714047078
    Two-Electron Energy =                 613.1396349715311089
    Total Energy =                       -457.8065096453852902
  Basis Set: (AUG-CC-PVTZ AUX)
    Blend: AUG-CC-PVTZ-RI
    Molecular point group: c1

    Geometry (in Angstrom), charge = 0, multiplicity = 1:

       Center              X                  Y                   Z               Mass
    ------------   -----------------  -----------------  -----------------  -----------------
         O           -1.291096427822    -0.238706250597     0.342057932010    15.994914619570
         O           -0.183403427822     1.693666749403    -0.112020067990    15.994914619570
         O            2.111084572178    -1.662769250597    -0.358317067990    15.994914619570
         C            0.957941572178    -0.103361250597     1.051479932010    12.000000000000
         C           -2.448843427822     0.316998749403    -0.336860067990    12.000000000000
         C           -0.213946427822     0.572129749403     0.373668932010    12.000000000000
         C            1.991402572178    -0.494089250597    -0.008572067990    12.000000000000
         C           -3.530192427822    -0.736396250597    -0.273956067990    12.000000000000
         C            2.829153572178     0.625249749403    -0.572159067990    12.000000000000
         H            0.639103172178    -0.988051650597     1.562292532010     1.007825032230
         H            1.395909572178     0.613720749403     1.753404932010     1.007825032230
         H           -2.737680427822     1.243805749403     0.165768932010     1.007825032230
         H           -2.165920427822     0.564267749403    -1.363365067990     1.007825032230
         H           -4.431524427822    -0.372134250597    -0.774787067990     1.007825032230
         H           -3.202189427822    -1.652333250597    -0.769544067990     1.007825032230
         H           -3.778985427822    -0.970285250597     0.763200932010     1.007825032230
         H            3.398722572178     0.259903749403    -1.427239067990     1.007825032230
         H            3.520555572178     0.981011749403     0.199952932010     1.007825032230
         H            2.194144572178     1.468612749403    -0.855255067990     1.007825032230

  Basis Set: AUG-CC-PVTZ
    Blend: AUG-CC-PVTZ
  Basis Set: (AUG-CC-PVTZ AUX)
    Blend: AUG-CC-PVTZ-JKFIT
	 Reference Energy          =    -457.8065096453852902 [Eh]
	 Singles Energy            =      -0.0000000000000000 [Eh]
	 Same-Spin Energy          =      -0.4482391061171432 [Eh]
	 Opposite-Spin Energy      =      -1.4392507025340859 [Eh]
	 Correlation Energy        =      -1.8874898086512291 [Eh]
	 Total Energy              =    -459.6939994540365433 [Eh]

	 ================> DF-SCS-MP2 Energies <==================
	-----------------------------------------------------------
	 SCS Same-Spin Scale       =       0.3333333333333333 [-]
	 SCS Opposite-Spin Scale   =       1.2000000000000000 [-]
	 SCS Same-Spin Energy      =      -0.1494130353723810 [Eh]
	 SCS Opposite-Spin Energy  =      -1.7271008430409032 [Eh]
	 SCS Correlation Energy    =      -1.8765138784132842 [Eh]
	 SCS Total Energy          =    -459.6830235237985676 [Eh]
	-----------------------------------------------------------

  Dipole Moment: [D]
     X:    -1.3111      Y:     1.1165      Z:     0.9912     Total:     1.9870

*** Psi4 exiting successfully. Buy a developer a beer!
