                               Psi4 1.4a3.dev225

  ==> Input File <==

--------------------------------------------------------------------------
#psi4
#
memory 32 gb

molecule  {
0 1
  O       -1.2544100    -0.2466020     0.3472100
  O       -0.1467170     1.6857710    -0.1068680
  O        2.1477710    -1.6706650    -0.3531650
  C        0.9946280    -0.1112570     1.0566320
  C       -2.4121570     0.3091030    -0.3317080
  C       -0.1772600     0.5642340     0.3788210
  C        2.0145899    -0.4968813     0.0104265
  C       -3.4935060    -0.7442920    -0.2688040
  C        2.8658400     0.6173540    -0.5670070
  H        0.6698310    -1.0124810     1.5769910
  H        1.4325960     0.6058250     1.7585570
  H       -2.7009940     1.2359100     0.1709210
  H       -2.1292340     0.5563720    -1.3582130
  H       -4.3948380    -0.3800300    -0.7696350
  H       -3.1655030    -1.6602290    -0.7643920
  H       -3.7422990    -0.9781810     0.7683530
  H        3.4354090     0.2520080    -1.4220870
  H        3.5572420     0.9731160     0.2051050
  H        2.2308310     1.4607170    -0.8501030
units angstrom
no_reorient  #important for SAPT in psi4, default
symmetry c1  #important for SAPT in psi4, default
}

set PROPERTIES_ORIGIN ["COM"]
properties('MP2/aug-cc-pvtz', properties = ['dipole'])
--------------------------------------------------------------------------

    Molecular point group: c1
  Charge       = 0
  Multiplicity = 1
  Basis Set: AUG-CC-PVTZ
    Blend: AUG-CC-PVTZ
  Basis Set: (AUG-CC-PVTZ AUX)
    Blend: AUG-CC-PVTZ-JKFIT

    Orbital Energies [Eh]
    ---------------------

    Doubly Occupied:

       1A    -20.616744     2A    -20.559855     3A    -20.557561
       4A    -11.401919     5A    -11.349945     6A    -11.297631
       7A    -11.264379     8A    -11.236313     9A    -11.230318
      10A     -1.468207    11A     -1.381871    12A     -1.367499
      13A     -1.085725    14A     -1.041424    15A     -0.989936
      16A     -0.877698    17A     -0.801217    18A     -0.757298
      19A     -0.710791    20A     -0.694511    21A     -0.680073
      22A     -0.651843    23A     -0.642566    24A     -0.601334
      25A     -0.586765    26A     -0.574690    27A     -0.569385
      28A     -0.552183    29A     -0.539902    30A     -0.522584
      31A     -0.514992    32A     -0.500833    33A     -0.470791
      34A     -0.457761    35A     -0.424925

  @DF-RHF Final Energy:  -457.80476111721947

   => Energetics <=

    Nuclear Repulsion Energy =            453.2652160637878751
    One-Electron Energy =               -1524.1770174094338017
    Two-Electron Energy =                 613.1070402284265128
    Total Energy =                       -457.8047611172194138
  Basis Set: (AUG-CC-PVTZ AUX)
    Blend: AUG-CC-PVTZ-RI
    Molecular point group: c1

    Geometry (in Angstrom), charge = 0, multiplicity = 1:

       Center              X                  Y                   Z               Mass
    ------------   -----------------  -----------------  -----------------  -----------------
         O           -1.289804788895    -0.239049018533     0.340706439974    15.994914619570
         O           -0.182111788895     1.693323981467    -0.113371560026    15.994914619570
         O            2.112376211105    -1.663112018533    -0.359668560026    15.994914619570
         C            0.959233211105    -0.103704018533     1.050128439974    12.000000000000
         C           -2.447551788895     0.316655981467    -0.338211560026    12.000000000000
         C           -0.212654788895     0.571786981467     0.372317439974    12.000000000000
         C            1.979195111105    -0.489328318533     0.003922939974    12.000000000000
         C           -3.528900788895    -0.736739018533    -0.275307560026    12.000000000000
         C            2.830445211105     0.624906981467    -0.573510560026    12.000000000000
         H            0.634436211105    -1.004928018533     1.570487439974     1.007825032230
         H            1.397201211105     0.613377981467     1.752053439974     1.007825032230
         H           -2.736388788895     1.243462981467     0.164417439974     1.007825032230
         H           -2.164628788895     0.563924981467    -1.364716560026     1.007825032230
         H           -4.430232788895    -0.372477018533    -0.776138560026     1.007825032230
         H           -3.200897788895    -1.652676018533    -0.770895560026     1.007825032230
         H           -3.777693788895    -0.970628018533     0.761849439974     1.007825032230
         H            3.400014211105     0.259560981467    -1.428590560026     1.007825032230
         H            3.521847211105     0.980668981467     0.198601439974     1.007825032230
         H            2.195436211105     1.468269981467    -0.856606560026     1.007825032230

  Basis Set: AUG-CC-PVTZ
    Blend: AUG-CC-PVTZ
  Basis Set: (AUG-CC-PVTZ AUX)
    Blend: AUG-CC-PVTZ-JKFIT
	 Reference Energy          =    -457.8047611172194706 [Eh]
	 Singles Energy            =      -0.0000000000000000 [Eh]
	 Same-Spin Energy          =      -0.4485800538525764 [Eh]
	 Opposite-Spin Energy      =      -1.4401252038019599 [Eh]
	 Correlation Energy        =      -1.8887052576545362 [Eh]
	 Total Energy              =    -459.6934663748739922 [Eh]

	 ================> DF-SCS-MP2 Energies <==================
	-----------------------------------------------------------
	 SCS Same-Spin Scale       =       0.3333333333333333 [-]
	 SCS Opposite-Spin Scale   =       1.2000000000000000 [-]
	 SCS Same-Spin Energy      =      -0.1495266846175255 [Eh]
	 SCS Opposite-Spin Energy  =      -1.7281502445623518 [Eh]
	 SCS Correlation Energy    =      -1.8776769291798772 [Eh]
	 SCS Total Energy          =    -459.6824380463993407 [Eh]
	-----------------------------------------------------------

  Dipole Moment: [D]
     X:    -1.4102      Y:     1.1512      Z:     1.0451     Total:     2.0991

*** Psi4 exiting successfully. Buy a developer a beer!
