                               Psi4 1.3.2 release

  ==> Input File <==

--------------------------------------------------------------------------
#psi4
#
memory 32 gb

molecule  {
0 1
  O       -1.2542770    -0.2468050     0.3469180
  O       -0.1468590     1.6858550    -0.1065980
  O        2.1477990    -1.6706520    -0.3530900
  C        0.9946260    -0.1111920     1.0566790
  C       -2.4120090     0.3089700    -0.3319760
  C       -0.1772750     0.5642190     0.3788660
  C        2.0100050    -0.5180544    -0.0147552
  C       -3.4935710    -0.7441700    -0.2685760
  C        2.8657550     0.6173710    -0.5671120
  H        0.6699150    -1.0123850     1.5771470
  H        1.4326490     0.6059550     1.7585010
  H       -2.7005340     1.2360120     0.1703920
  H       -2.1291700     0.5558430    -1.3586020
  H       -4.3948760    -0.3798980    -0.7694460
  H       -3.1658200    -1.6603590    -0.7638670
  H       -3.7423020    -0.9776200     0.7686940
  H        3.4353450     0.2519410    -1.4221430
  H        3.5571500     0.9732660     0.2049480
  H        2.2307250     1.4606800    -0.8503130
units angstrom
no_reorient  #important for SAPT in psi4, default
symmetry c1  #important for SAPT in psi4, default
}

set PROPERTIES_ORIGIN ["COM"]
properties('MP2/aug-cc-pvtz', properties = ['dipole'])
--------------------------------------------------------------------------

    Molecular point group: c1
  Charge       = 0
  Multiplicity = 1
  Basis Set: AUG-CC-PVTZ
    Blend: AUG-CC-PVTZ
  Basis Set: (AUG-CC-PVTZ AUX)
    Blend: AUG-CC-PVTZ-JKFIT

    Orbital Energies [Eh]
    ---------------------

    Doubly Occupied:

       1A    -20.615600     2A    -20.560106     3A    -20.558310
       4A    -11.399958     5A    -11.348342     6A    -11.296949
       7A    -11.262628     8A    -11.235284     9A    -11.229931
      10A     -1.466997    11A     -1.400553    12A     -1.366226
      13A     -1.081771    14A     -1.039390    15A     -0.987340
      16A     -0.876104    17A     -0.799319    18A     -0.756444
      19A     -0.709199    20A     -0.693866    21A     -0.679731
      22A     -0.654078    23A     -0.643646    24A     -0.602401
      25A     -0.588063    26A     -0.576730    27A     -0.569040
      28A     -0.551633    29A     -0.538234    30A     -0.522026
      31A     -0.514704    32A     -0.509618    33A     -0.469883
      34A     -0.458351    35A     -0.420915

  @DF-RHF Final Energy:  -457.80743144642520

   => Energetics <=

    Nuclear Repulsion Energy =            453.3938229894725396
    One-Electron Energy =               -1524.4357739882677834
    Two-Electron Energy =                 613.2345195523701022
    Total Energy =                       -457.8074314464251984
  Basis Set: (AUG-CC-PVTZ AUX)
    Blend: AUG-CC-PVTZ-RI
    Molecular point group: c1

    Geometry (in Angstrom), charge = 0, multiplicity = 1:

       Center              X                  Y                   Z               Mass
    ------------   -----------------  -----------------  -----------------  -----------------
         O           -1.289249673626    -0.237293817663     0.342737592127    15.994914619570
         O           -0.181831673626     1.695366182337    -0.110778407873    15.994914619570
         O            2.112826326374    -1.661140817663    -0.357270407873    15.994914619570
         C            0.959653326374    -0.101680817663     1.052498592127    12.000000000000
         C           -2.446981673626     0.318481182337    -0.336156407873    12.000000000000
         C           -0.212247673626     0.573730182337     0.374685592127    12.000000000000
         C            1.975032326374    -0.508543217663    -0.018935607873    12.000000000000
         C           -3.528543673626    -0.734658817663    -0.272756407873    12.000000000000
         C            2.830782326374     0.626882182337    -0.571292407873    12.000000000000
         H            0.634942326374    -1.002873817663     1.572966592127     1.007825032230
         H            1.397676326374     0.615466182337     1.754320592127     1.007825032230
         H           -2.735506673626     1.245523182337     0.166211592127     1.007825032230
         H           -2.164142673626     0.565354182337    -1.362782407873     1.007825032230
         H           -4.429848673626    -0.370386817663    -0.773626407873     1.007825032230
         H           -3.200792673626    -1.650847817663    -0.768047407873     1.007825032230
         H           -3.777274673626    -0.968108817663     0.764513592127     1.007825032230
         H            3.400372326374     0.261452182337    -1.426323407873     1.007825032230
         H            3.522177326374     0.982777182337     0.200767592127     1.007825032230
         H            2.195752326374     1.470191182337    -0.854493407873     1.007825032230

  Basis Set: AUG-CC-PVTZ
    Blend: AUG-CC-PVTZ
  Basis Set: (AUG-CC-PVTZ AUX)
    Blend: AUG-CC-PVTZ-JKFIT
	 Reference Energy          =    -457.8074314464251984 [Eh]
	 Singles Energy            =      -0.0000000000000000 [Eh]
	 Same-Spin Energy          =      -0.4478076775129739 [Eh]
	 Opposite-Spin Energy      =      -1.4384790627160795 [Eh]
	 Correlation Energy        =      -1.8862867402290533 [Eh]
	 Total Energy              =    -459.6937181866542232 [Eh]

	 ================> DF-SCS-MP2 Energies <==================
	-----------------------------------------------------------
	 SCS Same-Spin Scale       =       0.3333333333333333 [-]
	 SCS Opposite-Spin Scale   =       1.2000000000000000 [-]
	 SCS Same-Spin Energy      =      -0.1492692258376579 [Eh]
	 SCS Opposite-Spin Energy  =      -1.7261748752592954 [Eh]
	 SCS Correlation Energy    =      -1.8754441010969534 [Eh]
	 SCS Total Energy          =    -459.6828755475221442 [Eh]
	-----------------------------------------------------------

  Dipole Moment: [D]
     X:    -1.3383      Y:     1.0244      Z:     0.9913     Total:     1.9553

*** Psi4 exiting successfully. Buy a developer a beer!
