                               Psi4 1.3.2 release

  ==> Input File <==

--------------------------------------------------------------------------
#psi4
#
memory 32 gb

molecule  {
0 1
  O       -1.2542770    -0.2468050     0.3469180
  O       -0.1468590     1.6858550    -0.1065980
  O        2.1477990    -1.6706520    -0.3530900
  C        0.9946260    -0.1111920     1.0566790
  C       -2.4120090     0.3089700    -0.3319760
  C       -0.1772750     0.5642190     0.3788660
  C        2.0280760    -0.5019680    -0.0034050
  C       -3.4935710    -0.7441700    -0.2685760
  C        2.8657550     0.6173710    -0.5671120
  H        0.6997003    -0.9297197     1.5294051
  H        1.4326490     0.6059550     1.7585010
  H       -2.7005340     1.2360120     0.1703920
  H       -2.1291700     0.5558430    -1.3586020
  H       -4.3948760    -0.3798980    -0.7694460
  H       -3.1658200    -1.6603590    -0.7638670
  H       -3.7423020    -0.9776200     0.7686940
  H        3.4353450     0.2519410    -1.4221430
  H        3.5571500     0.9732660     0.2049480
  H        2.2307250     1.4606800    -0.8503130
units angstrom
no_reorient  #important for SAPT in psi4, default
symmetry c1  #important for SAPT in psi4, default
}

set PROPERTIES_ORIGIN ["COM"]
properties('MP2/aug-cc-pvtz', properties = ['dipole'])
--------------------------------------------------------------------------

    Molecular point group: c1
  Charge       = 0
  Multiplicity = 1
  Basis Set: AUG-CC-PVTZ
    Blend: AUG-CC-PVTZ
  Basis Set: (AUG-CC-PVTZ AUX)
    Blend: AUG-CC-PVTZ-JKFIT

    Orbital Energies [Eh]
    ---------------------

    Doubly Occupied:

       1A    -20.616041     2A    -20.558852     3A    -20.558098
       4A    -11.399917     5A    -11.349415     6A    -11.297208
       7A    -11.252498     8A    -11.235963     9A    -11.229991
      10A     -1.467218    11A     -1.389289    12A     -1.366211
      13A     -1.087319    14A     -1.041232    15A     -0.994593
      16A     -0.877122    17A     -0.799821    18A     -0.758438
      19A     -0.717356    20A     -0.693919    21A     -0.679649
      22A     -0.653477    23A     -0.647890    24A     -0.604381
      25A     -0.590366    26A     -0.578103    27A     -0.569256
      28A     -0.552165    29A     -0.543480    30A     -0.522139
      31A     -0.514532    32A     -0.504012    33A     -0.470114
      34A     -0.458250    35A     -0.423345

  @DF-RHF Final Energy:  -457.80059444425353

   => Energetics <=

    Nuclear Repulsion Energy =            453.7191823836875528
    One-Electron Energy =               -1525.0362333881098493
    Two-Electron Energy =                 613.5164565601688764
    Total Energy =                       -457.8005944442535338
  Basis Set: (AUG-CC-PVTZ AUX)
    Blend: AUG-CC-PVTZ-RI
    Molecular point group: c1

    Geometry (in Angstrom), charge = 0, multiplicity = 1:

       Center              X                  Y                   Z               Mass
    ------------   -----------------  -----------------  -----------------  -----------------
         O           -1.291147756724    -0.239418549301     0.342060328631    15.994914619570
         O           -0.183729756724     1.693241450699    -0.111455671369    15.994914619570
         O            2.110928243276    -1.663265549301    -0.357947671369    15.994914619570
         C            0.957755243276    -0.103805549301     1.051821328631    12.000000000000
         C           -2.448879756724     0.316356450699    -0.336833671369    12.000000000000
         C           -0.214145756724     0.571605450699     0.374008328631    12.000000000000
         C            1.991205243276    -0.494581549301    -0.008262671369    12.000000000000
         C           -3.530441756724    -0.736783549301    -0.273433671369    12.000000000000
         C            2.828884243276     0.624757450699    -0.571969671369    12.000000000000
         H            0.662829543276    -0.922333249301     1.524547428631     1.007825032230
         H            1.395778243276     0.613341450699     1.753643328631     1.007825032230
         H           -2.737404756724     1.243398450699     0.165534328631     1.007825032230
         H           -2.166040756724     0.563229450699    -1.363459671369     1.007825032230
         H           -4.431746756724    -0.372511549301    -0.774303671369     1.007825032230
         H           -3.202690756724    -1.652972549301    -0.768724671369     1.007825032230
         H           -3.779172756724    -0.970233549301     0.763836328631     1.007825032230
         H            3.398474243276     0.259327450699    -1.427000671369     1.007825032230
         H            3.520279243276     0.980652450699     0.200090328631     1.007825032230
         H            2.193854243276     1.468066450699    -0.855170671369     1.007825032230

  Basis Set: AUG-CC-PVTZ
    Blend: AUG-CC-PVTZ
  Basis Set: (AUG-CC-PVTZ AUX)
    Blend: AUG-CC-PVTZ-JKFIT
	 Reference Energy          =    -457.8005944442535338 [Eh]
	 Singles Energy            =      -0.0000000000000000 [Eh]
	 Same-Spin Energy          =      -0.4481374271656111 [Eh]
	 Opposite-Spin Energy      =      -1.4387660998596601 [Eh]
	 Correlation Energy        =      -1.8869035270252712 [Eh]
	 Total Energy              =    -459.6874979712787876 [Eh]

	 ================> DF-SCS-MP2 Energies <==================
	-----------------------------------------------------------
	 SCS Same-Spin Scale       =       0.3333333333333333 [-]
	 SCS Opposite-Spin Scale   =       1.2000000000000000 [-]
	 SCS Same-Spin Energy      =      -0.1493791423885370 [Eh]
	 SCS Opposite-Spin Energy  =      -1.7265193198315920 [Eh]
	 SCS Correlation Energy    =      -1.8758984622201291 [Eh]
	 SCS Total Energy          =    -459.6764929064736407 [Eh]
	-----------------------------------------------------------

  Dipole Moment: [D]
     X:    -1.3110      Y:     1.1191      Z:     0.9981     Total:     1.9918

*** Psi4 exiting successfully. Buy a developer a beer!
