                               Psi4 1.4a3.dev225

  ==> Input File <==

--------------------------------------------------------------------------
#psi4
#
memory 32 gb

molecule  {
0 1
  O       -1.2544100    -0.2466020     0.3472100
  O       -0.1467170     1.6857710    -0.1068680
  O        2.1477710    -1.6706650    -0.3531650
  C        0.9946280    -0.1112570     1.0566320
  C       -2.4121570     0.3091030    -0.3317080
  C       -0.1772600     0.5642340     0.3788210
  C        2.0618369    -0.5147443    -0.0380362
  C       -3.4935060    -0.7442920    -0.2688040
  C        2.8658400     0.6173540    -0.5670070
  H        0.6698310    -1.0124810     1.5769910
  H        1.4325960     0.6058250     1.7585570
  H       -2.7009940     1.2359100     0.1709210
  H       -2.1292340     0.5563720    -1.3582130
  H       -4.3948380    -0.3800300    -0.7696350
  H       -3.1655030    -1.6602290    -0.7643920
  H       -3.7422990    -0.9781810     0.7683530
  H        3.4354090     0.2520080    -1.4220870
  H        3.5572420     0.9731160     0.2051050
  H        2.2308310     1.4607170    -0.8501030
units angstrom
no_reorient  #important for SAPT in psi4, default
symmetry c1  #important for SAPT in psi4, default
}

set PROPERTIES_ORIGIN ["COM"]
properties('MP2/aug-cc-pvtz', properties = ['dipole'])
--------------------------------------------------------------------------

    Molecular point group: c1
  Charge       = 0
  Multiplicity = 1
  Basis Set: AUG-CC-PVTZ
    Blend: AUG-CC-PVTZ
  Basis Set: (AUG-CC-PVTZ AUX)
    Blend: AUG-CC-PVTZ-JKFIT

    Orbital Energies [Eh]
    ---------------------

    Doubly Occupied:

       1A    -20.613229     2A    -20.561567     3A    -20.555295
       4A    -11.396566     5A    -11.349363     6A    -11.295426
       7A    -11.259798     8A    -11.237174     9A    -11.228837
      10A     -1.464402    11A     -1.406994    12A     -1.363606
      13A     -1.075532    14A     -1.040125    15A     -0.993107
      16A     -0.872976    17A     -0.795790    18A     -0.754651
      19A     -0.705505    20A     -0.692188    21A     -0.678074
      22A     -0.654161    23A     -0.644662    24A     -0.607015
      25A     -0.590663    26A     -0.577456    27A     -0.568189
      28A     -0.550433    29A     -0.537199    30A     -0.520524
      31A     -0.514315    32A     -0.511181    33A     -0.468080
      34A     -0.457110    35A     -0.418156

  @DF-RHF Final Energy:  -457.80652357439675

   => Energetics <=

    Nuclear Repulsion Energy =            453.0232944153599419
    One-Electron Energy =               -1523.7409340544418228
    Two-Electron Energy =                 612.9111160646851886
    Total Energy =                       -457.8065235743966923
  Basis Set: (AUG-CC-PVTZ AUX)
    Blend: AUG-CC-PVTZ-RI
    Molecular point group: c1

    Geometry (in Angstrom), charge = 0, multiplicity = 1:

       Center              X                  Y                   Z               Mass
    ------------   -----------------  -----------------  -----------------  -----------------
         O           -1.294163938118    -0.237400924843     0.345177753307    15.994914619570
         O           -0.186470938118     1.694972075157    -0.108900246693    15.994914619570
         O            2.108017061882    -1.661463924843    -0.355197246693    15.994914619570
         C            0.954874061882    -0.102055924843     1.054599753307    12.000000000000
         C           -2.451910938118     0.318304075157    -0.333740246693    12.000000000000
         C           -0.217013938118     0.573435075157     0.376788753307    12.000000000000
         C            2.022082961882    -0.505543224843    -0.040068446693    12.000000000000
         C           -3.533259938118    -0.735090924843    -0.270836246693    12.000000000000
         C            2.826086061882     0.626555075157    -0.569039246693    12.000000000000
         H            0.630077061882    -1.003279924843     1.574958753307     1.007825032230
         H            1.392842061882     0.615026075157     1.756524753307     1.007825032230
         H           -2.740747938118     1.245111075157     0.168888753307     1.007825032230
         H           -2.168987938118     0.565573075157    -1.360245246693     1.007825032230
         H           -4.434591938118    -0.370828924843    -0.771667246693     1.007825032230
         H           -3.205256938118    -1.651027924843    -0.766424246693     1.007825032230
         H           -3.782052938118    -0.968979924843     0.766320753307     1.007825032230
         H            3.395655061882     0.261209075157    -1.424119246693     1.007825032230
         H            3.517488061882     0.982317075157     0.203072753307     1.007825032230
         H            2.191077061882     1.469918075157    -0.852135246693     1.007825032230

  Basis Set: AUG-CC-PVTZ
    Blend: AUG-CC-PVTZ
  Basis Set: (AUG-CC-PVTZ AUX)
    Blend: AUG-CC-PVTZ-JKFIT
	 Reference Energy          =    -457.8065235743967492 [Eh]
	 Singles Energy            =      -0.0000000000000000 [Eh]
	 Same-Spin Energy          =      -0.4477100092704397 [Eh]
	 Opposite-Spin Energy      =      -1.4379826374154487 [Eh]
	 Correlation Energy        =      -1.8856926466858885 [Eh]
	 Total Energy              =    -459.6922162210826173 [Eh]

	 ================> DF-SCS-MP2 Energies <==================
	-----------------------------------------------------------
	 SCS Same-Spin Scale       =       0.3333333333333333 [-]
	 SCS Opposite-Spin Scale   =       1.2000000000000000 [-]
	 SCS Same-Spin Energy      =      -0.1492366697568132 [Eh]
	 SCS Opposite-Spin Energy  =      -1.7255791648985384 [Eh]
	 SCS Correlation Energy    =      -1.8748158346553516 [Eh]
	 SCS Total Energy          =    -459.6813394090521001 [Eh]
	-----------------------------------------------------------

  Dipole Moment: [D]
     X:    -1.0461      Y:     1.0218      Z:     0.8356     Total:     1.6842

*** Psi4 exiting successfully. Buy a developer a beer!
