                               Psi4 1.3.2 release

  ==> Input File <==

--------------------------------------------------------------------------
#psi4
#
memory 32 gb

molecule  {
0 1
  O       -1.2542770    -0.2468050     0.3469180
  O       -0.1468590     1.6858550    -0.1065980
  O        2.1477990    -1.6706520    -0.3530900
  C        0.9946260    -0.1111920     1.0566790
  C       -2.4120090     0.3089700    -0.3319760
  C       -0.2001347     0.5699206     0.4261277
  C        2.0280760    -0.5019680    -0.0034050
  C       -3.4935710    -0.7441700    -0.2685760
  C        2.8657550     0.6173710    -0.5671120
  H        0.6699150    -1.0123850     1.5771470
  H        1.4326490     0.6059550     1.7585010
  H       -2.7005340     1.2360120     0.1703920
  H       -2.1291700     0.5558430    -1.3586020
  H       -4.3948760    -0.3798980    -0.7694460
  H       -3.1658200    -1.6603590    -0.7638670
  H       -3.7423020    -0.9776200     0.7686940
  H        3.4353450     0.2519410    -1.4221430
  H        3.5571500     0.9732660     0.2049480
  H        2.2307250     1.4606800    -0.8503130
units angstrom
no_reorient  #important for SAPT in psi4, default
symmetry c1  #important for SAPT in psi4, default
}

set PROPERTIES_ORIGIN ["COM"]
properties('MP2/aug-cc-pvtz', properties = ['dipole'])
--------------------------------------------------------------------------

    Molecular point group: c1
  Charge       = 0
  Multiplicity = 1
  Basis Set: AUG-CC-PVTZ
    Blend: AUG-CC-PVTZ
  Basis Set: (AUG-CC-PVTZ AUX)
    Blend: AUG-CC-PVTZ-JKFIT

    Orbital Energies [Eh]
    ---------------------

    Doubly Occupied:

       1A    -20.619262     2A    -20.558846     3A    -20.555383
       4A    -11.401227     5A    -11.350105     6A    -11.298703
       7A    -11.263240     8A    -11.235702     9A    -11.230964
      10A     -1.469621    11A     -1.389019    12A     -1.359169
      13A     -1.082339    14A     -1.042164    15A     -0.991147
      16A     -0.879030    17A     -0.801508    18A     -0.757727
      19A     -0.706663    20A     -0.695166    21A     -0.678959
      22A     -0.651879    23A     -0.642155    24A     -0.602490
      25A     -0.587471    26A     -0.575514    27A     -0.568612
      28A     -0.550439    29A     -0.539532    30A     -0.523168
      31A     -0.512683    32A     -0.503043    33A     -0.469080
      34A     -0.455987    35A     -0.424224

  @DF-RHF Final Energy:  -457.80397624970135

   => Energetics <=

    Nuclear Repulsion Energy =            452.9228470883575142
    One-Electron Energy =               -1523.5092083647168693
    Two-Electron Energy =                 612.7823850266580621
    Total Energy =                       -457.8039762497013498
  Basis Set: (AUG-CC-PVTZ AUX)
    Blend: AUG-CC-PVTZ-RI
    Molecular point group: c1

    Geometry (in Angstrom), charge = 0, multiplicity = 1:

       Center              X                  Y                   Z               Mass
    ------------   -----------------  -----------------  -----------------  -----------------
         O           -1.288807853873    -0.239304043567     0.337329883313    15.994914619570
         O           -0.181389853873     1.693355956433    -0.116186116687    15.994914619570
         O            2.113268146127    -1.663151043567    -0.362678116687    15.994914619570
         C            0.960095146127    -0.103691043567     1.047090883313    12.000000000000
         C           -2.446539853873     0.316470956433    -0.341564116687    12.000000000000
         C           -0.234665553873     0.577421556433     0.416539583313    12.000000000000
         C            1.993545146127    -0.494467043567    -0.012993116687    12.000000000000
         C           -3.528101853873    -0.736669043567    -0.278164116687    12.000000000000
         C            2.831224146127     0.624871956433    -0.576700116687    12.000000000000
         H            0.635384146127    -1.004884043567     1.567558883313     1.007825032230
         H            1.398118146127     0.613455956433     1.748912883313     1.007825032230
         H           -2.735064853873     1.243512956433     0.160803883313     1.007825032230
         H           -2.163700853873     0.563343956433    -1.368190116687     1.007825032230
         H           -4.429406853873    -0.372397043567    -0.779034116687     1.007825032230
         H           -3.200350853873    -1.652858043567    -0.773455116687     1.007825032230
         H           -3.776832853873    -0.970119043567     0.759105883313     1.007825032230
         H            3.400814146127     0.259441956433    -1.431731116687     1.007825032230
         H            3.522619146127     0.980766956433     0.195359883313     1.007825032230
         H            2.196194146127     1.468180956433    -0.859901116687     1.007825032230

  Basis Set: AUG-CC-PVTZ
    Blend: AUG-CC-PVTZ
  Basis Set: (AUG-CC-PVTZ AUX)
    Blend: AUG-CC-PVTZ-JKFIT
	 Reference Energy          =    -457.8039762497013498 [Eh]
	 Singles Energy            =      -0.0000000000000000 [Eh]
	 Same-Spin Energy          =      -0.4484836513926578 [Eh]
	 Opposite-Spin Energy      =      -1.4398943894237539 [Eh]
	 Correlation Energy        =      -1.8883780408164117 [Eh]
	 Total Energy              =    -459.6923542905177555 [Eh]

	 ================> DF-SCS-MP2 Energies <==================
	-----------------------------------------------------------
	 SCS Same-Spin Scale       =       0.3333333333333333 [-]
	 SCS Opposite-Spin Scale   =       1.2000000000000000 [-]
	 SCS Same-Spin Energy      =      -0.1494945504642193 [Eh]
	 SCS Opposite-Spin Energy  =      -1.7278732673085047 [Eh]
	 SCS Correlation Energy    =      -1.8773678177727240 [Eh]
	 SCS Total Energy          =    -459.6813440674740718 [Eh]
	-----------------------------------------------------------

  Dipole Moment: [D]
     X:    -1.4174      Y:     1.0372      Z:     1.0204     Total:     2.0313

*** Psi4 exiting successfully. Buy a developer a beer!
