                               Psi4 1.3.2 release

  ==> Input File <==

--------------------------------------------------------------------------
#psi4
#
memory 32 gb

molecule  {
0 1
  O       -1.2542770    -0.2468050     0.3469180
  O       -0.1468590     1.6858550    -0.1065980
  O        2.1477990    -1.6706520    -0.3530900
  C        0.9946260    -0.1111920     1.0566790
  C       -2.4120090     0.3089700    -0.3319760
  C       -0.1772750     0.5642190     0.3788660
  C        2.0280760    -0.5019680    -0.0034050
  C       -3.4935710    -0.7441700    -0.2685760
  C        2.8657550     0.6173710    -0.5671120
  H        0.6401297    -1.0950503     1.6248889
  H        1.4326490     0.6059550     1.7585010
  H       -2.7005340     1.2360120     0.1703920
  H       -2.1291700     0.5558430    -1.3586020
  H       -4.3948760    -0.3798980    -0.7694460
  H       -3.1658200    -1.6603590    -0.7638670
  H       -3.7423020    -0.9776200     0.7686940
  H        3.4353450     0.2519410    -1.4221430
  H        3.5571500     0.9732660     0.2049480
  H        2.2307250     1.4606800    -0.8503130
units angstrom
no_reorient  #important for SAPT in psi4, default
symmetry c1  #important for SAPT in psi4, default
}

set PROPERTIES_ORIGIN ["COM"]
properties('MP2/aug-cc-pvtz', properties = ['dipole'])
--------------------------------------------------------------------------

    Molecular point group: c1
  Charge       = 0
  Multiplicity = 1
  Basis Set: AUG-CC-PVTZ
    Blend: AUG-CC-PVTZ
  Basis Set: (AUG-CC-PVTZ AUX)
    Blend: AUG-CC-PVTZ-JKFIT

    Orbital Energies [Eh]
    ---------------------

    Doubly Occupied:

       1A    -20.615525     2A    -20.559234     3A    -20.558482
       4A    -11.401081     5A    -11.350037     6A    -11.296844
       7A    -11.273363     8A    -11.237030     9A    -11.229825
      10A     -1.467151    11A     -1.388773    12A     -1.366765
      13A     -1.079393    14A     -1.040551    15A     -0.988646
      16A     -0.875771    17A     -0.799621    18A     -0.755491
      19A     -0.703766    20A     -0.693716    21A     -0.679489
      22A     -0.652391    23A     -0.637869    24A     -0.601836
      25A     -0.585882    26A     -0.572722    27A     -0.569230
      28A     -0.551210    29A     -0.531599    30A     -0.521751
      31A     -0.514680    32A     -0.503686    33A     -0.469996
      34A     -0.457287    35A     -0.423888

  @DF-RHF Final Energy:  -457.79921717695328

   => Energetics <=

    Nuclear Repulsion Energy =            452.7220177016388902
    One-Electron Energy =               -1523.1333078686539011
    Two-Electron Energy =                 612.6120729900618471
    Total Energy =                       -457.7992171769532206
  Basis Set: (AUG-CC-PVTZ AUX)
    Blend: AUG-CC-PVTZ-RI
    Molecular point group: c1

    Geometry (in Angstrom), charge = 0, multiplicity = 1:

       Center              X                  Y                   Z               Mass
    ------------   -----------------  -----------------  -----------------  -----------------
         O           -1.290686159309    -0.238137444569     0.341320448972    15.994914619570
         O           -0.183268159309     1.694522555431    -0.112195551028    15.994914619570
         O            2.111389840691    -1.661984444569    -0.358687551028    15.994914619570
         C            0.958216840691    -0.102524444569     1.051081448972    12.000000000000
         C           -2.448418159309     0.317637555431    -0.337573551028    12.000000000000
         C           -0.213684159309     0.572886555431     0.373268448972    12.000000000000
         C            1.991666840691    -0.493300444569    -0.009002551028    12.000000000000
         C           -3.529980159309    -0.735502444569    -0.274173551028    12.000000000000
         C            2.829345840691     0.626038555431    -0.572709551028    12.000000000000
         H            0.603720540691    -1.086382744569     1.619291348972     1.007825032230
         H            1.396239840691     0.614622555431     1.752903448972     1.007825032230
         H           -2.736943159309     1.244679555431     0.164794448972     1.007825032230
         H           -2.165579159309     0.564510555431    -1.364199551028     1.007825032230
         H           -4.431285159309    -0.371230444569    -0.775043551028     1.007825032230
         H           -3.202229159309    -1.651691444569    -0.769464551028     1.007825032230
         H           -3.778711159309    -0.968952444569     0.763096448972     1.007825032230
         H            3.398935840691     0.260608555431    -1.427740551028     1.007825032230
         H            3.520740840691     0.981933555431     0.199350448972     1.007825032230
         H            2.194315840691     1.469347555431    -0.855910551028     1.007825032230

  Basis Set: AUG-CC-PVTZ
    Blend: AUG-CC-PVTZ
  Basis Set: (AUG-CC-PVTZ AUX)
    Blend: AUG-CC-PVTZ-JKFIT
	 Reference Energy          =    -457.7992171769532774 [Eh]
	 Singles Energy            =      -0.0000000000000000 [Eh]
	 Same-Spin Energy          =      -0.4484737177388997 [Eh]
	 Opposite-Spin Energy      =      -1.4403747884543729 [Eh]
	 Correlation Energy        =      -1.8888485061932727 [Eh]
	 Total Energy              =    -459.6880656831465330 [Eh]

	 ================> DF-SCS-MP2 Energies <==================
	-----------------------------------------------------------
	 SCS Same-Spin Scale       =       0.3333333333333333 [-]
	 SCS Opposite-Spin Scale   =       1.2000000000000000 [-]
	 SCS Same-Spin Energy      =      -0.1494912392462999 [Eh]
	 SCS Opposite-Spin Energy  =      -1.7284497461452475 [Eh]
	 SCS Correlation Energy    =      -1.8779409853915474 [Eh]
	 SCS Total Energy          =    -459.6771581623448242 [Eh]
	-----------------------------------------------------------

  Dipole Moment: [D]
     X:    -1.3081      Y:     1.1199      Z:     0.9698     Total:     1.9763

*** Psi4 exiting successfully. Buy a developer a beer!
