                               Psi4 1.3.2 release

  ==> Input File <==

--------------------------------------------------------------------------
#psi4
#
memory 32 gb

molecule  {
0 1
  O       -1.2542770    -0.2468050     0.3469180
  O       -0.1468590     1.6858550    -0.1065980
  O        2.1477990    -1.6706520    -0.3530900
  C        0.9946260    -0.1111920     1.0566790
  C       -2.4120090     0.3089700    -0.3319760
  C       -0.1980995     0.4291797     0.2988092
  C        2.0280760    -0.5019680    -0.0034050
  C       -3.4935710    -0.7441700    -0.2685760
  C        2.8657550     0.6173710    -0.5671120
  H        0.6699150    -1.0123850     1.5771470
  H        1.4326490     0.6059550     1.7585010
  H       -2.7005340     1.2360120     0.1703920
  H       -2.1291700     0.5558430    -1.3586020
  H       -4.3948760    -0.3798980    -0.7694460
  H       -3.1658200    -1.6603590    -0.7638670
  H       -3.7423020    -0.9776200     0.7686940
  H        3.4353450     0.2519410    -1.4221430
  H        3.5571500     0.9732660     0.2049480
  H        2.2307250     1.4606800    -0.8503130
units angstrom
no_reorient  #important for SAPT in psi4, default
symmetry c1  #important for SAPT in psi4, default
}

set PROPERTIES_ORIGIN ["COM"]
properties('MP2/aug-cc-pvtz', properties = ['dipole'])
--------------------------------------------------------------------------

    Molecular point group: c1
  Charge       = 0
  Multiplicity = 1
  Basis Set: AUG-CC-PVTZ
    Blend: AUG-CC-PVTZ
  Basis Set: (AUG-CC-PVTZ AUX)
    Blend: AUG-CC-PVTZ-JKFIT

    Orbital Energies [Eh]
    ---------------------

    Doubly Occupied:

       1A    -20.640486     2A    -20.556588     3A    -20.535220
       4A    -11.403647     5A    -11.347164     6A    -11.309579
       7A    -11.263291     8A    -11.237784     9A    -11.232405
      10A     -1.507536    11A     -1.387849    12A     -1.309089
      13A     -1.089280    14A     -1.051113    15A     -0.989953
      16A     -0.896193    17A     -0.811643    18A     -0.758538
      19A     -0.712523    20A     -0.699927    21A     -0.687099
      22A     -0.652057    23A     -0.639865    24A     -0.600891
      25A     -0.592231    26A     -0.574752    27A     -0.564248
      28A     -0.551282    29A     -0.540663    30A     -0.527494
      31A     -0.512172    32A     -0.498635    33A     -0.452647
      34A     -0.443099    35A     -0.417774

  @DF-RHF Final Energy:  -457.77945729451761

   => Energetics <=

    Nuclear Repulsion Energy =            453.7532397533390167
    One-Electron Energy =               -1525.0759628886130486
    Two-Electron Energy =                 613.5432658407563622
    Total Energy =                       -457.7794572945175560
  Basis Set: (AUG-CC-PVTZ AUX)
    Blend: AUG-CC-PVTZ-RI
    Molecular point group: c1

    Geometry (in Angstrom), charge = 0, multiplicity = 1:

       Center              X                  Y                   Z               Mass
    ------------   -----------------  -----------------  -----------------  -----------------
         O           -1.288995627499    -0.226318868109     0.349076668089    15.994914619570
         O           -0.181577627499     1.706341131891    -0.104439331911    15.994914619570
         O            2.113080372501    -1.650165868109    -0.350931331911    15.994914619570
         C            0.959907372501    -0.090705868109     1.058837668089    12.000000000000
         C           -2.446727627499     0.329456131891    -0.329817331911    12.000000000000
         C           -0.232818127499     0.449665831891     0.300967868089    12.000000000000
         C            1.993357372501    -0.481481868109    -0.001246331911    12.000000000000
         C           -3.528289627499    -0.723683868109    -0.266417331911    12.000000000000
         C            2.831036372501     0.637857131891    -0.564953331911    12.000000000000
         H            0.635196372501    -0.991898868109     1.579305668089     1.007825032230
         H            1.397930372501     0.626441131891     1.760659668089     1.007825032230
         H           -2.735252627499     1.256498131891     0.172550668089     1.007825032230
         H           -2.163888627499     0.576329131891    -1.356443331911     1.007825032230
         H           -4.429594627499    -0.359411868109    -0.767287331911     1.007825032230
         H           -3.200538627499    -1.639872868109    -0.761708331911     1.007825032230
         H           -3.777020627499    -0.957133868109     0.770852668089     1.007825032230
         H            3.400626372501     0.272427131891    -1.419984331911     1.007825032230
         H            3.522431372501     0.993752131891     0.207106668089     1.007825032230
         H            2.196006372501     1.481166131891    -0.848154331911     1.007825032230

  Basis Set: AUG-CC-PVTZ
    Blend: AUG-CC-PVTZ
  Basis Set: (AUG-CC-PVTZ AUX)
    Blend: AUG-CC-PVTZ-JKFIT
	 Reference Energy          =    -457.7794572945176128 [Eh]
	 Singles Energy            =      -0.0000000000000000 [Eh]
	 Same-Spin Energy          =      -0.4496824163179884 [Eh]
	 Opposite-Spin Energy      =      -1.4420952209694946 [Eh]
	 Correlation Energy        =      -1.8917776372874830 [Eh]
	 Total Energy              =    -459.6712349318050883 [Eh]

	 ================> DF-SCS-MP2 Energies <==================
	-----------------------------------------------------------
	 SCS Same-Spin Scale       =       0.3333333333333333 [-]
	 SCS Opposite-Spin Scale   =       1.2000000000000000 [-]
	 SCS Same-Spin Energy      =      -0.1498941387726628 [Eh]
	 SCS Opposite-Spin Energy  =      -1.7305142651633936 [Eh]
	 SCS Correlation Energy    =      -1.8804084039360565 [Eh]
	 SCS Total Energy          =    -459.6598656984536433 [Eh]
	-----------------------------------------------------------

  Dipole Moment: [D]
     X:    -2.0118      Y:     0.4941      Z:     0.9870     Total:     2.2947

*** Psi4 exiting successfully. Buy a developer a beer!
