                               Psi4 1.3.2 release

  ==> Input File <==

--------------------------------------------------------------------------
#psi4
#
memory 32 gb

molecule  {
0 1
  O       -1.2542770    -0.2468050     0.3469180
  O       -0.1468590     1.6858550    -0.1065980
  O        2.1477990    -1.6706520    -0.3530900
  C        0.9946260    -0.1111920     1.0566790
  C       -2.4120090     0.3089700    -0.3319760
  C       -0.1529875     0.5576945     0.3324301
  C        2.0280760    -0.5019680    -0.0034050
  C       -3.4935710    -0.7441700    -0.2685760
  C        2.8657550     0.6173710    -0.5671120
  H        0.6699150    -1.0123850     1.5771470
  H        1.4326490     0.6059550     1.7585010
  H       -2.7005340     1.2360120     0.1703920
  H       -2.1291700     0.5558430    -1.3586020
  H       -4.3948760    -0.3798980    -0.7694460
  H       -3.1658200    -1.6603590    -0.7638670
  H       -3.7423020    -0.9776200     0.7686940
  H        3.4353450     0.2519410    -1.4221430
  H        3.5571500     0.9732660     0.2049480
  H        2.2307250     1.4606800    -0.8503130
units angstrom
no_reorient  #important for SAPT in psi4, default
symmetry c1  #important for SAPT in psi4, default
}

set PROPERTIES_ORIGIN ["COM"]
properties('MP2/aug-cc-pvtz', properties = ['dipole'])
--------------------------------------------------------------------------

    Molecular point group: c1
  Charge       = 0
  Multiplicity = 1
  Basis Set: AUG-CC-PVTZ
    Blend: AUG-CC-PVTZ
  Basis Set: (AUG-CC-PVTZ AUX)
    Blend: AUG-CC-PVTZ-JKFIT

    Orbital Energies [Eh]
    ---------------------

    Doubly Occupied:

       1A    -20.611997     2A    -20.562229     3A    -20.558511
       4A    -11.400360     5A    -11.349354     6A    -11.295111
       7A    -11.263814     8A    -11.237276     9A    -11.228696
      10A     -1.465020    11A     -1.389077    12A     -1.370715
      13A     -1.082832    14A     -1.039101    15A     -0.991362
      16A     -0.873359    17A     -0.797748    18A     -0.755158
      19A     -0.711622    20A     -0.692278    21A     -0.679890
      22A     -0.652859    23A     -0.643374    24A     -0.602979
      25A     -0.588182    26A     -0.576017    27A     -0.569746
      28A     -0.552384    29A     -0.538720    30A     -0.520710
      31A     -0.516151    32A     -0.504568    33A     -0.469734
      34A     -0.459315    35A     -0.422857

  @DF-RHF Final Energy:  -457.80513426434919

   => Energetics <=

    Nuclear Repulsion Energy =            453.3831723378091283
    One-Electron Energy =               -1524.4304032918289522
    Two-Electron Energy =                 613.2420966896706886
    Total Energy =                       -457.8051342643491353
  Basis Set: (AUG-CC-PVTZ AUX)
    Blend: AUG-CC-PVTZ-RI
    Molecular point group: c1

    Geometry (in Angstrom), charge = 0, multiplicity = 1:

       Center              X                  Y                   Z               Mass
    ------------   -----------------  -----------------  -----------------  -----------------
         O           -1.293157795250    -0.238176027094     0.345974703518    15.994914619570
         O           -0.185739795250     1.694483972906    -0.107541296482    15.994914619570
         O            2.108918204750    -1.662023027094    -0.354033296482    15.994914619570
         C            0.955745204750    -0.102563027094     1.055735703518    12.000000000000
         C           -2.450889795250     0.317598972906    -0.332919296482    12.000000000000
         C           -0.191868295250     0.566323472906     0.331486803518    12.000000000000
         C            1.989195204750    -0.493339027094    -0.004348296482    12.000000000000
         C           -3.532451795250    -0.735541027094    -0.269519296482    12.000000000000
         C            2.826874204750     0.625999972906    -0.568055296482    12.000000000000
         H            0.631034204750    -1.003756027094     1.576203703518     1.007825032230
         H            1.393768204750     0.614583972906     1.757557703518     1.007825032230
         H           -2.739414795250     1.244640972906     0.169448703518     1.007825032230
         H           -2.168050795250     0.564471972906    -1.359545296482     1.007825032230
         H           -4.433756795250    -0.371269027094    -0.770389296482     1.007825032230
         H           -3.204700795250    -1.651730027094    -0.764810296482     1.007825032230
         H           -3.781182795250    -0.968991027094     0.767750703518     1.007825032230
         H            3.396464204750     0.260569972906    -1.423086296482     1.007825032230
         H            3.518269204750     0.981894972906     0.204004703518     1.007825032230
         H            2.191844204750     1.469308972906    -0.851256296482     1.007825032230

  Basis Set: AUG-CC-PVTZ
    Blend: AUG-CC-PVTZ
  Basis Set: (AUG-CC-PVTZ AUX)
    Blend: AUG-CC-PVTZ-JKFIT
	 Reference Energy          =    -457.8051342643491921 [Eh]
	 Singles Energy            =      -0.0000000000000000 [Eh]
	 Same-Spin Energy          =      -0.4482930516621707 [Eh]
	 Opposite-Spin Energy      =      -1.4395029782249218 [Eh]
	 Correlation Energy        =      -1.8877960298870926 [Eh]
	 Total Energy              =    -459.6929302942363051 [Eh]

	 ================> DF-SCS-MP2 Energies <==================
	-----------------------------------------------------------
	 SCS Same-Spin Scale       =       0.3333333333333333 [-]
	 SCS Opposite-Spin Scale   =       1.2000000000000000 [-]
	 SCS Same-Spin Energy      =      -0.1494310172207235 [Eh]
	 SCS Opposite-Spin Energy  =      -1.7274035738699061 [Eh]
	 SCS Correlation Energy    =      -1.8768345910906297 [Eh]
	 SCS Total Energy          =    -459.6819688554398340 [Eh]
	-----------------------------------------------------------

  Dipole Moment: [D]
     X:    -1.1867      Y:     1.1965      Z:     0.9547     Total:     1.9368

*** Psi4 exiting successfully. Buy a developer a beer!
