                               Psi4 1.3.2 release

  ==> Input File <==

--------------------------------------------------------------------------
#psi4
#
memory 32 gb

molecule  {
0 1
  O       -1.2542770    -0.2468050     0.3469180
  O       -0.1468590     1.6858550    -0.1065980
  O        2.1477990    -1.6706520    -0.3530900
  C        0.9946260    -0.1111920     1.0566790
  C       -2.4120090     0.3089700    -0.3319760
  C       -0.2414612     0.5788283     0.5228974
  C        2.0280760    -0.5019680    -0.0034050
  C       -3.4935710    -0.7441700    -0.2685760
  C        2.8657550     0.6173710    -0.5671120
  H        0.6699150    -1.0123850     1.5771470
  H        1.4326490     0.6059550     1.7585010
  H       -2.7005340     1.2360120     0.1703920
  H       -2.1291700     0.5558430    -1.3586020
  H       -4.3948760    -0.3798980    -0.7694460
  H       -3.1658200    -1.6603590    -0.7638670
  H       -3.7423020    -0.9776200     0.7686940
  H        3.4353450     0.2519410    -1.4221430
  H        3.5571500     0.9732660     0.2049480
  H        2.2307250     1.4606800    -0.8503130
units angstrom
no_reorient  #important for SAPT in psi4, default
symmetry c1  #important for SAPT in psi4, default
}

set PROPERTIES_ORIGIN ["COM"]
properties('MP2/aug-cc-pvtz', properties = ['dipole'])
--------------------------------------------------------------------------

    Molecular point group: c1
  Charge       = 0
  Multiplicity = 1
  Basis Set: AUG-CC-PVTZ
    Blend: AUG-CC-PVTZ
  Basis Set: (AUG-CC-PVTZ AUX)
    Blend: AUG-CC-PVTZ-JKFIT

    Orbital Energies [Eh]
    ---------------------

    Doubly Occupied:

       1A    -20.625256     2A    -20.559662     3A    -20.550454
       4A    -11.404962     5A    -11.351511     6A    -11.301333
       7A    -11.264496     8A    -11.234652     9A    -11.232567
      10A     -1.474093    11A     -1.389452    12A     -1.337709
      13A     -1.082633    14A     -1.044083    15A     -0.991458
      16A     -0.883495    17A     -0.804883    18A     -0.760398
      19A     -0.701845    20A     -0.696452    21A     -0.677713
      22A     -0.650175    23A     -0.640901    24A     -0.601667
      25A     -0.587150    26A     -0.574963    27A     -0.566294
      28A     -0.546876    29A     -0.540477    30A     -0.524190
      31A     -0.509307    32A     -0.501454    33A     -0.463161
      34A     -0.451314    35A     -0.425350

  @DF-RHF Final Energy:  -457.78784755820772

   => Energetics <=

    Nuclear Repulsion Energy =            452.1386062160060533
    One-Electron Energy =               -1521.9481315160139729
    Two-Electron Energy =                 612.0216777418000902
    Total Energy =                       -457.7878475582077726
  Basis Set: (AUG-CC-PVTZ AUX)
    Blend: AUG-CC-PVTZ-RI
    Molecular point group: c1

    Geometry (in Angstrom), charge = 0, multiplicity = 1:

       Center              X                  Y                   Z               Mass
    ------------   -----------------  -----------------  -----------------  -----------------
         O           -1.284994947649    -0.240125894553     0.328401621994    15.994914619570
         O           -0.177576947649     1.692534105447    -0.125114378006    15.994914619570
         O            2.117081052351    -1.663972894553    -0.371606378006    15.994914619570
         C            0.963908052351    -0.104512894553     1.038162621994    12.000000000000
         C           -2.442726947649     0.315649105447    -0.350492378006    12.000000000000
         C           -0.272179147649     0.585507405447     0.504381021994    12.000000000000
         C            1.997358052351    -0.495288894553    -0.021921378006    12.000000000000
         C           -3.524288947649    -0.737490894553    -0.287092378006    12.000000000000
         C            2.835037052351     0.624050105447    -0.585628378006    12.000000000000
         H            0.639197052351    -1.005705894553     1.558630621994     1.007825032230
         H            1.401931052351     0.612634105447     1.739984621994     1.007825032230
         H           -2.731251947649     1.242691105447     0.151875621994     1.007825032230
         H           -2.159887947649     0.562522105447    -1.377118378006     1.007825032230
         H           -4.425593947649    -0.373218894553    -0.787962378006     1.007825032230
         H           -3.196537947649    -1.653679894553    -0.782383378006     1.007825032230
         H           -3.773019947649    -0.970940894553     0.750177621994     1.007825032230
         H            3.404627052351     0.258620105447    -1.440659378006     1.007825032230
         H            3.526432052351     0.979945105447     0.186431621994     1.007825032230
         H            2.200007052351     1.467359105447    -0.868829378006     1.007825032230

  Basis Set: AUG-CC-PVTZ
    Blend: AUG-CC-PVTZ
  Basis Set: (AUG-CC-PVTZ AUX)
    Blend: AUG-CC-PVTZ-JKFIT
	 Reference Energy          =    -457.7878475582077158 [Eh]
	 Singles Energy            =      -0.0000000000000000 [Eh]
	 Same-Spin Energy          =      -0.4495852911327419 [Eh]
	 Opposite-Spin Energy      =      -1.4426132664744733 [Eh]
	 Correlation Energy        =      -1.8921985576072151 [Eh]
	 Total Energy              =    -459.6800461158149460 [Eh]

	 ================> DF-SCS-MP2 Energies <==================
	-----------------------------------------------------------
	 SCS Same-Spin Scale       =       0.3333333333333333 [-]
	 SCS Opposite-Spin Scale   =       1.2000000000000000 [-]
	 SCS Same-Spin Energy      =      -0.1498617637109140 [Eh]
	 SCS Opposite-Spin Energy  =      -1.7311359197693679 [Eh]
	 SCS Correlation Energy    =      -1.8809976834802820 [Eh]
	 SCS Total Energy          =    -459.6688452416880182 [Eh]
	-----------------------------------------------------------

  Dipole Moment: [D]
     X:    -1.5750      Y:     0.8892      Z:     1.0753     Total:     2.1042

*** Psi4 exiting successfully. Buy a developer a beer!
