                               Psi4 1.3.2 release

  ==> Input File <==

--------------------------------------------------------------------------
#psi4
#
memory 32 gb

molecule  {
0 1
  O       -1.2542770    -0.2468050     0.3469180
  O       -0.1468590     1.6858550    -0.1065980
  O        2.1477990    -1.6706520    -0.3530900
  C        0.9946260    -0.1111920     1.0566790
  C       -2.4120090     0.3089700    -0.3319760
  C       -0.1772750     0.5642190     0.3788660
  C        2.0280760    -0.5019680    -0.0034050
  C       -3.4935710    -0.7441700    -0.2685760
  C        2.8657550     0.6173710    -0.5671120
  H        0.6699150    -1.0123850     1.5771470
  H        1.4326490     0.6059550     1.7585010
  H       -2.7005340     1.2360120     0.1703920
  H       -2.1291700     0.5558430    -1.3586020
  H       -4.3948760    -0.3798980    -0.7694460
  H       -3.1658200    -1.6603590    -0.7638670
  H       -3.7423020    -0.9776200     0.7686940
  H        3.4353450     0.2519410    -1.4221430
  H        3.5571500     0.9732660     0.2049480
  H        2.2307250     1.4606800    -0.8503130
units angstrom
no_reorient  #important for SAPT in psi4, default
symmetry c1  #important for SAPT in psi4, default
}

set PROPERTIES_ORIGIN ["COM"]
properties('MP2/aug-cc-pvtz', properties = ['dipole'])
--------------------------------------------------------------------------

    Molecular point group: c1
  Charge       = 0
  Multiplicity = 1
  Basis Set: AUG-CC-PVTZ
    Blend: AUG-CC-PVTZ
  Basis Set: (AUG-CC-PVTZ AUX)
    Blend: AUG-CC-PVTZ-JKFIT

    Orbital Energies [Eh]
    ---------------------

    Doubly Occupied:

       1A    -20.615766     2A    -20.558615     3A    -20.558589
       4A    -11.400401     5A    -11.349639     6A    -11.297016
       7A    -11.263284     8A    -11.236426     9A    -11.229906
      10A     -1.467146    11A     -1.388983    12A     -1.366439
      13A     -1.082447    14A     -1.040782    15A     -0.991189
      16A     -0.876323    17A     -0.799648    18A     -0.756388
      19A     -0.709264    20A     -0.693800    21A     -0.679498
      22A     -0.652459    23A     -0.642788    24A     -0.602765
      25A     -0.587786    26A     -0.575861    27A     -0.569248
      28A     -0.551593    29A     -0.539104    30A     -0.521987
      31A     -0.514590    32A     -0.503852    33A     -0.470045
      34A     -0.457871    35A     -0.423544

  @DF-RHF Final Energy:  -457.80639572254722

   => Energetics <=

    Nuclear Repulsion Energy =            453.1945192863107650
    One-Electron Energy =               -1524.0517398802517164
    Two-Electron Energy =                 613.0508248713936155
    Total Energy =                       -457.8063957225472222
  Basis Set: (AUG-CC-PVTZ AUX)
    Blend: AUG-CC-PVTZ-RI
    Molecular point group: c1

    Geometry (in Angstrom), charge = 0, multiplicity = 1:

       Center              X                  Y                   Z               Mass
    ------------   -----------------  -----------------  -----------------  -----------------
         O           -1.290916958017    -0.238777996935     0.341690388802    15.994914619570
         O           -0.183498958017     1.693882003065    -0.111825611198    15.994914619570
         O            2.111159041983    -1.662624996935    -0.358317611198    15.994914619570
         C            0.957986041983    -0.103164996935     1.051451388802    12.000000000000
         C           -2.448648958017     0.316997003065    -0.337203611198    12.000000000000
         C           -0.213914958017     0.572246003065     0.373638388802    12.000000000000
         C            1.991436041983    -0.493940996935    -0.008632611198    12.000000000000
         C           -3.530210958017    -0.736142996935    -0.273803611198    12.000000000000
         C            2.829115041983     0.625398003065    -0.572339611198    12.000000000000
         H            0.633275041983    -1.004357996935     1.571919388802     1.007825032230
         H            1.396009041983     0.613982003065     1.753273388802     1.007825032230
         H           -2.737173958017     1.244039003065     0.165164388802     1.007825032230
         H           -2.165809958017     0.563870003065    -1.363829611198     1.007825032230
         H           -4.431515958017    -0.371870996935    -0.774673611198     1.007825032230
         H           -3.202459958017    -1.652331996935    -0.769094611198     1.007825032230
         H           -3.778941958017    -0.969592996935     0.763466388802     1.007825032230
         H            3.398705041983     0.259968003065    -1.427370611198     1.007825032230
         H            3.520510041983     0.981293003065     0.199720388802     1.007825032230
         H            2.194085041983     1.468707003065    -0.855540611198     1.007825032230

  Basis Set: AUG-CC-PVTZ
    Blend: AUG-CC-PVTZ
  Basis Set: (AUG-CC-PVTZ AUX)
    Blend: AUG-CC-PVTZ-JKFIT
	 Reference Energy          =    -457.8063957225472222 [Eh]
	 Singles Energy            =      -0.0000000000000000 [Eh]
	 Same-Spin Energy          =      -0.4482727775966583 [Eh]
	 Opposite-Spin Energy      =      -1.4394091079662819 [Eh]
	 Correlation Energy        =      -1.8876818855629403 [Eh]
	 Total Energy              =    -459.6940776081101490 [Eh]

	 ================> DF-SCS-MP2 Energies <==================
	-----------------------------------------------------------
	 SCS Same-Spin Scale       =       0.3333333333333333 [-]
	 SCS Opposite-Spin Scale   =       1.2000000000000000 [-]
	 SCS Same-Spin Energy      =      -0.1494242591988861 [Eh]
	 SCS Opposite-Spin Energy  =      -1.7272909295595382 [Eh]
	 SCS Correlation Energy    =      -1.8767151887584244 [Eh]
	 SCS Total Energy          =    -459.6831109113056186 [Eh]
	-----------------------------------------------------------

  Dipole Moment: [D]
     X:    -1.3105      Y:     1.1163      Z:     0.9881     Total:     1.9849

*** Psi4 exiting successfully. Buy a developer a beer!
