                               Psi4 1.3.2 release

  ==> Input File <==

--------------------------------------------------------------------------
#psi4
#
memory 32 gb

molecule  {
0 1
  O       -1.2542770    -0.2468050     0.3469180
  O       -0.1468590     1.6858550    -0.1065980
  O        2.1477990    -1.6706520    -0.3530900
  C        0.9946260    -0.1111920     1.0566790
  C       -2.4120090     0.3089700    -0.3319760
  C       -0.1772750     0.5642190     0.3788660
  C        1.9605822    -0.4764467     0.0658283
  C       -3.4935710    -0.7441700    -0.2685760
  C        2.8657550     0.6173710    -0.5671120
  H        0.6699150    -1.0123850     1.5771470
  H        1.4326490     0.6059550     1.7585010
  H       -2.7005340     1.2360120     0.1703920
  H       -2.1291700     0.5558430    -1.3586020
  H       -4.3948760    -0.3798980    -0.7694460
  H       -3.1658200    -1.6603590    -0.7638670
  H       -3.7423020    -0.9776200     0.7686940
  H        3.4353450     0.2519410    -1.4221430
  H        3.5571500     0.9732660     0.2049480
  H        2.2307250     1.4606800    -0.8503130
units angstrom
no_reorient  #important for SAPT in psi4, default
symmetry c1  #important for SAPT in psi4, default
}

set PROPERTIES_ORIGIN ["COM"]
properties('MP2/aug-cc-pvtz', properties = ['dipole'])
--------------------------------------------------------------------------

    Molecular point group: c1
  Charge       = 0
  Multiplicity = 1
  Basis Set: AUG-CC-PVTZ
    Blend: AUG-CC-PVTZ
  Basis Set: (AUG-CC-PVTZ AUX)
    Blend: AUG-CC-PVTZ-JKFIT

    Orbital Energies [Eh]
    ---------------------

    Doubly Occupied:

       1A    -20.620537     2A    -20.564748     3A    -20.553640
       4A    -11.408049     5A    -11.351833     6A    -11.300002
       7A    -11.267268     8A    -11.236775     9A    -11.231895
      10A     -1.472367    11A     -1.372039    12A     -1.353515
      13A     -1.101954    14A     -1.045074    15A     -0.983237
      16A     -0.883415    17A     -0.807648    18A     -0.761769
      19A     -0.717186    20A     -0.697890    21A     -0.682346
      22A     -0.650557    23A     -0.642909    24A     -0.597572
      25A     -0.584876    26A     -0.571262    27A     -0.564073
      28A     -0.555129    29A     -0.541861    30A     -0.524970
      31A     -0.516691    32A     -0.491331    33A     -0.473640
      34A     -0.454149    35A     -0.426183

  @DF-RHF Final Energy:  -457.78830530256954

   => Energetics <=

    Nuclear Repulsion Energy =            453.5988367485574599
    One-Electron Energy =               -1524.7575040303966034
    Two-Electron Energy =                 613.3703619792696600
    Total Energy =                       -457.7883053025694835
  Basis Set: (AUG-CC-PVTZ AUX)
    Blend: AUG-CC-PVTZ-RI
    Molecular point group: c1

    Geometry (in Angstrom), charge = 0, multiplicity = 1:

       Center              X                  Y                   Z               Mass
    ------------   -----------------  -----------------  -----------------  -----------------
         O           -1.284689778602    -0.241132668238     0.335302717926    15.994914619570
         O           -0.177271778602     1.691527331762    -0.118213282074    15.994914619570
         O            2.117386221398    -1.664979668238    -0.364705282074    15.994914619570
         C            0.964213221398    -0.105519668238     1.045063717926    12.000000000000
         C           -2.442421778602     0.314642331762    -0.343591282074    12.000000000000
         C           -0.207687778602     0.569891331762     0.367250717926    12.000000000000
         C            1.930169421398    -0.470774368238     0.054213017926    12.000000000000
         C           -3.523983778602    -0.738497668238    -0.280191282074    12.000000000000
         C            2.835342221398     0.623043331762    -0.578727282074    12.000000000000
         H            0.639502221398    -1.006712668238     1.565531717926     1.007825032230
         H            1.402236221398     0.611627331762     1.746885717926     1.007825032230
         H           -2.730946778602     1.241684331762     0.158776717926     1.007825032230
         H           -2.159582778602     0.561515331762    -1.370217282074     1.007825032230
         H           -4.425288778602    -0.374225668238    -0.781061282074     1.007825032230
         H           -3.196232778602    -1.654686668238    -0.775482282074     1.007825032230
         H           -3.772714778602    -0.971947668238     0.757078717926     1.007825032230
         H            3.404932221398     0.257613331762    -1.433758282074     1.007825032230
         H            3.526737221398     0.978938331762     0.193332717926     1.007825032230
         H            2.200312221398     1.466352331762    -0.861928282074     1.007825032230

  Basis Set: AUG-CC-PVTZ
    Blend: AUG-CC-PVTZ
  Basis Set: (AUG-CC-PVTZ AUX)
    Blend: AUG-CC-PVTZ-JKFIT
	 Reference Energy          =    -457.7883053025695403 [Eh]
	 Singles Energy            =      -0.0000000000000000 [Eh]
	 Same-Spin Energy          =      -0.4502937509787795 [Eh]
	 Opposite-Spin Energy      =      -1.4438360365075988 [Eh]
	 Correlation Energy        =      -1.8941297874863783 [Eh]
	 Total Energy              =    -459.6824350900559466 [Eh]

	 ================> DF-SCS-MP2 Energies <==================
	-----------------------------------------------------------
	 SCS Same-Spin Scale       =       0.3333333333333333 [-]
	 SCS Opposite-Spin Scale   =       1.2000000000000000 [-]
	 SCS Same-Spin Energy      =      -0.1500979169929265 [Eh]
	 SCS Opposite-Spin Energy  =      -1.7326032438091186 [Eh]
	 SCS Correlation Energy    =      -1.8827011608020450 [Eh]
	 SCS Total Energy          =    -459.6710064633716115 [Eh]
	-----------------------------------------------------------

  Dipole Moment: [D]
     X:    -1.7785      Y:     1.2761      Z:     1.2493     Total:     2.5203

*** Psi4 exiting successfully. Buy a developer a beer!
