                               Psi4 1.3.2 release

  ==> Input File <==

--------------------------------------------------------------------------
#psi4
#
memory 32 gb

molecule  {
0 1
  O       -1.2542770    -0.2468050     0.3469180
  O       -0.1468590     1.6858550    -0.1065980
  O        2.1477990    -1.6706520    -0.3530900
  C        0.9946260    -0.1111920     1.0566790
  C       -2.3323098     0.2707100    -0.2852404
  C       -0.1772750     0.5642190     0.3788660
  C        2.0280760    -0.5019680    -0.0034050
  C       -3.4935710    -0.7441700    -0.2685760
  C        2.8657550     0.6173710    -0.5671120
  H        0.6699150    -1.0123850     1.5771470
  H        1.4326490     0.6059550     1.7585010
  H       -2.7005340     1.2360120     0.1703920
  H       -2.1291700     0.5558430    -1.3586020
  H       -4.3948760    -0.3798980    -0.7694460
  H       -3.1658200    -1.6603590    -0.7638670
  H       -3.7423020    -0.9776200     0.7686940
  H        3.4353450     0.2519410    -1.4221430
  H        3.5571500     0.9732660     0.2049480
  H        2.2307250     1.4606800    -0.8503130
units angstrom
no_reorient  #important for SAPT in psi4, default
symmetry c1  #important for SAPT in psi4, default
}

set PROPERTIES_ORIGIN ["COM"]
properties('MP2/aug-cc-pvtz', properties = ['dipole'])
--------------------------------------------------------------------------

    Molecular point group: c1
  Charge       = 0
  Multiplicity = 1
  Basis Set: AUG-CC-PVTZ
    Blend: AUG-CC-PVTZ
  Basis Set: (AUG-CC-PVTZ AUX)
    Blend: AUG-CC-PVTZ-JKFIT

    Orbital Energies [Eh]
    ---------------------

    Doubly Occupied:

       1A    -20.626457     2A    -20.565794     3A    -20.561478
       4A    -11.407330     5A    -11.352527     6A    -11.295618
       7A    -11.267502     8A    -11.238731     9A    -11.226939
      10A     -1.494501    11A     -1.392065    12A     -1.381724
      13A     -1.087649    14A     -1.035027    15A     -0.992210
      16A     -0.885746    17A     -0.802068    18A     -0.763308
      19A     -0.717919    20A     -0.703407    21A     -0.688228
      22A     -0.653985    23A     -0.646570    24A     -0.610154
      25A     -0.589481    26A     -0.578813    27A     -0.569452
      28A     -0.556846    29A     -0.545499    30A     -0.513673
      31A     -0.507185    32A     -0.498050    33A     -0.464322
      34A     -0.458422    35A     -0.426623

  @DF-RHF Final Energy:  -457.79842664342311

   => Energetics <=

    Nuclear Repulsion Energy =            454.8992076934500801
    One-Electron Energy =               -1527.1846637469745929
    Two-Electron Energy =                 614.4870294101013997
    Total Energy =                       -457.7984266434231131
  Basis Set: (AUG-CC-PVTZ AUX)
    Blend: AUG-CC-PVTZ-RI
    Molecular point group: c1

    Geometry (in Angstrom), charge = 0, multiplicity = 1:

       Center              X                  Y                   Z               Mass
    ------------   -----------------  -----------------  -----------------  -----------------
         O           -1.298270244061    -0.235248015153     0.337378422869    15.994914619570
         O           -0.190852244061     1.697411984847    -0.116137577131    15.994914619570
         O            2.103805755939    -1.659095015153    -0.362629577131    15.994914619570
         C            0.950632755939    -0.099635015153     1.047139422869    12.000000000000
         C           -2.376303044061     0.282266984847    -0.294779977131    12.000000000000
         C           -0.221268244061     0.575775984847     0.369326422869    12.000000000000
         C            1.984082755939    -0.490411015153    -0.012944577131    12.000000000000
         C           -3.537564244061    -0.732613015153    -0.278115577131    12.000000000000
         C            2.821761755939     0.628927984847    -0.576651577131    12.000000000000
         H            0.625921755939    -1.000828015153     1.567607422869     1.007825032230
         H            1.388655755939     0.617511984847     1.748961422869     1.007825032230
         H           -2.744527244061     1.247568984847     0.160852422869     1.007825032230
         H           -2.173163244061     0.567399984847    -1.368141577131     1.007825032230
         H           -4.438869244061    -0.368341015153    -0.778985577131     1.007825032230
         H           -3.209813244061    -1.648802015153    -0.773406577131     1.007825032230
         H           -3.786295244061    -0.966063015153     0.759154422869     1.007825032230
         H            3.391351755939     0.263497984847    -1.431682577131     1.007825032230
         H            3.513156755939     0.984822984847     0.195408422869     1.007825032230
         H            2.186731755939     1.472236984847    -0.859852577131     1.007825032230

  Basis Set: AUG-CC-PVTZ
    Blend: AUG-CC-PVTZ
  Basis Set: (AUG-CC-PVTZ AUX)
    Blend: AUG-CC-PVTZ-JKFIT
	 Reference Energy          =    -457.7984266434231131 [Eh]
	 Singles Energy            =      -0.0000000000000000 [Eh]
	 Same-Spin Energy          =      -0.4483911520299762 [Eh]
	 Opposite-Spin Energy      =      -1.4388816774323434 [Eh]
	 Correlation Energy        =      -1.8872728294623196 [Eh]
	 Total Energy              =    -459.6856994728854602 [Eh]

	 ================> DF-SCS-MP2 Energies <==================
	-----------------------------------------------------------
	 SCS Same-Spin Scale       =       0.3333333333333333 [-]
	 SCS Opposite-Spin Scale   =       1.2000000000000000 [-]
	 SCS Same-Spin Energy      =      -0.1494637173433254 [Eh]
	 SCS Opposite-Spin Energy  =      -1.7266580129188120 [Eh]
	 SCS Correlation Energy    =      -1.8761217302621374 [Eh]
	 SCS Total Energy          =    -459.6745483736852407 [Eh]
	-----------------------------------------------------------

  Dipole Moment: [D]
     X:    -0.8683      Y:     1.0948      Z:     1.1294     Total:     1.7966

*** Psi4 exiting successfully. Buy a developer a beer!
