                               Psi4 1.3.2 release

  ==> Input File <==

--------------------------------------------------------------------------
#psi4
#
memory 32 gb

molecule  {
0 1
  O       -1.2542770    -0.2468050     0.3469180
  O       -0.1468590     1.6858550    -0.1065980
  O        2.1477990    -1.6706520    -0.3530900
  C        0.9946260    -0.1111920     1.0566790
  C       -2.4120090     0.3089700    -0.3319760
  C       -0.1772750     0.5642190     0.3788660
  C        1.8930883    -0.4509254     0.1350616
  C       -3.4935710    -0.7441700    -0.2685760
  C        2.8657550     0.6173710    -0.5671120
  H        0.6699150    -1.0123850     1.5771470
  H        1.4326490     0.6059550     1.7585010
  H       -2.7005340     1.2360120     0.1703920
  H       -2.1291700     0.5558430    -1.3586020
  H       -4.3948760    -0.3798980    -0.7694460
  H       -3.1658200    -1.6603590    -0.7638670
  H       -3.7423020    -0.9776200     0.7686940
  H        3.4353450     0.2519410    -1.4221430
  H        3.5571500     0.9732660     0.2049480
  H        2.2307250     1.4606800    -0.8503130
units angstrom
no_reorient  #important for SAPT in psi4, default
symmetry c1  #important for SAPT in psi4, default
}

set PROPERTIES_ORIGIN ["COM"]
properties('MP2/aug-cc-pvtz', properties = ['dipole'])
--------------------------------------------------------------------------

    Molecular point group: c1
  Charge       = 0
  Multiplicity = 1
  Basis Set: AUG-CC-PVTZ
    Blend: AUG-CC-PVTZ
  Basis Set: (AUG-CC-PVTZ AUX)
    Blend: AUG-CC-PVTZ-JKFIT

    Orbital Energies [Eh]
    ---------------------

    Doubly Occupied:

       1A    -20.625392     2A    -20.570927     3A    -20.547961
       4A    -11.416499     5A    -11.354170     6A    -11.303031
       7A    -11.268228     8A    -11.238792     9A    -11.233881
      10A     -1.477737    11A     -1.377463    12A     -1.320054
      13A     -1.128834    14A     -1.050249    15A     -0.973215
      16A     -0.891210    17A     -0.815921    18A     -0.768277
      19A     -0.726282    20A     -0.703645    21A     -0.685545
      22A     -0.656156    23A     -0.638922    24A     -0.596655
      25A     -0.586578    26A     -0.569421    27A     -0.559820
      28A     -0.556356    29A     -0.533223    30A     -0.528009
      31A     -0.518246    32A     -0.487108    33A     -0.477169
      34A     -0.441140    35A     -0.419498

  @DF-RHF Final Energy:  -457.74241999520501

   => Energetics <=

    Nuclear Repulsion Energy =            454.1407551318654896
    One-Electron Energy =               -1525.6751160161395546
    Two-Electron Energy =                 613.7919408890691102
    Total Energy =                       -457.7424199952049548
  Basis Set: (AUG-CC-PVTZ AUX)
    Blend: AUG-CC-PVTZ-RI
    Molecular point group: c1

    Geometry (in Angstrom), charge = 0, multiplicity = 1:

       Center              X                  Y                   Z               Mass
    ------------   -----------------  -----------------  -----------------  -----------------
         O           -1.278462589961    -0.243487339542     0.328915047049    15.994914619570
         O           -0.171044589961     1.689172660458    -0.124600952951    15.994914619570
         O            2.123613410039    -1.667334339542    -0.371092952951    15.994914619570
         C            0.970440410039    -0.107874339542     1.038676047049    12.000000000000
         C           -2.436194589961     0.312287660458    -0.349978952951    12.000000000000
         C           -0.201460589961     0.567536660458     0.360863047049    12.000000000000
         C            1.868902710039    -0.447607739542     0.117058647049    12.000000000000
         C           -3.517756589961    -0.740852339542    -0.286578952951    12.000000000000
         C            2.841569410039     0.620688660458    -0.585114952951    12.000000000000
         H            0.645729410039    -1.009067339542     1.559144047049     1.007825032230
         H            1.408463410039     0.609272660458     1.740498047049     1.007825032230
         H           -2.724719589961     1.239329660458     0.152389047049     1.007825032230
         H           -2.153355589961     0.559160660458    -1.376604952951     1.007825032230
         H           -4.419061589961    -0.376580339542    -0.787448952951     1.007825032230
         H           -3.190005589961    -1.657041339542    -0.781869952951     1.007825032230
         H           -3.766487589961    -0.974302339542     0.750691047049     1.007825032230
         H            3.411159410039     0.255258660458    -1.440145952951     1.007825032230
         H            3.532964410039     0.976583660458     0.186945047049     1.007825032230
         H            2.206539410039     1.463997660458    -0.868315952951     1.007825032230

  Basis Set: AUG-CC-PVTZ
    Blend: AUG-CC-PVTZ
  Basis Set: (AUG-CC-PVTZ AUX)
    Blend: AUG-CC-PVTZ-JKFIT
	 Reference Energy          =    -457.7424199952050117 [Eh]
	 Singles Energy            =      -0.0000000000000000 [Eh]
	 Same-Spin Energy          =      -0.4535296141211177 [Eh]
	 Opposite-Spin Energy      =      -1.4502976321395775 [Eh]
	 Correlation Energy        =      -1.9038272462606951 [Eh]
	 Total Energy              =    -459.6462472414656872 [Eh]

	 ================> DF-SCS-MP2 Energies <==================
	-----------------------------------------------------------
	 SCS Same-Spin Scale       =       0.3333333333333333 [-]
	 SCS Opposite-Spin Scale   =       1.2000000000000000 [-]
	 SCS Same-Spin Energy      =      -0.1511765380403726 [Eh]
	 SCS Opposite-Spin Energy  =      -1.7403571585674931 [Eh]
	 SCS Correlation Energy    =      -1.8915336966078655 [Eh]
	 SCS Total Energy          =    -459.6339536918128488 [Eh]
	-----------------------------------------------------------

  Dipole Moment: [D]
     X:    -2.2006      Y:     1.4120      Z:     1.4696     Total:     2.9993

*** Psi4 exiting successfully. Buy a developer a beer!
