                               Psi4 1.3.2 release

  ==> Input File <==

--------------------------------------------------------------------------
#psi4
#
memory 32 gb

molecule  {
0 1
  O       -1.2542770    -0.2468050     0.3469180
  O       -0.1468590     1.6858550    -0.1065980
  O        2.1477990    -1.6706520    -0.3530900
  C        0.9946260    -0.1111920     1.0566790
  C       -2.4120090     0.3089700    -0.3319760
  C       -0.1816453     0.5421873     0.3649827
  C        2.0280760    -0.5019680    -0.0034050
  C       -3.4935710    -0.7441700    -0.2685760
  C        2.8657550     0.6173710    -0.5671120
  H        0.6699150    -1.0123850     1.5771470
  H        1.4326490     0.6059550     1.7585010
  H       -2.7005340     1.2360120     0.1703920
  H       -2.1291700     0.5558430    -1.3586020
  H       -4.3948760    -0.3798980    -0.7694460
  H       -3.1658200    -1.6603590    -0.7638670
  H       -3.7423020    -0.9776200     0.7686940
  H        3.4353450     0.2519410    -1.4221430
  H        3.5571500     0.9732660     0.2049480
  H        2.2307250     1.4606800    -0.8503130
units angstrom
no_reorient  #important for SAPT in psi4, default
symmetry c1  #important for SAPT in psi4, default
}

set PROPERTIES_ORIGIN ["COM"]
properties('MP2/aug-cc-pvtz', properties = ['dipole'])
--------------------------------------------------------------------------

    Molecular point group: c1
  Charge       = 0
  Multiplicity = 1
  Basis Set: AUG-CC-PVTZ
    Blend: AUG-CC-PVTZ
  Basis Set: (AUG-CC-PVTZ AUX)
    Blend: AUG-CC-PVTZ-JKFIT

    Orbital Energies [Eh]
    ---------------------

    Doubly Occupied:

       1A    -20.620137     2A    -20.558219     3A    -20.554681
       4A    -11.400859     5A    -11.349143     6A    -11.299202
       7A    -11.263020     8A    -11.235721     9A    -11.231287
      10A     -1.471401    11A     -1.388745    12A     -1.359471
      13A     -1.083141    14A     -1.042814    15A     -0.990925
      16A     -0.879633    17A     -0.801315    18A     -0.756789
      19A     -0.707920    20A     -0.695718    21A     -0.680208
      22A     -0.652454    23A     -0.642005    24A     -0.602653
      25A     -0.587706    26A     -0.574598    27A     -0.569454
      28A     -0.551949    29A     -0.539828    30A     -0.523624
      31A     -0.512765    32A     -0.503103    33A     -0.469411
      34A     -0.456385    35A     -0.422768

  @DF-RHF Final Energy:  -457.80523303522955

   => Energetics <=

    Nuclear Repulsion Energy =            453.3034915436591064
    One-Electron Energy =               -1524.2593443414409649
    Two-Electron Energy =                 613.1506197625524237
    Total Energy =                       -457.8052330352295485
  Basis Set: (AUG-CC-PVTZ AUX)
    Blend: AUG-CC-PVTZ-RI
    Molecular point group: c1

    Geometry (in Angstrom), charge = 0, multiplicity = 1:

       Center              X                  Y                   Z               Mass
    ------------   -----------------  -----------------  -----------------  -----------------
         O           -1.290513741096    -0.236745286542     0.342971303493    15.994914619570
         O           -0.183095741096     1.695914713458    -0.110544696507    15.994914619570
         O            2.111562258904    -1.660592286542    -0.357036696507    15.994914619570
         C            0.958389258904    -0.101132286542     1.052732303493    12.000000000000
         C           -2.448245741096     0.319029713458    -0.335922696507    12.000000000000
         C           -0.217882041096     0.552247013458     0.361036003493    12.000000000000
         C            1.991839258904    -0.491908286542    -0.007351696507    12.000000000000
         C           -3.529807741096    -0.734110286542    -0.272522696507    12.000000000000
         C            2.829518258904     0.627430713458    -0.571058696507    12.000000000000
         H            0.633678258904    -1.002325286542     1.573200303493     1.007825032230
         H            1.396412258904     0.616014713458     1.754554303493     1.007825032230
         H           -2.736770741096     1.246071713458     0.166445303493     1.007825032230
         H           -2.165406741096     0.565902713458    -1.362548696507     1.007825032230
         H           -4.431112741096    -0.369838286542    -0.773392696507     1.007825032230
         H           -3.202056741096    -1.650299286542    -0.767813696507     1.007825032230
         H           -3.778538741096    -0.967560286542     0.764747303493     1.007825032230
         H            3.399108258904     0.262000713458    -1.426089696507     1.007825032230
         H            3.520913258904     0.983325713458     0.201001303493     1.007825032230
         H            2.194488258904     1.470739713458    -0.854259696507     1.007825032230

  Basis Set: AUG-CC-PVTZ
    Blend: AUG-CC-PVTZ
  Basis Set: (AUG-CC-PVTZ AUX)
    Blend: AUG-CC-PVTZ-JKFIT
	 Reference Energy          =    -457.8052330352295485 [Eh]
	 Singles Energy            =      -0.0000000000000000 [Eh]
	 Same-Spin Energy          =      -0.4484174367078327 [Eh]
	 Opposite-Spin Energy      =      -1.4396278807020619 [Eh]
	 Correlation Energy        =      -1.8880453174098948 [Eh]
	 Total Energy              =    -459.6932783526394246 [Eh]

	 ================> DF-SCS-MP2 Energies <==================
	-----------------------------------------------------------
	 SCS Same-Spin Scale       =       0.3333333333333333 [-]
	 SCS Opposite-Spin Scale   =       1.2000000000000000 [-]
	 SCS Same-Spin Energy      =      -0.1494724789026109 [Eh]
	 SCS Opposite-Spin Energy  =      -1.7275534568424742 [Eh]
	 SCS Correlation Energy    =      -1.8770259357450851 [Eh]
	 SCS Total Energy          =    -459.6822589709746580 [Eh]
	-----------------------------------------------------------

  Dipole Moment: [D]
     X:    -1.4364      Y:     1.0077      Z:     0.9827     Total:     2.0111

*** Psi4 exiting successfully. Buy a developer a beer!
