                               Psi4 1.3.2 release

  ==> Input File <==

--------------------------------------------------------------------------
#psi4
#
memory 32 gb

molecule  {
0 1
  O       -1.2542770    -0.2468050     0.3469180
  O       -0.1468590     1.6858550    -0.1065980
  O        2.1477990    -1.6706520    -0.3530900
  C        0.9946260    -0.1111920     1.0566790
  C       -2.4120090     0.3089700    -0.3319760
  C       -0.0998161     0.5195765     0.4236673
  C        2.0280760    -0.5019680    -0.0034050
  C       -3.4935710    -0.7441700    -0.2685760
  C        2.8657550     0.6173710    -0.5671120
  H        0.6699150    -1.0123850     1.5771470
  H        1.4326490     0.6059550     1.7585010
  H       -2.7005340     1.2360120     0.1703920
  H       -2.1291700     0.5558430    -1.3586020
  H       -4.3948760    -0.3798980    -0.7694460
  H       -3.1658200    -1.6603590    -0.7638670
  H       -3.7423020    -0.9776200     0.7686940
  H        3.4353450     0.2519410    -1.4221430
  H        3.5571500     0.9732660     0.2049480
  H        2.2307250     1.4606800    -0.8503130
units angstrom
no_reorient  #important for SAPT in psi4, default
symmetry c1  #important for SAPT in psi4, default
}

set PROPERTIES_ORIGIN ["COM"]
properties('MP2/aug-cc-pvtz', properties = ['dipole'])
--------------------------------------------------------------------------

    Molecular point group: c1
  Charge       = 0
  Multiplicity = 1
  Basis Set: AUG-CC-PVTZ
    Blend: AUG-CC-PVTZ
  Basis Set: (AUG-CC-PVTZ AUX)
    Blend: AUG-CC-PVTZ-JKFIT

    Orbital Energies [Eh]
    ---------------------

    Doubly Occupied:

       1A    -20.607534     2A    -20.566851     3A    -20.553321
       4A    -11.407481     5A    -11.359055     6A    -11.292491
       7A    -11.268365     8A    -11.240643     9A    -11.226583
      10A     -1.441299    11A     -1.396646    12A     -1.330081
      13A     -1.107367    14A     -1.037909    15A     -1.002861
      16A     -0.872281    17A     -0.801232    18A     -0.759050
      19A     -0.712923    20A     -0.687831    21A     -0.675481
      22A     -0.656812    23A     -0.641696    24A     -0.603035
      25A     -0.586939    26A     -0.572449    27A     -0.566722
      28A     -0.553918    29A     -0.541326    30A     -0.513376
      31A     -0.506104    32A     -0.503349    33A     -0.458999
      34A     -0.455493    35A     -0.430216

  @DF-RHF Final Energy:  -457.78375052705735

   => Energetics <=

    Nuclear Repulsion Energy =            452.8242131697643913
    One-Electron Energy =               -1523.3404840682765098
    Two-Electron Energy =                 612.7325203714548252
    Total Energy =                       -457.7837505270573502
  Basis Set: (AUG-CC-PVTZ AUX)
    Blend: AUG-CC-PVTZ-RI
    Molecular point group: c1

    Geometry (in Angstrom), charge = 0, multiplicity = 1:

       Center              X                  Y                   Z               Mass
    ------------   -----------------  -----------------  -----------------  -----------------
         O           -1.298063547297    -0.234659146655     0.337556887160    15.994914619570
         O           -0.190645547297     1.698000853345    -0.115959112840    15.994914619570
         O            2.104012452703    -1.658506146655    -0.362451112840    15.994914619570
         C            0.950839452703    -0.099046146655     1.047317887160    12.000000000000
         C           -2.455795547297     0.321115853345    -0.341337112840    12.000000000000
         C           -0.143602647297     0.531722353345     0.414306187160    12.000000000000
         C            1.984289452703    -0.489822146655    -0.012766112840    12.000000000000
         C           -3.537357547297    -0.732024146655    -0.277937112840    12.000000000000
         C            2.821968452703     0.629516853345    -0.576473112840    12.000000000000
         H            0.626128452703    -1.000239146655     1.567785887160     1.007825032230
         H            1.388862452703     0.618100853345     1.749139887160     1.007825032230
         H           -2.744320547297     1.248157853345     0.161030887160     1.007825032230
         H           -2.172956547297     0.567988853345    -1.367963112840     1.007825032230
         H           -4.438662547297    -0.367752146655    -0.778807112840     1.007825032230
         H           -3.209606547297    -1.648213146655    -0.773228112840     1.007825032230
         H           -3.786088547297    -0.965474146655     0.759332887160     1.007825032230
         H            3.391558452703     0.264086853345    -1.431504112840     1.007825032230
         H            3.513363452703     0.985411853345     0.195586887160     1.007825032230
         H            2.186938452703     1.472825853345    -0.859674112840     1.007825032230

  Basis Set: AUG-CC-PVTZ
    Blend: AUG-CC-PVTZ
  Basis Set: (AUG-CC-PVTZ AUX)
    Blend: AUG-CC-PVTZ-JKFIT
	 Reference Energy          =    -457.7837505270573502 [Eh]
	 Singles Energy            =      -0.0000000000000000 [Eh]
	 Same-Spin Energy          =      -0.4510980226758801 [Eh]
	 Opposite-Spin Energy      =      -1.4445458004889815 [Eh]
	 Correlation Energy        =      -1.8956438231648616 [Eh]
	 Total Energy              =    -459.6793943502221964 [Eh]

	 ================> DF-SCS-MP2 Energies <==================
	-----------------------------------------------------------
	 SCS Same-Spin Scale       =       0.3333333333333333 [-]
	 SCS Opposite-Spin Scale   =       1.2000000000000000 [-]
	 SCS Same-Spin Energy      =      -0.1503660075586267 [Eh]
	 SCS Opposite-Spin Energy  =      -1.7334549605867777 [Eh]
	 SCS Correlation Energy    =      -1.8838209681454043 [Eh]
	 SCS Total Energy          =    -459.6675714952027647 [Eh]
	-----------------------------------------------------------

  Dipole Moment: [D]
     X:    -0.6953      Y:     0.8605      Z:     1.1655     Total:     1.6069

*** Psi4 exiting successfully. Buy a developer a beer!
