                               Psi4 1.4a3.dev225

  ==> Input File <==

--------------------------------------------------------------------------
#psi4
#
memory 32 gb

molecule  {
0 1
  O       -1.2544100    -0.2466020     0.3472100
  O       -0.1467170     1.6857710    -0.1068680
  O        2.1477710    -1.6706650    -0.3531650
  C        0.9946280    -0.1112570     1.0566320
  C       -2.4121570     0.3091030    -0.3317080
  C       -0.1927514     0.5731634     0.3698609
  C        2.0280890    -0.5019850    -0.0034200
  C       -3.4935060    -0.7442920    -0.2688040
  C        2.8658400     0.6173540    -0.5670070
  H        0.6698310    -1.0124810     1.5769910
  H        1.4325960     0.6058250     1.7585570
  H       -2.7009940     1.2359100     0.1709210
  H       -2.1292340     0.5563720    -1.3582130
  H       -4.3948380    -0.3800300    -0.7696350
  H       -3.1655030    -1.6602290    -0.7643920
  H       -3.7422990    -0.9781810     0.7683530
  H        3.4354090     0.2520080    -1.4220870
  H        3.5572420     0.9731160     0.2051050
  H        2.2308310     1.4607170    -0.8501030
units angstrom
no_reorient  #important for SAPT in psi4, default
symmetry c1  #important for SAPT in psi4, default
}

set PROPERTIES_ORIGIN ["COM"]
properties('MP2/aug-cc-pvtz', properties = ['dipole'])
--------------------------------------------------------------------------

    Molecular point group: c1
  Charge       = 0
  Multiplicity = 1
  Basis Set: AUG-CC-PVTZ
    Blend: AUG-CC-PVTZ
  Basis Set: (AUG-CC-PVTZ AUX)
    Blend: AUG-CC-PVTZ-JKFIT

    Orbital Energies [Eh]
    ---------------------

    Doubly Occupied:

       1A    -20.617434     2A    -20.559721     3A    -20.556965
       4A    -11.399244     5A    -11.347851     6A    -11.297957
       7A    -11.261848     8A    -11.235605     9A    -11.230583
      10A     -1.472360    11A     -1.387456    12A     -1.373875
      13A     -1.078750    14A     -1.040989    15A     -0.988630
      16A     -0.877081    17A     -0.800286    18A     -0.755343
      19A     -0.709412    20A     -0.695697    21A     -0.680694
      22A     -0.651244    23A     -0.642379    24A     -0.602846
      25A     -0.588934    26A     -0.576548    27A     -0.568967
      28A     -0.551046    29A     -0.538359    30A     -0.523632
      31A     -0.516851    32A     -0.503558    33A     -0.472594
      34A     -0.456450    35A     -0.421888

  @DF-RHF Final Energy:  -457.80740199799328

   => Energetics <=

    Nuclear Repulsion Energy =            453.2792517319683725
    One-Electron Energy =               -1524.2071545694143424
    Two-Electron Energy =                 613.1205008394528022
    Total Energy =                       -457.8074019979932245
  Basis Set: (AUG-CC-PVTZ AUX)
    Blend: AUG-CC-PVTZ-RI
    Molecular point group: c1

    Geometry (in Angstrom), charge = 0, multiplicity = 1:

       Center              X                  Y                   Z               Mass
    ------------   -----------------  -----------------  -----------------  -----------------
         O           -1.289620973351    -0.239401989033     0.342810644953    15.994914619570
         O           -0.181927973351     1.692971010967    -0.111267355047    15.994914619570
         O            2.112560026649    -1.663464989033    -0.357564355047    15.994914619570
         C            0.959417026649    -0.104056989033     1.052232644953    12.000000000000
         C           -2.447367973351     0.316303010967    -0.336107355047    12.000000000000
         C           -0.227962373351     0.580363410967     0.365461544953    12.000000000000
         C            1.992878026649    -0.494784989033    -0.007819355047    12.000000000000
         C           -3.528716973351    -0.737091989033    -0.273203355047    12.000000000000
         C            2.830629026649     0.624554010967    -0.571406355047    12.000000000000
         H            0.634620026649    -1.005280989033     1.572591644953     1.007825032230
         H            1.397385026649     0.613025010967     1.754157644953     1.007825032230
         H           -2.736204973351     1.243110010967     0.166521644953     1.007825032230
         H           -2.164444973351     0.563572010967    -1.362612355047     1.007825032230
         H           -4.430048973351    -0.372829989033    -0.774034355047     1.007825032230
         H           -3.200713973351    -1.653028989033    -0.768791355047     1.007825032230
         H           -3.777509973351    -0.970980989033     0.763953644953     1.007825032230
         H            3.400198026649     0.259208010967    -1.426486355047     1.007825032230
         H            3.522031026649     0.980316010967     0.200705644953     1.007825032230
         H            2.195620026649     1.467917010967    -0.854502355047     1.007825032230

  Basis Set: AUG-CC-PVTZ
    Blend: AUG-CC-PVTZ
  Basis Set: (AUG-CC-PVTZ AUX)
    Blend: AUG-CC-PVTZ-JKFIT
	 Reference Energy          =    -457.8074019979932814 [Eh]
	 Singles Energy            =      -0.0000000000000000 [Eh]
	 Same-Spin Energy          =      -0.4478730387944644 [Eh]
	 Opposite-Spin Energy      =      -1.4386724379217017 [Eh]
	 Correlation Energy        =      -1.8865454767161660 [Eh]
	 Total Energy              =    -459.6939474747094323 [Eh]

	 ================> DF-SCS-MP2 Energies <==================
	-----------------------------------------------------------
	 SCS Same-Spin Scale       =       0.3333333333333333 [-]
	 SCS Opposite-Spin Scale   =       1.2000000000000000 [-]
	 SCS Same-Spin Energy      =      -0.1492910129314881 [Eh]
	 SCS Opposite-Spin Energy  =      -1.7264069255060421 [Eh]
	 SCS Correlation Energy    =      -1.8756979384375303 [Eh]
	 SCS Total Energy          =    -459.6830999364308354 [Eh]
	-----------------------------------------------------------

  Dipole Moment: [D]
     X:    -1.4366      Y:     1.1721      Z:     0.9499     Total:     2.0833

*** Psi4 exiting successfully. Buy a developer a beer!
