                               Psi4 1.3.2 release

  ==> Input File <==

--------------------------------------------------------------------------
#psi4
#
memory 32 gb

molecule  {
0 1
  O       -1.2542770    -0.2468050     0.3469180
  O       -0.1468590     1.6858550    -0.1065980
  O        2.1477990    -1.6706520    -0.3530900
  C        0.9946260    -0.1111920     1.0566790
  C       -2.4120090     0.3089700    -0.3319760
  C       -0.1772750     0.5642190     0.3788660
  C        2.1630637    -0.5530106    -0.1418716
  C       -3.4935710    -0.7441700    -0.2685760
  C        2.8657550     0.6173710    -0.5671120
  H        0.6699150    -1.0123850     1.5771470
  H        1.4326490     0.6059550     1.7585010
  H       -2.7005340     1.2360120     0.1703920
  H       -2.1291700     0.5558430    -1.3586020
  H       -4.3948760    -0.3798980    -0.7694460
  H       -3.1658200    -1.6603590    -0.7638670
  H       -3.7423020    -0.9776200     0.7686940
  H        3.4353450     0.2519410    -1.4221430
  H        3.5571500     0.9732660     0.2049480
  H        2.2307250     1.4606800    -0.8503130
units angstrom
no_reorient  #important for SAPT in psi4, default
symmetry c1  #important for SAPT in psi4, default
}

set PROPERTIES_ORIGIN ["COM"]
properties('MP2/aug-cc-pvtz', properties = ['dipole'])
--------------------------------------------------------------------------

    Molecular point group: c1
  Charge       = 0
  Multiplicity = 1
  Basis Set: AUG-CC-PVTZ
    Blend: AUG-CC-PVTZ
  Basis Set: (AUG-CC-PVTZ AUX)
    Blend: AUG-CC-PVTZ-JKFIT

    Orbital Energies [Eh]
    ---------------------

    Doubly Occupied:

       1A    -20.604137     2A    -20.575851     3A    -20.543527
       4A    -11.383622     5A    -11.355378     6A    -11.289702
       7A    -11.244564     8A    -11.241850     9A    -11.224949
      10A     -1.463239    11A     -1.454108    12A     -1.353445
      13A     -1.067058    14A     -1.045680    15A     -0.985962
      16A     -0.863027    17A     -0.784457    18A     -0.756377
      19A     -0.696146    20A     -0.688154    21A     -0.674357
      22A     -0.666569    23A     -0.654754    24A     -0.623713
      25A     -0.593709    26A     -0.577186    27A     -0.562448
      28A     -0.550007    29A     -0.540848    30A     -0.531449
      31A     -0.514301    32A     -0.507603    33A     -0.460847
      34A     -0.448619    35A     -0.387132

  @DF-RHF Final Energy:  -457.77795377377277

   => Energetics <=

    Nuclear Repulsion Energy =            452.5573025108674301
    One-Electron Energy =               -1522.8409529330665464
    Two-Electron Energy =                 612.5056966484263512
    Total Energy =                       -457.7779537737727651
  Basis Set: (AUG-CC-PVTZ AUX)
    Blend: AUG-CC-PVTZ-RI
    Molecular point group: c1

    Geometry (in Angstrom), charge = 0, multiplicity = 1:

       Center              X                  Y                   Z               Mass
    ------------   -----------------  -----------------  -----------------  -----------------
         O           -1.303371326073    -0.234068654329     0.354465730554    15.994914619570
         O           -0.195953326073     1.698591345671    -0.099050269446    15.994914619570
         O            2.098704673927    -1.657915654329    -0.345542269446    15.994914619570
         C            0.945531673927    -0.098455654329     1.064226730554    12.000000000000
         C           -2.461103326073     0.321706345671    -0.324428269446    12.000000000000
         C           -0.226369326073     0.576955345671     0.386413730554    12.000000000000
         C            2.113969373927    -0.540274254329    -0.134323869446    12.000000000000
         C           -3.542665326073    -0.731433654329    -0.261028269446    12.000000000000
         C            2.816660673927     0.630107345671    -0.559564269446    12.000000000000
         H            0.620820673927    -0.999648654329     1.584694730554     1.007825032230
         H            1.383554673927     0.618691345671     1.766048730554     1.007825032230
         H           -2.749628326073     1.248748345671     0.177939730554     1.007825032230
         H           -2.178264326073     0.568579345671    -1.351054269446     1.007825032230
         H           -4.443970326073    -0.367161654329    -0.761898269446     1.007825032230
         H           -3.214914326073    -1.647622654329    -0.756319269446     1.007825032230
         H           -3.791396326073    -0.964883654329     0.776241730554     1.007825032230
         H            3.386250673927     0.264677345671    -1.414595269446     1.007825032230
         H            3.508055673927     0.986002345671     0.212495730554     1.007825032230
         H            2.181630673927     1.473416345671    -0.842765269446     1.007825032230

  Basis Set: AUG-CC-PVTZ
    Blend: AUG-CC-PVTZ
  Basis Set: (AUG-CC-PVTZ AUX)
    Blend: AUG-CC-PVTZ-JKFIT
	 Reference Energy          =    -457.7779537737727651 [Eh]
	 Singles Energy            =      -0.0000000000000000 [Eh]
	 Same-Spin Energy          =      -0.4476503050845321 [Eh]
	 Opposite-Spin Energy      =      -1.4365188872736583 [Eh]
	 Correlation Energy        =      -1.8841691923581902 [Eh]
	 Total Energy              =    -459.6621229661309371 [Eh]

	 ================> DF-SCS-MP2 Energies <==================
	-----------------------------------------------------------
	 SCS Same-Spin Scale       =       0.3333333333333333 [-]
	 SCS Opposite-Spin Scale   =       1.2000000000000000 [-]
	 SCS Same-Spin Energy      =      -0.1492167683615107 [Eh]
	 SCS Opposite-Spin Energy  =      -1.7238226647283899 [Eh]
	 SCS Correlation Energy    =      -1.8730394330899005 [Eh]
	 SCS Total Energy          =    -459.6509932068626654 [Eh]
	-----------------------------------------------------------

  Dipole Moment: [D]
     X:    -0.0662      Y:     0.6511      Z:     0.2559     Total:     0.7027

*** Psi4 exiting successfully. Buy a developer a beer!
