                               Psi4 1.4a3.dev225

  ==> Input File <==

--------------------------------------------------------------------------
#psi4
#
memory 32 gb

molecule  {
0 1
  O       -1.2544100    -0.2466020     0.3472100
  O       -0.1467170     1.6857710    -0.1068680
  O        2.1477710    -1.6706650    -0.3531650
  C        0.9946280    -0.1112570     1.0566320
  C       -2.4121570     0.3091030    -0.3317080
  C       -0.1772600     0.5642340     0.3788210
  C        2.0280890    -0.5019850    -0.0034200
  C       -3.4935060    -0.7442920    -0.2688040
  C        2.8658400     0.6173540    -0.5670070
  H        0.6847276    -0.9711469     1.5531250
  H        1.4325960     0.6058250     1.7585570
  H       -2.7009940     1.2359100     0.1709210
  H       -2.1292340     0.5563720    -1.3582130
  H       -4.3948380    -0.3800300    -0.7696350
  H       -3.1655030    -1.6602290    -0.7643920
  H       -3.7422990    -0.9781810     0.7683530
  H        3.4354090     0.2520080    -1.4220870
  H        3.5572420     0.9731160     0.2051050
  H        2.2308310     1.4607170    -0.8501030
units angstrom
no_reorient  #important for SAPT in psi4, default
symmetry c1  #important for SAPT in psi4, default
}

set PROPERTIES_ORIGIN ["COM"]
properties('MP2/aug-cc-pvtz', properties = ['dipole'])
--------------------------------------------------------------------------

    Molecular point group: c1
  Charge       = 0
  Multiplicity = 1
  Basis Set: AUG-CC-PVTZ
    Blend: AUG-CC-PVTZ
  Basis Set: (AUG-CC-PVTZ AUX)
    Blend: AUG-CC-PVTZ-JKFIT

    Orbital Energies [Eh]
    ---------------------

    Doubly Occupied:

       1A    -20.615902     2A    -20.558718     3A    -20.558325
       4A    -11.400137     5A    -11.349502     6A    -11.297114
       7A    -11.257955     8A    -11.236173     9A    -11.229950
      10A     -1.467172    11A     -1.389117    12A     -1.366314
      13A     -1.084610    14A     -1.040982    15A     -0.992784
      16A     -0.876693    17A     -0.799714    18A     -0.757214
      19A     -0.712988    20A     -0.693851    21A     -0.679563
      22A     -0.652755    23A     -0.645479    24A     -0.603484
      25A     -0.589073    26A     -0.577129    27A     -0.569241
      28A     -0.551862    29A     -0.541631    30A     -0.522063
      31A     -0.514557    32A     -0.503926    33A     -0.470079
      34A     -0.458069    35A     -0.423427

  @DF-RHF Final Energy:  -457.80559685453215

   => Energetics <=

    Nuclear Repulsion Energy =            453.4474532653343886
    One-Electron Energy =               -1524.5309929824031769
    Two-Electron Energy =                 613.2779428625366336
    Total Energy =                       -457.8055968545321548
  Basis Set: (AUG-CC-PVTZ AUX)
    Blend: AUG-CC-PVTZ-RI
    Molecular point group: c1

    Geometry (in Angstrom), charge = 0, multiplicity = 1:

       Center              X                  Y                   Z               Mass
    ------------   -----------------  -----------------  -----------------  -----------------
         O           -1.291165686109    -0.238898423359     0.342168890946    15.994914619570
         O           -0.183472686109     1.693474576641    -0.111909109054    15.994914619570
         O            2.111015313891    -1.662961423359    -0.358206109054    15.994914619570
         C            0.957872313891    -0.103553423359     1.051590890946    12.000000000000
         C           -2.448912686109     0.316806576641    -0.336749109054    12.000000000000
         C           -0.214015686109     0.571937576641     0.373779890946    12.000000000000
         C            1.991333313891    -0.494281423359    -0.008461109054    12.000000000000
         C           -3.530261686109    -0.736588423359    -0.273845109054    12.000000000000
         C            2.829084313891     0.625057576641    -0.572048109054    12.000000000000
         H            0.647971913891    -0.963443323359     1.548083890946     1.007825032230
         H            1.395840313891     0.613528576641     1.753515890946     1.007825032230
         H           -2.737749686109     1.243613576641     0.165879890946     1.007825032230
         H           -2.165989686109     0.564075576641    -1.363254109054     1.007825032230
         H           -4.431593686109    -0.372326423359    -0.774676109054     1.007825032230
         H           -3.202258686109    -1.652525423359    -0.769433109054     1.007825032230
         H           -3.779054686109    -0.970477423359     0.763311890946     1.007825032230
         H            3.398653313891     0.259711576641    -1.427128109054     1.007825032230
         H            3.520486313891     0.980819576641     0.200063890946     1.007825032230
         H            2.194075313891     1.468420576641    -0.855144109054     1.007825032230

  Basis Set: AUG-CC-PVTZ
    Blend: AUG-CC-PVTZ
  Basis Set: (AUG-CC-PVTZ AUX)
    Blend: AUG-CC-PVTZ-JKFIT
	 Reference Energy          =    -457.8055968545321548 [Eh]
	 Singles Energy            =      -0.0000000000000000 [Eh]
	 Same-Spin Energy          =      -0.4481944774002027 [Eh]
	 Opposite-Spin Energy      =      -1.4390395395951123 [Eh]
	 Correlation Energy        =      -1.8872340169953150 [Eh]
	 Total Energy              =    -459.6928308715274625 [Eh]

	 ================> DF-SCS-MP2 Energies <==================
	-----------------------------------------------------------
	 SCS Same-Spin Scale       =       0.3333333333333333 [-]
	 SCS Opposite-Spin Scale   =       1.2000000000000000 [-]
	 SCS Same-Spin Energy      =      -0.1493981591334009 [Eh]
	 SCS Opposite-Spin Energy  =      -1.7268474475141347 [Eh]
	 SCS Correlation Energy    =      -1.8762456066475355 [Eh]
	 SCS Total Energy          =    -459.6818424611797127 [Eh]
	-----------------------------------------------------------

  Dipole Moment: [D]
     X:    -1.3113      Y:     1.1171      Z:     0.9946     Total:     1.9891

*** Psi4 exiting successfully. Buy a developer a beer!
