                               Psi4 1.3.2 release

  ==> Input File <==

--------------------------------------------------------------------------
#psi4
#
memory 32 gb

molecule  {
0 1
  O       -1.2542770    -0.2468050     0.3469180
  O       -0.1468590     1.6858550    -0.1065980
  O        2.1477990    -1.6706520    -0.3530900
  C        0.9946260    -0.1111920     1.0566790
  C       -2.4120090     0.3089700    -0.3319760
  C       -0.1856573     0.5199566     0.3513102
  C        2.0280760    -0.5019680    -0.0034050
  C       -3.4935710    -0.7441700    -0.2685760
  C        2.8657550     0.6173710    -0.5671120
  H        0.6699150    -1.0123850     1.5771470
  H        1.4326490     0.6059550     1.7585010
  H       -2.7005340     1.2360120     0.1703920
  H       -2.1291700     0.5558430    -1.3586020
  H       -4.3948760    -0.3798980    -0.7694460
  H       -3.1658200    -1.6603590    -0.7638670
  H       -3.7423020    -0.9776200     0.7686940
  H        3.4353450     0.2519410    -1.4221430
  H        3.5571500     0.9732660     0.2049480
  H        2.2307250     1.4606800    -0.8503130
units angstrom
no_reorient  #important for SAPT in psi4, default
symmetry c1  #important for SAPT in psi4, default
}

set PROPERTIES_ORIGIN ["COM"]
properties('MP2/aug-cc-pvtz', properties = ['dipole'])
--------------------------------------------------------------------------

    Molecular point group: c1
  Charge       = 0
  Multiplicity = 1
  Basis Set: AUG-CC-PVTZ
    Blend: AUG-CC-PVTZ
  Basis Set: (AUG-CC-PVTZ AUX)
    Blend: AUG-CC-PVTZ-JKFIT

    Orbital Energies [Eh]
    ---------------------

    Doubly Occupied:

       1A    -20.624407     2A    -20.557849     3A    -20.550772
       4A    -11.401374     5A    -11.348683     6A    -11.301356
       7A    -11.262873     8A    -11.235030     9A    -11.232641
      10A     -1.477145    11A     -1.388527    12A     -1.350943
      13A     -1.084020    14A     -1.044735    15A     -0.990683
      16A     -0.882959    17A     -0.803163    18A     -0.757163
      19A     -0.707063    20A     -0.697493    21A     -0.681298
      22A     -0.652400    23A     -0.641281    24A     -0.602428
      25A     -0.588040    26A     -0.573751    27A     -0.568909
      28A     -0.552382    29A     -0.540396    30A     -0.525194
      31A     -0.511480    32A     -0.502262    33A     -0.467716
      34A     -0.454431    35A     -0.421948

  @DF-RHF Final Energy:  -457.80272352762120

   => Energetics <=

    Nuclear Repulsion Energy =            453.4059908757785706
    One-Electron Energy =               -1524.4518430319174058
    Two-Electron Energy =                 613.2431286285176384
    Total Energy =                       -457.8027235276211968
  Basis Set: (AUG-CC-PVTZ AUX)
    Blend: AUG-CC-PVTZ-RI
    Molecular point group: c1

    Geometry (in Angstrom), charge = 0, multiplicity = 1:

       Center              X                  Y                   Z               Mass
    ------------   -----------------  -----------------  -----------------  -----------------
         O           -1.290143582003    -0.234694215816     0.344232769147    15.994914619570
         O           -0.182725582003     1.697965784184    -0.109283230853    15.994914619570
         O            2.111932417997    -1.658541215816    -0.355775230853    15.994914619570
         C            0.958759417997    -0.099081215816     1.053993769147    12.000000000000
         C           -2.447875582003     0.321080784184    -0.334661230853    12.000000000000
         C           -0.221523882003     0.532067384184     0.348624969147    12.000000000000
         C            1.992209417997    -0.489857215816    -0.006090230853    12.000000000000
         C           -3.529437582003    -0.732059215816    -0.271261230853    12.000000000000
         C            2.829888417997     0.629481784184    -0.569797230853    12.000000000000
         H            0.634048417997    -1.000274215816     1.574461769147     1.007825032230
         H            1.396782417997     0.618065784184     1.755815769147     1.007825032230
         H           -2.736400582003     1.248122784184     0.167706769147     1.007825032230
         H           -2.165036582003     0.567953784184    -1.361287230853     1.007825032230
         H           -4.430742582003    -0.367787215816    -0.772131230853     1.007825032230
         H           -3.201686582003    -1.648248215816    -0.766552230853     1.007825032230
         H           -3.778168582003    -0.965509215816     0.766008769147     1.007825032230
         H            3.399478417997     0.264051784184    -1.424828230853     1.007825032230
         H            3.521283417997     0.985376784184     0.202262769147     1.007825032230
         H            2.194858417997     1.472790784184    -0.852998230853     1.007825032230

  Basis Set: AUG-CC-PVTZ
    Blend: AUG-CC-PVTZ
  Basis Set: (AUG-CC-PVTZ AUX)
    Blend: AUG-CC-PVTZ-JKFIT
	 Reference Energy          =    -457.8027235276211968 [Eh]
	 Singles Energy            =      -0.0000000000000000 [Eh]
	 Same-Spin Energy          =      -0.4486029514512525 [Eh]
	 Opposite-Spin Energy      =      -1.4399445640847146 [Eh]
	 Correlation Energy        =      -1.8885475155359670 [Eh]
	 Total Energy              =    -459.6912710431571440 [Eh]

	 ================> DF-SCS-MP2 Energies <==================
	-----------------------------------------------------------
	 SCS Same-Spin Scale       =       0.3333333333333333 [-]
	 SCS Opposite-Spin Scale   =       1.2000000000000000 [-]
	 SCS Same-Spin Energy      =      -0.1495343171504175 [Eh]
	 SCS Opposite-Spin Energy  =      -1.7279334769016574 [Eh]
	 SCS Correlation Energy    =      -1.8774677940520750 [Eh]
	 SCS Total Energy          =    -459.6801913216732487 [Eh]
	-----------------------------------------------------------

  Dipole Moment: [D]
     X:    -1.5588      Y:     0.9008      Z:     0.9793     Total:     2.0495

*** Psi4 exiting successfully. Buy a developer a beer!
