                               Psi4 1.4a3.dev225

  ==> Input File <==

--------------------------------------------------------------------------
#psi4
#
memory 32 gb

molecule  {
0 1
  O       -1.2544100    -0.2466020     0.3472100
  O       -0.1467170     1.6857710    -0.1068680
  O        2.1477710    -1.6706650    -0.3531650
  C        0.9946280    -0.1112570     1.0566320
  C       -2.4520072     0.3282306    -0.3550767
  C       -0.1772600     0.5642340     0.3788210
  C        2.0280890    -0.5019850    -0.0034200
  C       -3.4935060    -0.7442920    -0.2688040
  C        2.8658400     0.6173540    -0.5670070
  H        0.6698310    -1.0124810     1.5769910
  H        1.4325960     0.6058250     1.7585570
  H       -2.7009940     1.2359100     0.1709210
  H       -2.1292340     0.5563720    -1.3582130
  H       -4.3948380    -0.3800300    -0.7696350
  H       -3.1655030    -1.6602290    -0.7643920
  H       -3.7422990    -0.9781810     0.7683530
  H        3.4354090     0.2520080    -1.4220870
  H        3.5572420     0.9731160     0.2051050
  H        2.2308310     1.4607170    -0.8501030
units angstrom
no_reorient  #important for SAPT in psi4, default
symmetry c1  #important for SAPT in psi4, default
}

set PROPERTIES_ORIGIN ["COM"]
properties('MP2/aug-cc-pvtz', properties = ['dipole'])
--------------------------------------------------------------------------

    Molecular point group: c1
  Charge       = 0
  Multiplicity = 1
  Basis Set: AUG-CC-PVTZ
    Blend: AUG-CC-PVTZ
  Basis Set: (AUG-CC-PVTZ AUX)
    Blend: AUG-CC-PVTZ-JKFIT

    Orbital Energies [Eh]
    ---------------------

    Doubly Occupied:

       1A    -20.609773     2A    -20.557125     3A    -20.555091
       4A    -11.396855     5A    -11.348134     6A    -11.299207
       7A    -11.261088     8A    -11.235230     9A    -11.231836
      10A     -1.456561    11A     -1.387466    12A     -1.358566
      13A     -1.080556    14A     -1.044268    15A     -0.990132
      16A     -0.874495    17A     -0.797388    18A     -0.752815
      19A     -0.704840    20A     -0.690940    21A     -0.675660
      22A     -0.652579    23A     -0.640822    24A     -0.600617
      25A     -0.587425    26A     -0.574139    27A     -0.569966
      28A     -0.549287    29A     -0.538711    30A     -0.525527
      31A     -0.517846    32A     -0.502078    33A     -0.470960
      34A     -0.454658    35A     -0.421870

  @DF-RHF Final Energy:  -457.80376412882532

   => Energetics <=

    Nuclear Repulsion Energy =            452.3868775149516068
    One-Electron Energy =               -1522.5522568554654299
    Two-Electron Energy =                 612.3616152116885587
    Total Energy =                       -457.8037641288253781
  Basis Set: (AUG-CC-PVTZ AUX)
    Blend: AUG-CC-PVTZ-RI
    Molecular point group: c1

    Geometry (in Angstrom), charge = 0, multiplicity = 1:

       Center              X                  Y                   Z               Mass
    ------------   -----------------  -----------------  -----------------  -----------------
         O           -1.287373557768    -0.240342905400     0.344140025390    15.994914619570
         O           -0.179680557768     1.692030094600    -0.109937974610    15.994914619570
         O            2.114807442232    -1.664405905400    -0.356234974610    15.994914619570
         C            0.961664442232    -0.104997905400     1.053562025390    12.000000000000
         C           -2.484970757768     0.334489694600    -0.358146674610    12.000000000000
         C           -0.210223557768     0.570493094600     0.375751025390    12.000000000000
         C            1.995125442232    -0.495725905400    -0.006489974610    12.000000000000
         C           -3.526469557768    -0.738032905400    -0.271873974610    12.000000000000
         C            2.832876442232     0.623613094600    -0.570076974610    12.000000000000
         H            0.636867442232    -1.006221905400     1.573921025390     1.007825032230
         H            1.399632442232     0.612084094600     1.755487025390     1.007825032230
         H           -2.733957557768     1.242169094600     0.167851025390     1.007825032230
         H           -2.162197557768     0.562631094600    -1.361282974610     1.007825032230
         H           -4.427801557768    -0.373770905400    -0.772704974610     1.007825032230
         H           -3.198466557768    -1.653969905400    -0.767461974610     1.007825032230
         H           -3.775262557768    -0.971921905400     0.765283025390     1.007825032230
         H            3.402445442232     0.258267094600    -1.425156974610     1.007825032230
         H            3.524278442232     0.979375094600     0.202035025390     1.007825032230
         H            2.197867442232     1.466976094600    -0.853172974610     1.007825032230

  Basis Set: AUG-CC-PVTZ
    Blend: AUG-CC-PVTZ
  Basis Set: (AUG-CC-PVTZ AUX)
    Blend: AUG-CC-PVTZ-JKFIT
	 Reference Energy          =    -457.8037641288253212 [Eh]
	 Singles Energy            =      -0.0000000000000000 [Eh]
	 Same-Spin Energy          =      -0.4484357560860035 [Eh]
	 Opposite-Spin Energy      =      -1.4400159843567923 [Eh]
	 Correlation Energy        =      -1.8884517404427958 [Eh]
	 Total Energy              =    -459.6922158692681251 [Eh]

	 ================> DF-SCS-MP2 Energies <==================
	-----------------------------------------------------------
	 SCS Same-Spin Scale       =       0.3333333333333333 [-]
	 SCS Opposite-Spin Scale   =       1.2000000000000000 [-]
	 SCS Same-Spin Energy      =      -0.1494785853620011 [Eh]
	 SCS Opposite-Spin Energy  =      -1.7280191812281507 [Eh]
	 SCS Correlation Energy    =      -1.8774977665901518 [Eh]
	 SCS Total Energy          =    -459.6812618954154459 [Eh]
	-----------------------------------------------------------

  Dipole Moment: [D]
     X:    -1.5278      Y:     1.1206      Z:     0.9219     Total:     2.1071

*** Psi4 exiting successfully. Buy a developer a beer!
