                               Psi4 1.3.2 release

  ==> Input File <==

--------------------------------------------------------------------------
#psi4
#
memory 32 gb

molecule  {
0 1
  O       -1.2542770    -0.2468050     0.3469180
  O       -0.1468590     1.6858550    -0.1065980
  O        2.1477990    -1.6706520    -0.3530900
  C        0.9946260    -0.1111920     1.0566790
  C       -2.4120090     0.3089700    -0.3319760
  C       -0.1772750     0.5642190     0.3788660
  C        1.9916248    -0.5340168    -0.0257791
  C       -3.4935710    -0.7441700    -0.2685760
  C        2.8657550     0.6173710    -0.5671120
  H        0.6699150    -1.0123850     1.5771470
  H        1.4326490     0.6059550     1.7585010
  H       -2.7005340     1.2360120     0.1703920
  H       -2.1291700     0.5558430    -1.3586020
  H       -4.3948760    -0.3798980    -0.7694460
  H       -3.1658200    -1.6603590    -0.7638670
  H       -3.7423020    -0.9776200     0.7686940
  H        3.4353450     0.2519410    -1.4221430
  H        3.5571500     0.9732660     0.2049480
  H        2.2307250     1.4606800    -0.8503130
units angstrom
no_reorient  #important for SAPT in psi4, default
symmetry c1  #important for SAPT in psi4, default
}

set PROPERTIES_ORIGIN ["COM"]
properties('MP2/aug-cc-pvtz', properties = ['dipole'])
--------------------------------------------------------------------------

    Molecular point group: c1
  Charge       = 0
  Multiplicity = 1
  Basis Set: AUG-CC-PVTZ
    Blend: AUG-CC-PVTZ
  Basis Set: (AUG-CC-PVTZ AUX)
    Blend: AUG-CC-PVTZ-JKFIT

    Orbital Energies [Eh]
    ---------------------

    Doubly Occupied:

       1A    -20.615454     2A    -20.561642     3A    -20.558046
       4A    -11.399540     5A    -11.347175     6A    -11.296897
       7A    -11.262091     8A    -11.234039     9A    -11.229968
      10A     -1.466876    11A     -1.412117    12A     -1.366015
      13A     -1.081239    14A     -1.038166    15A     -0.983295
      16A     -0.875909    17A     -0.799021    18A     -0.756614
      19A     -0.709191    20A     -0.694048    21A     -0.680053
      22A     -0.655887    23A     -0.644624    24A     -0.602208
      25A     -0.588438    26A     -0.577513    27A     -0.568762
      28A     -0.551450    29A     -0.537475    30A     -0.522223
      31A     -0.516352    32A     -0.513554    33A     -0.469736
      34A     -0.458622    35A     -0.417748

  @DF-RHF Final Energy:  -457.80690487162428

   => Energetics <=

    Nuclear Repulsion Energy =            453.5922035420069847
    One-Electron Energy =               -1524.8142398027684976
    Two-Electron Energy =                 613.4151313891372865
    Total Energy =                       -457.8069048716242833
  Basis Set: (AUG-CC-PVTZ AUX)
    Blend: AUG-CC-PVTZ-RI
    Molecular point group: c1

    Geometry (in Angstrom), charge = 0, multiplicity = 1:

       Center              X                  Y                   Z               Mass
    ------------   -----------------  -----------------  -----------------  -----------------
         O           -1.287553861521    -0.235821079002     0.343754690040    15.994914619570
         O           -0.180135861521     1.696838920998    -0.109761309960    15.994914619570
         O            2.114522138479    -1.659668079002    -0.356253309960    15.994914619570
         C            0.961349138479    -0.100208079002     1.053515690040    12.000000000000
         C           -2.445285861521     0.319953920998    -0.335139309960    12.000000000000
         C           -0.210551861521     0.575202920998     0.375702690040    12.000000000000
         C            1.958347938479    -0.523032879002    -0.028942409960    12.000000000000
         C           -3.526847861521    -0.733186079002    -0.271739309960    12.000000000000
         C            2.832478138479     0.628354920998    -0.570275309960    12.000000000000
         H            0.636638138479    -1.001401079002     1.573983690040     1.007825032230
         H            1.399372138479     0.616938920998     1.755337690040     1.007825032230
         H           -2.733810861521     1.246995920998     0.167228690040     1.007825032230
         H           -2.162446861521     0.566826920998    -1.361765309960     1.007825032230
         H           -4.428152861521    -0.368914079002    -0.772609309960     1.007825032230
         H           -3.199096861521    -1.649375079002    -0.767030309960     1.007825032230
         H           -3.775578861521    -0.966636079002     0.765530690040     1.007825032230
         H            3.402068138479     0.262924920998    -1.425306309960     1.007825032230
         H            3.523873138479     0.984249920998     0.201784690040     1.007825032230
         H            2.197448138479     1.471663920998    -0.853476309960     1.007825032230

  Basis Set: AUG-CC-PVTZ
    Blend: AUG-CC-PVTZ
  Basis Set: (AUG-CC-PVTZ AUX)
    Blend: AUG-CC-PVTZ-JKFIT
	 Reference Energy          =    -457.8069048716242833 [Eh]
	 Singles Energy            =      -0.0000000000000000 [Eh]
	 Same-Spin Energy          =      -0.4474063923351733 [Eh]
	 Opposite-Spin Energy      =      -1.4376869149401075 [Eh]
	 Correlation Energy        =      -1.8850933072752807 [Eh]
	 Total Energy              =    -459.6919981788995528 [Eh]

	 ================> DF-SCS-MP2 Energies <==================
	-----------------------------------------------------------
	 SCS Same-Spin Scale       =       0.3333333333333333 [-]
	 SCS Opposite-Spin Scale   =       1.2000000000000000 [-]
	 SCS Same-Spin Energy      =      -0.1491354641117244 [Eh]
	 SCS Opposite-Spin Energy  =      -1.7252242979281289 [Eh]
	 SCS Correlation Energy    =      -1.8743597620398533 [Eh]
	 SCS Total Energy          =    -459.6812646336641137 [Eh]
	-----------------------------------------------------------

  Dipole Moment: [D]
     X:    -1.3696      Y:     0.9285      Z:     0.9948     Total:     1.9306

*** Psi4 exiting successfully. Buy a developer a beer!
