                               Psi4 1.4a3.dev225

  ==> Input File <==

--------------------------------------------------------------------------
#psi4
#
memory 32 gb

molecule  {
0 1
  O       -1.2544100    -0.2466020     0.3472100
  O       -0.1467170     1.6857710    -0.1068680
  O        2.1477710    -1.6706650    -0.3531650
  C        0.9946280    -0.1112570     1.0566320
  C       -2.3962169     0.3014519    -0.3223605
  C       -0.1772600     0.5642340     0.3788210
  C        2.0280890    -0.5019850    -0.0034200
  C       -3.4935060    -0.7442920    -0.2688040
  C        2.8658400     0.6173540    -0.5670070
  H        0.6698310    -1.0124810     1.5769910
  H        1.4325960     0.6058250     1.7585570
  H       -2.7009940     1.2359100     0.1709210
  H       -2.1292340     0.5563720    -1.3582130
  H       -4.3948380    -0.3800300    -0.7696350
  H       -3.1655030    -1.6602290    -0.7643920
  H       -3.7422990    -0.9781810     0.7683530
  H        3.4354090     0.2520080    -1.4220870
  H        3.5572420     0.9731160     0.2051050
  H        2.2308310     1.4607170    -0.8501030
units angstrom
no_reorient  #important for SAPT in psi4, default
symmetry c1  #important for SAPT in psi4, default
}

set PROPERTIES_ORIGIN ["COM"]
properties('MP2/aug-cc-pvtz', properties = ['dipole'])
--------------------------------------------------------------------------

    Molecular point group: c1
  Charge       = 0
  Multiplicity = 1
  Basis Set: AUG-CC-PVTZ
    Blend: AUG-CC-PVTZ
  Basis Set: (AUG-CC-PVTZ AUX)
    Blend: AUG-CC-PVTZ-JKFIT

    Orbital Energies [Eh]
    ---------------------

    Doubly Occupied:

       1A    -20.618030     2A    -20.559999     3A    -20.559191
       4A    -11.401800     5A    -11.350222     6A    -11.296422
       7A    -11.264140     8A    -11.236889     9A    -11.229228
      10A     -1.471880    11A     -1.389573    12A     -1.369563
      13A     -1.083343    14A     -1.039453    15A     -0.991521
      16A     -0.877590    17A     -0.800347    18A     -0.757795
      19A     -0.711004    20A     -0.695312    21A     -0.681130
      22A     -0.652559    23A     -0.643555    24A     -0.603866
      25A     -0.587921    26A     -0.576629    27A     -0.569114
      28A     -0.552805    29A     -0.540571    30A     -0.518029
      31A     -0.513750    32A     -0.504491    33A     -0.468832
      34A     -0.459125    35A     -0.424187

  @DF-RHF Final Energy:  -457.80635102153229

   => Energetics <=

    Nuclear Repulsion Energy =            453.5224356947147157
    One-Electron Energy =               -1524.6578445533407375
    Two-Electron Energy =                 613.3290578370938420
    Total Energy =                       -457.8063510215322367
  Basis Set: (AUG-CC-PVTZ AUX)
    Blend: AUG-CC-PVTZ-RI
    Molecular point group: c1

    Geometry (in Angstrom), charge = 0, multiplicity = 1:

       Center              X                  Y                   Z               Mass
    ------------   -----------------  -----------------  -----------------  -----------------
         O           -1.292520937345    -0.237872222620     0.341121531141    15.994914619570
         O           -0.184827937345     1.694500777380    -0.112956468859    15.994914619570
         O            2.109660062655    -1.661935222620    -0.359253468859    15.994914619570
         C            0.956517062655    -0.102527222620     1.050543531141    12.000000000000
         C           -2.434327837345     0.310181677380    -0.328448968859    12.000000000000
         C           -0.215370937345     0.572963777380     0.372732531141    12.000000000000
         C            1.989978062655    -0.493255222620    -0.009508468859    12.000000000000
         C           -3.531616937345    -0.735562222620    -0.274892468859    12.000000000000
         C            2.827729062655     0.626083777380    -0.573095468859    12.000000000000
         H            0.631720062655    -1.003751222620     1.570902531141     1.007825032230
         H            1.394485062655     0.614554777380     1.752468531141     1.007825032230
         H           -2.739104937345     1.244639777380     0.164832531141     1.007825032230
         H           -2.167344937345     0.565101777380    -1.364301468859     1.007825032230
         H           -4.432948937345    -0.371300222620    -0.775723468859     1.007825032230
         H           -3.203613937345    -1.651499222620    -0.770480468859     1.007825032230
         H           -3.780409937345    -0.969451222620     0.762264531141     1.007825032230
         H            3.397298062655     0.260737777380    -1.428175468859     1.007825032230
         H            3.519131062655     0.981845777380     0.199016531141     1.007825032230
         H            2.192720062655     1.469446777380    -0.856191468859     1.007825032230

  Basis Set: AUG-CC-PVTZ
    Blend: AUG-CC-PVTZ
  Basis Set: (AUG-CC-PVTZ AUX)
    Blend: AUG-CC-PVTZ-JKFIT
	 Reference Energy          =    -457.8063510215322935 [Eh]
	 Singles Energy            =      -0.0000000000000000 [Eh]
	 Same-Spin Energy          =      -0.4482449579914730 [Eh]
	 Opposite-Spin Energy      =      -1.4392221436075712 [Eh]
	 Correlation Energy        =      -1.8874671015990441 [Eh]
	 Total Energy              =    -459.6938181231313365 [Eh]

	 ================> DF-SCS-MP2 Energies <==================
	-----------------------------------------------------------
	 SCS Same-Spin Scale       =       0.3333333333333333 [-]
	 SCS Opposite-Spin Scale   =       1.2000000000000000 [-]
	 SCS Same-Spin Energy      =      -0.1494149859971576 [Eh]
	 SCS Opposite-Spin Energy  =      -1.7270665723290854 [Eh]
	 SCS Correlation Energy    =      -1.8764815583262431 [Eh]
	 SCS Total Energy          =    -459.6828325798585411 [Eh]
	-----------------------------------------------------------

  Dipole Moment: [D]
     X:    -1.2237      Y:     1.1137      Z:     1.0158     Total:     1.9415

*** Psi4 exiting successfully. Buy a developer a beer!
