                               Psi4 1.3.2 release

  ==> Input File <==

--------------------------------------------------------------------------
#psi4
#
memory 32 gb

molecule  {
0 1
  O       -1.2542770    -0.2468050     0.3469180
  O       -0.1468590     1.6858550    -0.1065980
  O        2.1477990    -1.6706520    -0.3530900
  C        0.9946260    -0.1111920     1.0566790
  C       -2.4120090     0.3089700    -0.3319760
  C       -0.1674649     0.6076585     0.4072476
  C        2.0280760    -0.5019680    -0.0034050
  C       -3.4935710    -0.7441700    -0.2685760
  C        2.8657550     0.6173710    -0.5671120
  H        0.6699150    -1.0123850     1.5771470
  H        1.4326490     0.6059550     1.7585010
  H       -2.7005340     1.2360120     0.1703920
  H       -2.1291700     0.5558430    -1.3586020
  H       -4.3948760    -0.3798980    -0.7694460
  H       -3.1658200    -1.6603590    -0.7638670
  H       -3.7423020    -0.9776200     0.7686940
  H        3.4353450     0.2519410    -1.4221430
  H        3.5571500     0.9732660     0.2049480
  H        2.2307250     1.4606800    -0.8503130
units angstrom
no_reorient  #important for SAPT in psi4, default
symmetry c1  #important for SAPT in psi4, default
}

set PROPERTIES_ORIGIN ["COM"]
properties('MP2/aug-cc-pvtz', properties = ['dipole'])
--------------------------------------------------------------------------

    Molecular point group: c1
  Charge       = 0
  Multiplicity = 1
  Basis Set: AUG-CC-PVTZ
    Blend: AUG-CC-PVTZ
  Basis Set: (AUG-CC-PVTZ AUX)
    Blend: AUG-CC-PVTZ-JKFIT

    Orbital Energies [Eh]
    ---------------------

    Doubly Occupied:

       1A    -20.606717     2A    -20.566403     3A    -20.559492
       4A    -11.399725     5A    -11.350747     6A    -11.292553
       7A    -11.264198     8A    -11.237878     9A    -11.227068
      10A     -1.464960    11A     -1.389556    12A     -1.373700
      13A     -1.081605    14A     -1.036449    15A     -0.991780
      16A     -0.869793    17A     -0.796987    18A     -0.755536
      19A     -0.712584    20A     -0.690442    21A     -0.679287
      22A     -0.652208    23A     -0.644286    24A     -0.602822
      25A     -0.588860    26A     -0.578313    27A     -0.568164
      28A     -0.551346    29A     -0.537400    30A     -0.519802
      31A     -0.517993    32A     -0.504800    33A     -0.468569
      34A     -0.459243    35A     -0.425002

  @DF-RHF Final Energy:  -457.80475015257662

   => Energetics <=

    Nuclear Repulsion Energy =            452.9558712561986908
    One-Electron Energy =               -1523.5887061253145021
    Two-Electron Energy =                 612.8280847165392515
    Total Energy =                       -457.8047501525766165
  Basis Set: (AUG-CC-PVTZ AUX)
    Blend: AUG-CC-PVTZ-RI
    Molecular point group: c1

    Geometry (in Angstrom), charge = 0, multiplicity = 1:

       Center              X                  Y                   Z               Mass
    ------------   -----------------  -----------------  -----------------  -----------------
         O           -1.291822067120    -0.242785854845     0.339071817684    15.994914619570
         O           -0.184404067120     1.689874145155    -0.114444182316    15.994914619570
         O            2.110253932880    -1.666632854845    -0.360936182316    15.994914619570
         C            0.957080932880    -0.107172854845     1.048832817684    12.000000000000
         C           -2.449554067120     0.312989145155    -0.339822182316    12.000000000000
         C           -0.205009967120     0.611677645155     0.399401417684    12.000000000000
         C            1.990530932880    -0.497948854845    -0.011251182316    12.000000000000
         C           -3.531116067120    -0.740150854845    -0.276422182316    12.000000000000
         C            2.828209932880     0.621390145155    -0.574958182316    12.000000000000
         H            0.632369932880    -1.008365854845     1.569300817684     1.007825032230
         H            1.395103932880     0.609974145155     1.750654817684     1.007825032230
         H           -2.738079067120     1.240031145155     0.162545817684     1.007825032230
         H           -2.166715067120     0.559862145155    -1.366448182316     1.007825032230
         H           -4.432421067120    -0.375878854845    -0.777292182316     1.007825032230
         H           -3.203365067120    -1.656339854845    -0.771713182316     1.007825032230
         H           -3.779847067120    -0.973600854845     0.760847817684     1.007825032230
         H            3.397799932880     0.255960145155    -1.429989182316     1.007825032230
         H            3.519604932880     0.977285145155     0.197101817684     1.007825032230
         H            2.193179932880     1.464699145155    -0.858159182316     1.007825032230

  Basis Set: AUG-CC-PVTZ
    Blend: AUG-CC-PVTZ
  Basis Set: (AUG-CC-PVTZ AUX)
    Blend: AUG-CC-PVTZ-JKFIT
	 Reference Energy          =    -457.8047501525766165 [Eh]
	 Singles Energy            =      -0.0000000000000000 [Eh]
	 Same-Spin Energy          =      -0.4481169672065646 [Eh]
	 Opposite-Spin Energy      =      -1.4392782958837400 [Eh]
	 Correlation Energy        =      -1.8873952630903046 [Eh]
	 Total Energy              =    -459.6921454156669142 [Eh]

	 ================> DF-SCS-MP2 Energies <==================
	-----------------------------------------------------------
	 SCS Same-Spin Scale       =       0.3333333333333333 [-]
	 SCS Opposite-Spin Scale   =       1.2000000000000000 [-]
	 SCS Same-Spin Energy      =      -0.1493723224021882 [Eh]
	 SCS Opposite-Spin Energy  =      -1.7271339550604881 [Eh]
	 SCS Correlation Energy    =      -1.8765062774626762 [Eh]
	 SCS Total Energy          =    -459.6812564300392978 [Eh]
	-----------------------------------------------------------

  Dipole Moment: [D]
     X:    -1.0479      Y:     1.3376      Z:     1.0052     Total:     1.9742

*** Psi4 exiting successfully. Buy a developer a beer!
