                               Psi4 1.3.2 release

  ==> Input File <==

--------------------------------------------------------------------------
#psi4
#
memory 32 gb

molecule  {
0 1
  O       -1.2542770    -0.2468050     0.3469180
  O       -0.1468590     1.6858550    -0.1065980
  O        2.1477990    -1.6706520    -0.3530900
  C        0.9946260    -0.1111920     1.0566790
  C       -2.4120090     0.3089700    -0.3319760
  C       -0.1273018     0.5503551     0.2868765
  C        2.0280760    -0.5019680    -0.0034050
  C       -3.4935710    -0.7441700    -0.2685760
  C        2.8657550     0.6173710    -0.5671120
  H        0.6699150    -1.0123850     1.5771470
  H        1.4326490     0.6059550     1.7585010
  H       -2.7005340     1.2360120     0.1703920
  H       -2.1291700     0.5558430    -1.3586020
  H       -4.3948760    -0.3798980    -0.7694460
  H       -3.1658200    -1.6603590    -0.7638670
  H       -3.7423020    -0.9776200     0.7686940
  H        3.4353450     0.2519410    -1.4221430
  H        3.5571500     0.9732660     0.2049480
  H        2.2307250     1.4606800    -0.8503130
units angstrom
no_reorient  #important for SAPT in psi4, default
symmetry c1  #important for SAPT in psi4, default
}

set PROPERTIES_ORIGIN ["COM"]
properties('MP2/aug-cc-pvtz', properties = ['dipole'])
--------------------------------------------------------------------------

    Molecular point group: c1
  Charge       = 0
  Multiplicity = 1
  Basis Set: AUG-CC-PVTZ
    Blend: AUG-CC-PVTZ
  Basis Set: (AUG-CC-PVTZ AUX)
    Blend: AUG-CC-PVTZ-JKFIT

    Orbital Energies [Eh]
    ---------------------

    Doubly Occupied:

       1A    -20.608006     2A    -20.566269     3A    -20.558533
       4A    -11.401139     5A    -11.349255     6A    -11.293018
       7A    -11.264829     8A    -11.238242     9A    -11.227352
      10A     -1.463404    11A     -1.389314    12A     -1.371782
      13A     -1.083558    14A     -1.037125    15A     -0.991656
      16A     -0.870192    17A     -0.795888    18A     -0.754155
      19A     -0.713489    20A     -0.690860    21A     -0.679948
      22A     -0.653067    23A     -0.643866    24A     -0.603196
      25A     -0.588565    26A     -0.575950    27A     -0.570147
      28A     -0.552881    29A     -0.538362    30A     -0.519913
      31A     -0.516696    32A     -0.505058    33A     -0.468360
      34A     -0.460231    35A     -0.422184

  @DF-RHF Final Energy:  -457.80032664776064

   => Energetics <=

    Nuclear Repulsion Energy =            453.4883971205342732
    One-Electron Energy =               -1524.6444645155970647
    Two-Electron Energy =                 613.3557407473020930
    Total Energy =                       -457.8003266477606985
  Basis Set: (AUG-CC-PVTZ AUX)
    Blend: AUG-CC-PVTZ-RI
    Molecular point group: c1

    Geometry (in Angstrom), charge = 0, multiplicity = 1:

       Center              X                  Y                   Z               Mass
    ------------   -----------------  -----------------  -----------------  -----------------
         O           -1.295527634587    -0.237498872146     0.350177614603    15.994914619570
         O           -0.188109634587     1.695161127854    -0.103338385397    15.994914619570
         O            2.106548365413    -1.661345872146    -0.349830385397    15.994914619570
         C            0.953375365413    -0.101885872146     1.059938614603    12.000000000000
         C           -2.453259634587     0.318276127854    -0.328716385397    12.000000000000
         C           -0.168552434587     0.559661227854     0.290136114603    12.000000000000
         C            1.986825365413    -0.492661872146    -0.000145385397    12.000000000000
         C           -3.534821634587    -0.734863872146    -0.265316385397    12.000000000000
         C            2.824504365413     0.626677127854    -0.563852385397    12.000000000000
         H            0.628664365413    -1.003078872146     1.580406614603     1.007825032230
         H            1.391398365413     0.615261127854     1.761760614603     1.007825032230
         H           -2.741784634587     1.245318127854     0.173651614603     1.007825032230
         H           -2.170420634587     0.565149127854    -1.355342385397     1.007825032230
         H           -4.436126634587    -0.370591872146    -0.766186385397     1.007825032230
         H           -3.207070634587    -1.651052872146    -0.760607385397     1.007825032230
         H           -3.783552634587    -0.968313872146     0.771953614603     1.007825032230
         H            3.394094365413     0.261247127854    -1.418883385397     1.007825032230
         H            3.515899365413     0.982572127854     0.208207614603     1.007825032230
         H            2.189474365413     1.469986127854    -0.847053385397     1.007825032230

  Basis Set: AUG-CC-PVTZ
    Blend: AUG-CC-PVTZ
  Basis Set: (AUG-CC-PVTZ AUX)
    Blend: AUG-CC-PVTZ-JKFIT
	 Reference Energy          =    -457.8003266477606417 [Eh]
	 Singles Energy            =      -0.0000000000000000 [Eh]
	 Same-Spin Energy          =      -0.4485469991802877 [Eh]
	 Opposite-Spin Energy      =      -1.4401765315990218 [Eh]
	 Correlation Energy        =      -1.8887235307793095 [Eh]
	 Total Energy              =    -459.6890501785399579 [Eh]

	 ================> DF-SCS-MP2 Energies <==================
	-----------------------------------------------------------
	 SCS Same-Spin Scale       =       0.3333333333333333 [-]
	 SCS Opposite-Spin Scale   =       1.2000000000000000 [-]
	 SCS Same-Spin Energy      =      -0.1495156663934292 [Eh]
	 SCS Opposite-Spin Energy  =      -1.7282118379188260 [Eh]
	 SCS Correlation Energy    =      -1.8777275043122552 [Eh]
	 SCS Total Energy          =    -459.6780541520728889 [Eh]
	-----------------------------------------------------------

  Dipole Moment: [D]
     X:    -1.0481      Y:     1.2764      Z:     0.9215     Total:     1.8912

*** Psi4 exiting successfully. Buy a developer a beer!
