                               Psi4 1.3.2 release

  ==> Input File <==

--------------------------------------------------------------------------
#psi4
#
memory 32 gb

molecule  {
0 1
  O       -1.2542770    -0.2468050     0.3469180
  O       -0.1468590     1.6858550    -0.1065980
  O        2.1477990    -1.6706520    -0.3530900
  C        0.9946260    -0.1111920     1.0566790
  C       -2.5714073     0.3854900    -0.4254472
  C       -0.1772750     0.5642190     0.3788660
  C        2.0280760    -0.5019680    -0.0034050
  C       -3.4935710    -0.7441700    -0.2685760
  C        2.8657550     0.6173710    -0.5671120
  H        0.6699150    -1.0123850     1.5771470
  H        1.4326490     0.6059550     1.7585010
  H       -2.7005340     1.2360120     0.1703920
  H       -2.1291700     0.5558430    -1.3586020
  H       -4.3948760    -0.3798980    -0.7694460
  H       -3.1658200    -1.6603590    -0.7638670
  H       -3.7423020    -0.9776200     0.7686940
  H        3.4353450     0.2519410    -1.4221430
  H        3.5571500     0.9732660     0.2049480
  H        2.2307250     1.4606800    -0.8503130
units angstrom
no_reorient  #important for SAPT in psi4, default
symmetry c1  #important for SAPT in psi4, default
}

set PROPERTIES_ORIGIN ["COM"]
properties('MP2/aug-cc-pvtz', properties = ['dipole'])
--------------------------------------------------------------------------

    Molecular point group: c1
  Charge       = 0
  Multiplicity = 1
  Basis Set: AUG-CC-PVTZ
    Blend: AUG-CC-PVTZ
  Basis Set: (AUG-CC-PVTZ AUX)
    Blend: AUG-CC-PVTZ-JKFIT

    Orbital Energies [Eh]
    ---------------------

    Doubly Occupied:

       1A    -20.588699     2A    -20.552253     3A    -20.544472
       4A    -11.385452     5A    -11.343193     6A    -11.311370
       7A    -11.253830     8A    -11.239771     9A    -11.231334
      10A     -1.432112    11A     -1.382612    12A     -1.334926
      13A     -1.079675    14A     -1.052392    15A     -0.985589
      16A     -0.877416    17A     -0.787658    18A     -0.741846
      19A     -0.692545    20A     -0.689824    21A     -0.665206
      22A     -0.652706    23A     -0.634389    24A     -0.600181
      25A     -0.586274    26A     -0.580548    27A     -0.566822
      28A     -0.554394    29A     -0.540016    30A     -0.532647
      31A     -0.502460    32A     -0.490880    33A     -0.462644
      34A     -0.444571    35A     -0.416089

  @DF-RHF Final Energy:  -457.77891352275219

   => Energetics <=

    Nuclear Repulsion Energy =            450.0839599750981961
    One-Electron Energy =               -1518.2521549056855292
    Two-Electron Energy =                 610.3892814078351421
    Total Energy =                       -457.7789135227521911
  Basis Set: (AUG-CC-PVTZ AUX)
    Blend: AUG-CC-PVTZ-RI
    Molecular point group: c1

    Geometry (in Angstrom), charge = 0, multiplicity = 1:

       Center              X                  Y                   Z               Mass
    ------------   -----------------  -----------------  -----------------  -----------------
         O           -1.276210395154    -0.245837960500     0.350314320667    15.994914619570
         O           -0.168792395154     1.686822039500    -0.103201679333    15.994914619570
         O            2.125865604846    -1.669684960500    -0.349693679333    15.994914619570
         C            0.972692604846    -0.110224960500     1.060075320667    12.000000000000
         C           -2.593340695154     0.386457039500    -0.422050879333    12.000000000000
         C           -0.199208395154     0.565186039500     0.382262320667    12.000000000000
         C            2.006142604846    -0.501000960500    -0.000008679333    12.000000000000
         C           -3.515504395154    -0.743202960500    -0.265179679333    12.000000000000
         C            2.843821604846     0.618338039500    -0.563715679333    12.000000000000
         H            0.647981604846    -1.011417960500     1.580543320667     1.007825032230
         H            1.410715604846     0.606922039500     1.761897320667     1.007825032230
         H           -2.722467395154     1.236979039500     0.173788320667     1.007825032230
         H           -2.151103395154     0.556810039500    -1.355205679333     1.007825032230
         H           -4.416809395154    -0.378930960500    -0.766049679333     1.007825032230
         H           -3.187753395154    -1.659391960500    -0.760470679333     1.007825032230
         H           -3.764235395154    -0.976652960500     0.772090320667     1.007825032230
         H            3.413411604846     0.252908039500    -1.418746679333     1.007825032230
         H            3.535216604846     0.974233039500     0.208344320667     1.007825032230
         H            2.208791604846     1.461647039500    -0.846916679333     1.007825032230

  Basis Set: AUG-CC-PVTZ
    Blend: AUG-CC-PVTZ
  Basis Set: (AUG-CC-PVTZ AUX)
    Blend: AUG-CC-PVTZ-JKFIT
	 Reference Energy          =    -457.7789135227521911 [Eh]
	 Singles Energy            =      -0.0000000000000000 [Eh]
	 Same-Spin Energy          =      -0.4494968596430388 [Eh]
	 Opposite-Spin Energy      =      -1.4425563660136502 [Eh]
	 Correlation Energy        =      -1.8920532256566891 [Eh]
	 Total Energy              =    -459.6709667484088868 [Eh]

	 ================> DF-SCS-MP2 Energies <==================
	-----------------------------------------------------------
	 SCS Same-Spin Scale       =       0.3333333333333333 [-]
	 SCS Opposite-Spin Scale   =       1.2000000000000000 [-]
	 SCS Same-Spin Energy      =      -0.1498322865476796 [Eh]
	 SCS Opposite-Spin Energy  =      -1.7310676392163802 [Eh]
	 SCS Correlation Energy    =      -1.8808999257640597 [Eh]
	 SCS Total Energy          =    -459.6598134485162745 [Eh]
	-----------------------------------------------------------

  Dipole Moment: [D]
     X:    -2.1740      Y:     1.1145      Z:     0.7302     Total:     2.5498

*** Psi4 exiting successfully. Buy a developer a beer!
