                               Psi4 1.3.2 release

  ==> Input File <==

--------------------------------------------------------------------------
#psi4
#
memory 32 gb

molecule  {
0 1
  O       -1.2542770    -0.2468050     0.3469180
  O       -0.1468590     1.6858550    -0.1065980
  O        2.1477990    -1.6706520    -0.3530900
  C        0.9946260    -0.1111920     1.0566790
  C       -2.4120090     0.3089700    -0.3319760
  C       -0.1772750     0.5642190     0.3788660
  C        2.0632681    -0.4694431     0.0202606
  C       -3.4935710    -0.7441700    -0.2685760
  C        2.8657550     0.6173710    -0.5671120
  H        0.6699150    -1.0123850     1.5771470
  H        1.4326490     0.6059550     1.7585010
  H       -2.7005340     1.2360120     0.1703920
  H       -2.1291700     0.5558430    -1.3586020
  H       -4.3948760    -0.3798980    -0.7694460
  H       -3.1658200    -1.6603590    -0.7638670
  H       -3.7423020    -0.9776200     0.7686940
  H        3.4353450     0.2519410    -1.4221430
  H        3.5571500     0.9732660     0.2049480
  H        2.2307250     1.4606800    -0.8503130
units angstrom
no_reorient  #important for SAPT in psi4, default
symmetry c1  #important for SAPT in psi4, default
}

set PROPERTIES_ORIGIN ["COM"]
properties('MP2/aug-cc-pvtz', properties = ['dipole'])
--------------------------------------------------------------------------

    Molecular point group: c1
  Charge       = 0
  Multiplicity = 1
  Basis Set: AUG-CC-PVTZ
    Blend: AUG-CC-PVTZ
  Basis Set: (AUG-CC-PVTZ AUX)
    Blend: AUG-CC-PVTZ-JKFIT

    Orbital Energies [Eh]
    ---------------------

    Doubly Occupied:

       1A    -20.616150     2A    -20.559184     3A    -20.555705
       4A    -11.401349     5A    -11.352545     6A    -11.297188
       7A    -11.264913     8A    -11.238449     9A    -11.229887
      10A     -1.467502    11A     -1.367918    12A     -1.364998
      13A     -1.084275    14A     -1.044052    15A     -0.998177
      16A     -0.876826    17A     -0.800390    18A     -0.756570
      19A     -0.709533    20A     -0.693906    21A     -0.679305
      22A     -0.649930    23A     -0.641526    24A     -0.603987
      25A     -0.587398    26A     -0.574218    27A     -0.569378
      28A     -0.550394    29A     -0.541088    30A     -0.522047
      31A     -0.514513    32A     -0.492361    33A     -0.470395
      34A     -0.455874    35A     -0.427213

  @DF-RHF Final Energy:  -457.79968136027247

   => Energetics <=

    Nuclear Repulsion Energy =            452.7956344924011773
    One-Electron Energy =               -1523.2723414002146001
    Two-Electron Energy =                 612.6770255475408931
    Total Energy =                       -457.7996813602725297
  Basis Set: (AUG-CC-PVTZ AUX)
    Blend: AUG-CC-PVTZ-RI
    Molecular point group: c1

    Geometry (in Angstrom), charge = 0, multiplicity = 1:

       Center              X                  Y                   Z               Mass
    ------------   -----------------  -----------------  -----------------  -----------------
         O           -1.294163886189    -0.241778841276     0.339506929919    15.994914619570
         O           -0.186745886189     1.690881158724    -0.114009070081    15.994914619570
         O            2.107912113811    -1.665625841276    -0.360501070081    15.994914619570
         C            0.954739113811    -0.106165841276     1.049267929919    12.000000000000
         C           -2.451895886189     0.313996158724    -0.339387070081    12.000000000000
         C           -0.217161886189     0.569245158724     0.371454929919    12.000000000000
         C            2.023381213811    -0.464416941276     0.012849529919    12.000000000000
         C           -3.533457886189    -0.739143841276    -0.275987070081    12.000000000000
         C            2.825868113811     0.622397158724    -0.574523070081    12.000000000000
         H            0.630028113811    -1.007358841276     1.569735929919     1.007825032230
         H            1.392762113811     0.610981158724     1.751089929919     1.007825032230
         H           -2.740420886189     1.241038158724     0.162980929919     1.007825032230
         H           -2.169056886189     0.560869158724    -1.366013070081     1.007825032230
         H           -4.434762886189    -0.374871841276    -0.776857070081     1.007825032230
         H           -3.205706886189    -1.655332841276    -0.771278070081     1.007825032230
         H           -3.782188886189    -0.972593841276     0.761282929919     1.007825032230
         H            3.395458113811     0.256967158724    -1.429554070081     1.007825032230
         H            3.517263113811     0.978292158724     0.197536929919     1.007825032230
         H            2.190838113811     1.465706158724    -0.857724070081     1.007825032230

  Basis Set: AUG-CC-PVTZ
    Blend: AUG-CC-PVTZ
  Basis Set: (AUG-CC-PVTZ AUX)
    Blend: AUG-CC-PVTZ-JKFIT
	 Reference Energy          =    -457.7996813602724728 [Eh]
	 Singles Energy            =      -0.0000000000000000 [Eh]
	 Same-Spin Energy          =      -0.4493923612442404 [Eh]
	 Opposite-Spin Energy      =      -1.4416742320214317 [Eh]
	 Correlation Energy        =      -1.8910665932656721 [Eh]
	 Total Energy              =    -459.6907479535381640 [Eh]

	 ================> DF-SCS-MP2 Energies <==================
	-----------------------------------------------------------
	 SCS Same-Spin Scale       =       0.3333333333333333 [-]
	 SCS Opposite-Spin Scale   =       1.2000000000000000 [-]
	 SCS Same-Spin Energy      =      -0.1497974537480801 [Eh]
	 SCS Opposite-Spin Energy  =      -1.7300090784257180 [Eh]
	 SCS Correlation Energy    =      -1.8798065321737982 [Eh]
	 SCS Total Energy          =    -459.6794878924462751 [Eh]
	-----------------------------------------------------------

  Dipole Moment: [D]
     X:    -1.2643      Y:     1.2872      Z:     0.9818     Total:     2.0541

*** Psi4 exiting successfully. Buy a developer a beer!
