                               Psi4 1.3.2 release

  ==> Input File <==

--------------------------------------------------------------------------
#psi4
#
memory 32 gb

molecule  {
0 1
  O       -1.2542770    -0.2468050     0.3469180
  O       -0.1468590     1.6858550    -0.1065980
  O        2.1477990    -1.6706520    -0.3530900
  C        0.9946260    -0.1111920     1.0566790
  C       -2.4120090     0.3089700    -0.3319760
  C       -0.1725477     0.5860450     0.3929557
  C        2.0280760    -0.5019680    -0.0034050
  C       -3.4935710    -0.7441700    -0.2685760
  C        2.8657550     0.6173710    -0.5671120
  H        0.6699150    -1.0123850     1.5771470
  H        1.4326490     0.6059550     1.7585010
  H       -2.7005340     1.2360120     0.1703920
  H       -2.1291700     0.5558430    -1.3586020
  H       -4.3948760    -0.3798980    -0.7694460
  H       -3.1658200    -1.6603590    -0.7638670
  H       -3.7423020    -0.9776200     0.7686940
  H        3.4353450     0.2519410    -1.4221430
  H        3.5571500     0.9732660     0.2049480
  H        2.2307250     1.4606800    -0.8503130
units angstrom
no_reorient  #important for SAPT in psi4, default
symmetry c1  #important for SAPT in psi4, default
}

set PROPERTIES_ORIGIN ["COM"]
properties('MP2/aug-cc-pvtz', properties = ['dipole'])
--------------------------------------------------------------------------

    Molecular point group: c1
  Charge       = 0
  Multiplicity = 1
  Basis Set: AUG-CC-PVTZ
    Blend: AUG-CC-PVTZ
  Basis Set: (AUG-CC-PVTZ AUX)
    Blend: AUG-CC-PVTZ-JKFIT

    Orbital Energies [Eh]
    ---------------------

    Doubly Occupied:

       1A    -20.611293     2A    -20.562496     3A    -20.559038
       4A    -11.400017     5A    -11.350173     6A    -11.294799
       7A    -11.263674     8A    -11.237145     9A    -11.228500
      10A     -1.464873    11A     -1.389247    12A     -1.371323
      13A     -1.081936    14A     -1.038655    15A     -0.991475
      16A     -0.873039    17A     -0.798196    18A     -0.755964
      19A     -0.710863    20A     -0.691982    21A     -0.679204
      22A     -0.652386    23A     -0.643567    24A     -0.602801
      25A     -0.588216    26A     -0.577121    27A     -0.568746
      28A     -0.551385    29A     -0.538274    30A     -0.520455
      31A     -0.516655    32A     -0.504446    33A     -0.469710
      34A     -0.458838    35A     -0.424286

  @DF-RHF Final Energy:  -457.80622520210625

   => Energetics <=

    Nuclear Repulsion Energy =            453.0787798072853434
    One-Electron Energy =               -1523.8284471189747364
    Two-Electron Energy =                 612.9434421095830885
    Total Energy =                       -457.8062252021062477
  Basis Set: (AUG-CC-PVTZ AUX)
    Blend: AUG-CC-PVTZ-RI
    Molecular point group: c1

    Geometry (in Angstrom), charge = 0, multiplicity = 1:

       Center              X                  Y                   Z               Mass
    ------------   -----------------  -----------------  -----------------  -----------------
         O           -1.291353112823    -0.240791728832     0.340390431031    15.994914619570
         O           -0.183935112823     1.691868271168    -0.113125568969    15.994914619570
         O            2.110722887177    -1.664638728832    -0.359617568969    15.994914619570
         C            0.957549887177    -0.105178728832     1.050151431031    12.000000000000
         C           -2.449085112823     0.314983271168    -0.338503568969    12.000000000000
         C           -0.209623812823     0.592058271168     0.386428131031    12.000000000000
         C            1.990999887177    -0.495954728832    -0.009932568969    12.000000000000
         C           -3.530647112823    -0.738156728832    -0.275103568969    12.000000000000
         C            2.828678887177     0.623384271168    -0.573639568969    12.000000000000
         H            0.632838887177    -1.006371728832     1.570619431031     1.007825032230
         H            1.395572887177     0.611968271168     1.751973431031     1.007825032230
         H           -2.737610112823     1.242025271168     0.163864431031     1.007825032230
         H           -2.166246112823     0.561856271168    -1.365129568969     1.007825032230
         H           -4.431952112823    -0.373884728832    -0.775973568969     1.007825032230
         H           -3.202896112823    -1.654345728832    -0.770394568969     1.007825032230
         H           -3.779378112823    -0.971606728832     0.762166431031     1.007825032230
         H            3.398268887177     0.257954271168    -1.428670568969     1.007825032230
         H            3.520073887177     0.979279271168     0.198420431031     1.007825032230
         H            2.193648887177     1.466693271168    -0.856840568969     1.007825032230

  Basis Set: AUG-CC-PVTZ
    Blend: AUG-CC-PVTZ
  Basis Set: (AUG-CC-PVTZ AUX)
    Blend: AUG-CC-PVTZ-JKFIT
	 Reference Energy          =    -457.8062252021062477 [Eh]
	 Singles Energy            =      -0.0000000000000000 [Eh]
	 Same-Spin Energy          =      -0.4481718220035944 [Eh]
	 Opposite-Spin Energy      =      -1.4392916475979642 [Eh]
	 Correlation Energy        =      -1.8874634696015586 [Eh]
	 Total Energy              =    -459.6936886717078323 [Eh]

	 ================> DF-SCS-MP2 Energies <==================
	-----------------------------------------------------------
	 SCS Same-Spin Scale       =       0.3333333333333333 [-]
	 SCS Opposite-Spin Scale   =       1.2000000000000000 [-]
	 SCS Same-Spin Energy      =      -0.1493906073345315 [Eh]
	 SCS Opposite-Spin Energy  =      -1.7271499771175571 [Eh]
	 SCS Correlation Energy    =      -1.8765405844520886 [Eh]
	 SCS Total Energy          =    -459.6827657865583205 [Eh]
	-----------------------------------------------------------

  Dipole Moment: [D]
     X:    -1.1810      Y:     1.2264      Z:     0.9956     Total:     1.9723

*** Psi4 exiting successfully. Buy a developer a beer!
