                               Psi4 1.3.2 release

  ==> Input File <==

--------------------------------------------------------------------------
#psi4
#
memory 32 gb

molecule  {
0 1
  O       -1.2542770    -0.2468050     0.3469180
  O       -0.1468590     1.6858550    -0.1065980
  O        2.1477990    -1.6706520    -0.3530900
  C        0.9946260    -0.1111920     1.0566790
  C       -2.4120090     0.3089700    -0.3319760
  C       -0.1002492     0.5422098     0.2422608
  C        2.0280760    -0.5019680    -0.0034050
  C       -3.4935710    -0.7441700    -0.2685760
  C        2.8657550     0.6173710    -0.5671120
  H        0.6699150    -1.0123850     1.5771470
  H        1.4326490     0.6059550     1.7585010
  H       -2.7005340     1.2360120     0.1703920
  H       -2.1291700     0.5558430    -1.3586020
  H       -4.3948760    -0.3798980    -0.7694460
  H       -3.1658200    -1.6603590    -0.7638670
  H       -3.7423020    -0.9776200     0.7686940
  H        3.4353450     0.2519410    -1.4221430
  H        3.5571500     0.9732660     0.2049480
  H        2.2307250     1.4606800    -0.8503130
units angstrom
no_reorient  #important for SAPT in psi4, default
symmetry c1  #important for SAPT in psi4, default
}

set PROPERTIES_ORIGIN ["COM"]
properties('MP2/aug-cc-pvtz', properties = ['dipole'])
--------------------------------------------------------------------------

    Molecular point group: c1
  Charge       = 0
  Multiplicity = 1
  Basis Set: AUG-CC-PVTZ
    Blend: AUG-CC-PVTZ
  Basis Set: (AUG-CC-PVTZ AUX)
    Blend: AUG-CC-PVTZ-JKFIT

    Orbital Energies [Eh]
    ---------------------

    Doubly Occupied:

       1A    -20.603853     2A    -20.570690     3A    -20.558673
       4A    -11.402744     5A    -11.349342     6A    -11.290771
       7A    -11.266309     8A    -11.239312     9A    -11.225896
      10A     -1.462137    11A     -1.389704    12A     -1.369821
      13A     -1.084661    14A     -1.034888    15A     -0.992054
      16A     -0.866875    17A     -0.794161    18A     -0.753519
      19A     -0.714621    20A     -0.689821    21A     -0.679429
      22A     -0.653067    23A     -0.644220    24A     -0.603488
      25A     -0.588818    26A     -0.575848    27A     -0.570261
      28A     -0.553169    29A     -0.537987    30A     -0.519850
      31A     -0.516032    32A     -0.505144    33A     -0.466182
      34A     -0.460528    35A     -0.421527

  @DF-RHF Final Energy:  -457.79213591338362

   => Energetics <=

    Nuclear Repulsion Energy =            453.5112760925608200
    One-Electron Energy =               -1524.6960185106056542
    Two-Electron Energy =                 613.3926065046612166
    Total Energy =                       -457.7921359133836177
  Basis Set: (AUG-CC-PVTZ AUX)
    Blend: AUG-CC-PVTZ-RI
    Molecular point group: c1

    Geometry (in Angstrom), charge = 0, multiplicity = 1:

       Center              X                  Y                   Z               Mass
    ------------   -----------------  -----------------  -----------------  -----------------
         O           -1.298023588199    -0.236747362460     0.354293992235    15.994914619570
         O           -0.190605588199     1.695912637540    -0.099222007765    15.994914619570
         O            2.104052411801    -1.660594362460    -0.345714007765    15.994914619570
         C            0.950879411801    -0.101134362460     1.064054992235    12.000000000000
         C           -2.455755588199     0.319027637540    -0.324600007765    12.000000000000
         C           -0.143995788199     0.552267437540     0.249636792235    12.000000000000
         C            1.984329411801    -0.491910362460     0.003970992235    12.000000000000
         C           -3.537317588199    -0.734112362460    -0.261200007765    12.000000000000
         C            2.822008411801     0.627428637540    -0.559736007765    12.000000000000
         H            0.626168411801    -1.002327362460     1.584522992235     1.007825032230
         H            1.388902411801     0.616012637540     1.765876992235     1.007825032230
         H           -2.744280588199     1.246069637540     0.177767992235     1.007825032230
         H           -2.172916588199     0.565900637540    -1.351226007765     1.007825032230
         H           -4.438622588199    -0.369840362460    -0.762070007765     1.007825032230
         H           -3.209566588199    -1.650301362460    -0.756491007765     1.007825032230
         H           -3.786048588199    -0.967562362460     0.776069992235     1.007825032230
         H            3.391598411801     0.261998637540    -1.414767007765     1.007825032230
         H            3.513403411801     0.983323637540     0.212323992235     1.007825032230
         H            2.186978411801     1.470737637540    -0.842937007765     1.007825032230

  Basis Set: AUG-CC-PVTZ
    Blend: AUG-CC-PVTZ
  Basis Set: (AUG-CC-PVTZ AUX)
    Blend: AUG-CC-PVTZ-JKFIT
	 Reference Energy          =    -457.7921359133836177 [Eh]
	 Singles Energy            =      -0.0000000000000000 [Eh]
	 Same-Spin Energy          =      -0.4490366028266031 [Eh]
	 Opposite-Spin Energy      =      -1.4414370559878953 [Eh]
	 Correlation Energy        =      -1.8904736588144984 [Eh]
	 Total Energy              =    -459.6826095721980892 [Eh]

	 ================> DF-SCS-MP2 Energies <==================
	-----------------------------------------------------------
	 SCS Same-Spin Scale       =       0.3333333333333333 [-]
	 SCS Opposite-Spin Scale   =       1.2000000000000000 [-]
	 SCS Same-Spin Energy      =      -0.1496788676088677 [Eh]
	 SCS Opposite-Spin Energy  =      -1.7297244671854743 [Eh]
	 SCS Correlation Energy    =      -1.8794033347943420 [Eh]
	 SCS Total Energy          =    -459.6715392481779645 [Eh]
	-----------------------------------------------------------

  Dipole Moment: [D]
     X:    -0.8971      Y:     1.3552      Z:     0.8894     Total:     1.8526

*** Psi4 exiting successfully. Buy a developer a beer!
