                               Psi4 1.4a3.dev225

  ==> Input File <==

--------------------------------------------------------------------------
#psi4
#
memory 32 gb

molecule  {
0 1
  O       -1.2544100    -0.2466020     0.3472100
  O       -0.1467170     1.6857710    -0.1068680
  O        2.1477710    -1.6706650    -0.3531650
  C        0.9946280    -0.1112570     1.0566320
  C       -2.4121570     0.3091030    -0.3317080
  C       -0.1772600     0.5642340     0.3788210
  C        2.0415881    -0.5070887    -0.0172665
  C       -3.4935060    -0.7442920    -0.2688040
  C        2.8658400     0.6173540    -0.5670070
  H        0.6698310    -1.0124810     1.5769910
  H        1.4325960     0.6058250     1.7585570
  H       -2.7009940     1.2359100     0.1709210
  H       -2.1292340     0.5563720    -1.3582130
  H       -4.3948380    -0.3800300    -0.7696350
  H       -3.1655030    -1.6602290    -0.7643920
  H       -3.7422990    -0.9781810     0.7683530
  H        3.4354090     0.2520080    -1.4220870
  H        3.5572420     0.9731160     0.2051050
  H        2.2308310     1.4607170    -0.8501030
units angstrom
no_reorient  #important for SAPT in psi4, default
symmetry c1  #important for SAPT in psi4, default
}

set PROPERTIES_ORIGIN ["COM"]
properties('MP2/aug-cc-pvtz', properties = ['dipole'])
--------------------------------------------------------------------------

    Molecular point group: c1
  Charge       = 0
  Multiplicity = 1
  Basis Set: AUG-CC-PVTZ
    Blend: AUG-CC-PVTZ
  Basis Set: (AUG-CC-PVTZ AUX)
    Blend: AUG-CC-PVTZ-JKFIT

    Orbital Energies [Eh]
    ---------------------

    Doubly Occupied:

       1A    -20.614772     2A    -20.559727     3A    -20.557298
       4A    -11.398882     5A    -11.349431     6A    -11.296395
       7A    -11.262023     8A    -11.236637     9A    -11.229489
      10A     -1.466065    11A     -1.396147    12A     -1.365334
      13A     -1.079466    14A     -1.040339    15A     -0.992185
      16A     -0.874976    17A     -0.798095    18A     -0.755589
      19A     -0.707748    20A     -0.693124    21A     -0.678933
      22A     -0.653116    23A     -0.643295    24A     -0.604356
      25A     -0.588949    26A     -0.576703    27A     -0.568910
      28A     -0.551078    29A     -0.538318    30A     -0.521383
      31A     -0.514236    32A     -0.506971    33A     -0.469280
      34A     -0.457723    35A     -0.421721

  @DF-RHF Final Energy:  -457.80710857744560

   => Energetics <=

    Nuclear Repulsion Energy =            453.1229080416759984
    One-Electron Energy =               -1523.9226462807077951
    Two-Electron Energy =                 612.9926296615861929
    Total Energy =                       -457.8071085774455469
  Basis Set: (AUG-CC-PVTZ AUX)
    Blend: AUG-CC-PVTZ-RI
    Molecular point group: c1

    Geometry (in Angstrom), charge = 0, multiplicity = 1:

       Center              X                  Y                   Z               Mass
    ------------   -----------------  -----------------  -----------------  -----------------
         O           -1.292295723400    -0.238107253347     0.343261478800    15.994914619570
         O           -0.184602723400     1.694265746653    -0.110816521200    15.994914619570
         O            2.109885276600    -1.662170253347    -0.357113521200    15.994914619570
         C            0.956742276600    -0.102762253347     1.052683478800    12.000000000000
         C           -2.450042723400     0.317597746653    -0.335656521200    12.000000000000
         C           -0.215145723400     0.572728746653     0.374872478800    12.000000000000
         C            2.003702376600    -0.498593953347    -0.021215021200    12.000000000000
         C           -3.531391723400    -0.735797253347    -0.272752521200    12.000000000000
         C            2.827954276600     0.625848746653    -0.570955521200    12.000000000000
         H            0.631945276600    -1.003986253347     1.573042478800     1.007825032230
         H            1.394710276600     0.614319746653     1.754608478800     1.007825032230
         H           -2.738879723400     1.244404746653     0.166972478800     1.007825032230
         H           -2.167119723400     0.564866746653    -1.362161521200     1.007825032230
         H           -4.432723723400    -0.371535253347    -0.773583521200     1.007825032230
         H           -3.203388723400    -1.651734253347    -0.768340521200     1.007825032230
         H           -3.780184723400    -0.969686253347     0.764404478800     1.007825032230
         H            3.397523276600     0.260502746653    -1.426035521200     1.007825032230
         H            3.519356276600     0.981610746653     0.201156478800     1.007825032230
         H            2.192945276600     1.469211746653    -0.854051521200     1.007825032230

  Basis Set: AUG-CC-PVTZ
    Blend: AUG-CC-PVTZ
  Basis Set: (AUG-CC-PVTZ AUX)
    Blend: AUG-CC-PVTZ-JKFIT
	 Reference Energy          =    -457.8071085774456037 [Eh]
	 Singles Energy            =      -0.0000000000000000 [Eh]
	 Same-Spin Energy          =      -0.4480125019455671 [Eh]
	 Opposite-Spin Energy      =      -1.4387765752289297 [Eh]
	 Correlation Energy        =      -1.8867890771744968 [Eh]
	 Total Energy              =    -459.6938976546201161 [Eh]

	 ================> DF-SCS-MP2 Energies <==================
	-----------------------------------------------------------
	 SCS Same-Spin Scale       =       0.3333333333333333 [-]
	 SCS Opposite-Spin Scale   =       1.2000000000000000 [-]
	 SCS Same-Spin Energy      =      -0.1493375006485224 [Eh]
	 SCS Opposite-Spin Energy  =      -1.7265318902747155 [Eh]
	 SCS Correlation Energy    =      -1.8758693909232378 [Eh]
	 SCS Total Energy          =    -459.6829779683688457 [Eh]
	-----------------------------------------------------------

  Dipole Moment: [D]
     X:    -1.2079      Y:     1.0800      Z:     0.9294     Total:     1.8680

*** Psi4 exiting successfully. Buy a developer a beer!
