                               Psi4 1.4a3.dev225

  ==> Input File <==

--------------------------------------------------------------------------
#psi4
#
memory 32 gb

molecule  {
0 1
  O       -1.2544100    -0.2466020     0.3472100
  O       -0.1467170     1.6857710    -0.1068680
  O        2.1477710    -1.6706650    -0.3531650
  C        0.9946280    -0.1112570     1.0566320
  C       -2.4121570     0.3091030    -0.3317080
  C       -0.2159884     0.5865575     0.3564208
  C        2.0280890    -0.5019850    -0.0034200
  C       -3.4935060    -0.7442920    -0.2688040
  C        2.8658400     0.6173540    -0.5670070
  H        0.6698310    -1.0124810     1.5769910
  H        1.4325960     0.6058250     1.7585570
  H       -2.7009940     1.2359100     0.1709210
  H       -2.1292340     0.5563720    -1.3582130
  H       -4.3948380    -0.3800300    -0.7696350
  H       -3.1655030    -1.6602290    -0.7643920
  H       -3.7422990    -0.9781810     0.7683530
  H        3.4354090     0.2520080    -1.4220870
  H        3.5572420     0.9731160     0.2051050
  H        2.2308310     1.4607170    -0.8501030
units angstrom
no_reorient  #important for SAPT in psi4, default
symmetry c1  #important for SAPT in psi4, default
}

set PROPERTIES_ORIGIN ["COM"]
properties('MP2/aug-cc-pvtz', properties = ['dipole'])
--------------------------------------------------------------------------

    Molecular point group: c1
  Charge       = 0
  Multiplicity = 1
  Basis Set: AUG-CC-PVTZ
    Blend: AUG-CC-PVTZ
  Basis Set: (AUG-CC-PVTZ AUX)
    Blend: AUG-CC-PVTZ-JKFIT

    Orbital Energies [Eh]
    ---------------------

    Doubly Occupied:

       1A    -20.619997     2A    -20.561562     3A    -20.554454
       4A    -11.397793     5A    -11.345190     6A    -11.299415
       7A    -11.259376     8A    -11.234374     9A    -11.231620
      10A     -1.480231    11A     -1.386018    12A     -1.384251
      13A     -1.074100    14A     -1.040909    15A     -0.984680
      16A     -0.878189    17A     -0.801771    18A     -0.753528
      19A     -0.710360    20A     -0.698881    21A     -0.682507
      22A     -0.649322    23A     -0.641483    24A     -0.603068
      25A     -0.591121    26A     -0.577361    27A     -0.568528
      28A     -0.550211    29A     -0.537208    30A     -0.526021
      31A     -0.520295    32A     -0.503021    33A     -0.476407
      34A     -0.453305    35A     -0.419186

  @DF-RHF Final Energy:  -457.80682797397424

   => Energetics <=

    Nuclear Repulsion Energy =            453.4147667115769309
    One-Electron Energy =               -1524.4517029450792052
    Two-Electron Energy =                 613.2301082595280377
    Total Energy =                       -457.8068279739742366
  Basis Set: (AUG-CC-PVTZ AUX)
    Blend: AUG-CC-PVTZ-RI
    Molecular point group: c1

    Geometry (in Angstrom), charge = 0, multiplicity = 1:

       Center              X                  Y                   Z               Mass
    ------------   -----------------  -----------------  -----------------  -----------------
         O           -1.287477058383    -0.240637768672     0.344050668690    15.994914619570
         O           -0.179784058383     1.691735231328    -0.110027331310    15.994914619570
         O            2.114703941617    -1.664700768672    -0.356324331310    15.994914619570
         C            0.961560941617    -0.105292768672     1.053472668690    12.000000000000
         C           -2.445224058383     0.315067231328    -0.334867331310    12.000000000000
         C           -0.249055458383     0.592521731328     0.353261468690    12.000000000000
         C            1.995021941617    -0.496020768672    -0.006579331310    12.000000000000
         C           -3.526573058383    -0.738327768672    -0.271963331310    12.000000000000
         C            2.832772941617     0.623318231328    -0.570166331310    12.000000000000
         H            0.636763941617    -1.006516768672     1.573831668690     1.007825032230
         H            1.399528941617     0.611789231328     1.755397668690     1.007825032230
         H           -2.734061058383     1.241874231328     0.167761668690     1.007825032230
         H           -2.162301058383     0.562336231328    -1.361372331310     1.007825032230
         H           -4.427905058383    -0.374065768672    -0.772794331310     1.007825032230
         H           -3.198570058383    -1.654264768672    -0.767551331310     1.007825032230
         H           -3.775366058383    -0.972216768672     0.765193668690     1.007825032230
         H            3.402341941617     0.257972231328    -1.425246331310     1.007825032230
         H            3.524174941617     0.979080231328     0.201945668690     1.007825032230
         H            2.197763941617     1.466681231328    -0.853262331310     1.007825032230

  Basis Set: AUG-CC-PVTZ
    Blend: AUG-CC-PVTZ
  Basis Set: (AUG-CC-PVTZ AUX)
    Blend: AUG-CC-PVTZ-JKFIT
	 Reference Energy          =    -457.8068279739742366 [Eh]
	 Singles Energy            =      -0.0000000000000000 [Eh]
	 Same-Spin Energy          =      -0.4473794922949426 [Eh]
	 Opposite-Spin Energy      =      -1.4377520197059317 [Eh]
	 Correlation Energy        =      -1.8851315120008743 [Eh]
	 Total Energy              =    -459.6919594859751328 [Eh]

	 ================> DF-SCS-MP2 Energies <==================
	-----------------------------------------------------------
	 SCS Same-Spin Scale       =       0.3333333333333333 [-]
	 SCS Opposite-Spin Scale   =       1.2000000000000000 [-]
	 SCS Same-Spin Energy      =      -0.1491264974316475 [Eh]
	 SCS Opposite-Spin Energy  =      -1.7253024236471179 [Eh]
	 SCS Correlation Energy    =      -1.8744289210787655 [Eh]
	 SCS Total Energy          =    -459.6812568950530249 [Eh]
	-----------------------------------------------------------

  Dipole Moment: [D]
     X:    -1.6298      Y:     1.2597      Z:     0.8892     Total:     2.2436

*** Psi4 exiting successfully. Buy a developer a beer!
