                               Psi4 1.3.2 release

  ==> Input File <==

--------------------------------------------------------------------------
#psi4
#
memory 32 gb

molecule  {
0 1
  O       -1.2542770    -0.2468050     0.3469180
  O       -0.1468590     1.6858550    -0.1065980
  O        2.1477990    -1.6706520    -0.3530900
  C        0.9946260    -0.1111920     1.0566790
  C       -2.4120090     0.3089700    -0.3319760
  C       -0.1772750     0.5642190     0.3788660
  C        1.9539589    -0.5655505    -0.0468343
  C       -3.4935710    -0.7441700    -0.2685760
  C        2.8657550     0.6173710    -0.5671120
  H        0.6699150    -1.0123850     1.5771470
  H        1.4326490     0.6059550     1.7585010
  H       -2.7005340     1.2360120     0.1703920
  H       -2.1291700     0.5558430    -1.3586020
  H       -4.3948760    -0.3798980    -0.7694460
  H       -3.1658200    -1.6603590    -0.7638670
  H       -3.7423020    -0.9776200     0.7686940
  H        3.4353450     0.2519410    -1.4221430
  H        3.5571500     0.9732660     0.2049480
  H        2.2307250     1.4606800    -0.8503130
units angstrom
no_reorient  #important for SAPT in psi4, default
symmetry c1  #important for SAPT in psi4, default
}

set PROPERTIES_ORIGIN ["COM"]
properties('MP2/aug-cc-pvtz', properties = ['dipole'])
--------------------------------------------------------------------------

    Molecular point group: c1
  Charge       = 0
  Multiplicity = 1
  Basis Set: AUG-CC-PVTZ
    Blend: AUG-CC-PVTZ
  Basis Set: (AUG-CC-PVTZ AUX)
    Blend: AUG-CC-PVTZ-JKFIT

    Orbital Energies [Eh]
    ---------------------

    Doubly Occupied:

       1A    -20.615235     2A    -20.564899     3A    -20.557581
       4A    -11.398797     5A    -11.345311     6A    -11.296847
       7A    -11.261425     8A    -11.231209     9A    -11.230084
      10A     -1.466748    11A     -1.434949    12A     -1.365638
      13A     -1.080573    14A     -1.036214    15A     -0.974752
      16A     -0.875597    17A     -0.798538    18A     -0.757334
      19A     -0.709383    20A     -0.694902    21A     -0.680923
      22A     -0.659858    23A     -0.646857    24A     -0.602376
      25A     -0.589632    26A     -0.578735    27A     -0.568196
      28A     -0.550671    29A     -0.536284    30A     -0.527354
      31A     -0.521299    32A     -0.513925    33A     -0.469504
      34A     -0.458789    35A     -0.409845

  @DF-RHF Final Energy:  -457.80122244994294

   => Energetics <=

    Nuclear Repulsion Energy =            453.9830500546856911
    One-Electron Energy =               -1525.5480185540470757
    Two-Electron Energy =                 613.7637460494183870
    Total Energy =                       -457.8012224499429976
  Basis Set: (AUG-CC-PVTZ AUX)
    Blend: AUG-CC-PVTZ-RI
    Molecular point group: c1

    Geometry (in Angstrom), charge = 0, multiplicity = 1:

       Center              X                  Y                   Z               Mass
    ------------   -----------------  -----------------  -----------------  -----------------
         O           -1.284078693177    -0.232911685731     0.345697305629    15.994914619570
         O           -0.176660693177     1.699748314269    -0.107818694371    15.994914619570
         O            2.117997306823    -1.656758685731    -0.354310694371    15.994914619570
         C            0.964824306823    -0.097298685731     1.055458305629    12.000000000000
         C           -2.441810693177     0.322863314269    -0.333196694371    12.000000000000
         C           -0.207076693177     0.578112314269     0.377645305629    12.000000000000
         C            1.924157206823    -0.551657185731    -0.048054994371    12.000000000000
         C           -3.523372693177    -0.730276685731    -0.269796694371    12.000000000000
         C            2.835953306823     0.631264314269    -0.568332694371    12.000000000000
         H            0.640113306823    -0.998491685731     1.575926305629     1.007825032230
         H            1.402847306823     0.619848314269     1.757280305629     1.007825032230
         H           -2.730335693177     1.249905314269     0.169171305629     1.007825032230
         H           -2.158971693177     0.569736314269    -1.359822694371     1.007825032230
         H           -4.424677693177    -0.366004685731    -0.770666694371     1.007825032230
         H           -3.195621693177    -1.646465685731    -0.765087694371     1.007825032230
         H           -3.772103693177    -0.963726685731     0.767473305629     1.007825032230
         H            3.405543306823     0.265834314269    -1.423363694371     1.007825032230
         H            3.527348306823     0.987159314269     0.203727305629     1.007825032230
         H            2.200923306823     1.474573314269    -0.851533694371     1.007825032230

  Basis Set: AUG-CC-PVTZ
    Blend: AUG-CC-PVTZ
  Basis Set: (AUG-CC-PVTZ AUX)
    Blend: AUG-CC-PVTZ-JKFIT
	 Reference Energy          =    -457.8012224499429408 [Eh]
	 Singles Energy            =      -0.0000000000000000 [Eh]
	 Same-Spin Energy          =      -0.4467949276618640 [Eh]
	 Opposite-Spin Energy      =      -1.4365199636530073 [Eh]
	 Correlation Energy        =      -1.8833148913148712 [Eh]
	 Total Energy              =    -459.6845373412577942 [Eh]

	 ================> DF-SCS-MP2 Energies <==================
	-----------------------------------------------------------
	 SCS Same-Spin Scale       =       0.3333333333333333 [-]
	 SCS Opposite-Spin Scale   =       1.2000000000000000 [-]
	 SCS Same-Spin Energy      =      -0.1489316425539547 [Eh]
	 SCS Opposite-Spin Energy  =      -1.7238239563836086 [Eh]
	 SCS Correlation Energy    =      -1.8727555989375633 [Eh]
	 SCS Total Energy          =    -459.6739780488804854 [Eh]
	-----------------------------------------------------------

  Dipole Moment: [D]
     X:    -1.4434      Y:     0.7258      Z:     1.0043     Total:     1.9023

*** Psi4 exiting successfully. Buy a developer a beer!
