                               Psi4 1.3.2 release

  ==> Input File <==

--------------------------------------------------------------------------
#psi4
#
memory 32 gb

molecule  {
0 1
  O        1.6278220     1.1039490    -0.3557360
  O        1.6261270    -1.1051420    -0.3568940
  N        1.2303560    -0.0005110     0.0571010
  C       -1.2291370     0.0005950     0.4261400
  C        0.2260974    -0.0002629     1.0165498
  C       -1.4725310    -1.2637550    -0.3963350
  C       -1.4703770     1.2649030    -0.3970360
  H       -1.9318680     0.0014310     1.2711020
  H        0.3121680     0.8980270     1.6854240
  H        0.3113180    -0.8988370     1.6852010
  H       -0.8065590    -1.3055500    -1.2620530
  H       -2.5039820    -1.2782850    -0.7600790
  H       -1.3066080    -2.1670550     0.1981350
  H       -1.3030680     2.1682800     0.1969290
  H       -0.8042250     1.3051620    -1.2627130
  H       -2.5017350     1.2809580    -0.7610030
units angstrom
no_reorient  #important for SAPT in psi4, default
symmetry c1  #important for SAPT in psi4, default
}

set PROPERTIES_ORIGIN ["COM"]
properties('MP2/aug-cc-pvtz', properties = ['dipole'])
--------------------------------------------------------------------------

    Molecular point group: c1
  Charge       = 0
  Multiplicity = 1
  Basis Set: AUG-CC-PVTZ
    Blend: AUG-CC-PVTZ
  Basis Set: (AUG-CC-PVTZ AUX)
    Blend: AUG-CC-PVTZ-JKFIT

    Orbital Energies [Eh]
    ---------------------

    Doubly Occupied:

       1A    -20.608106     2A    -20.608057     3A    -15.850454
       4A    -11.302640     5A    -11.268773     6A    -11.227593
       7A    -11.227578     8A     -1.595396     9A     -1.390081
      10A     -1.154305    11A     -1.058728    12A     -0.947505
      13A     -0.877448    14A     -0.804886    15A     -0.746340
      16A     -0.735325    17A     -0.712654    18A     -0.629414
      19A     -0.622714    20A     -0.602102    21A     -0.557309
      22A     -0.540445    23A     -0.519776    24A     -0.501870
      25A     -0.489225    26A     -0.484840    27A     -0.481419
      28A     -0.450762

  @DF-RHF Final Energy:  -360.88944240502036

   => Energetics <=

    Nuclear Repulsion Energy =            329.8348211525475335
    One-Electron Energy =               -1145.4570399400727183
    Two-Electron Energy =                 454.7327763825048237
    Total Energy =                       -360.8894424050203611
  Basis Set: (AUG-CC-PVTZ AUX)
    Blend: AUG-CC-PVTZ-RI
    Molecular point group: c1

    Geometry (in Angstrom), charge = 0, multiplicity = 1:

       Center              X                  Y                   Z               Mass
    ------------   -----------------  -----------------  -----------------  -----------------
         O            1.518112375360     1.103990847850    -0.338190052849    15.994914619570
         O            1.516417375360    -1.105100152150    -0.339348052849    15.994914619570
         N            1.120646375360    -0.000469152150     0.074646947151    14.003074004430
         C           -1.338846624640     0.000636847850     0.443685947151    12.000000000000
         C            0.116387775360    -0.000221052150     1.034095747151    12.000000000000
         C           -1.582240624640    -1.263713152150    -0.378789052849    12.000000000000
         C           -1.580086624640     1.264944847850    -0.379490052849    12.000000000000
         H           -2.041577624640     0.001472847850     1.288647947151     1.007825032230
         H            0.202458375360     0.898068847850     1.702969947151     1.007825032230
         H            0.201608375360    -0.898795152150     1.702746947151     1.007825032230
         H           -0.916268624640    -1.305508152150    -1.244507052849     1.007825032230
         H           -2.613691624640    -1.278243152150    -0.742533052849     1.007825032230
         H           -1.416317624640    -2.167013152150     0.215680947151     1.007825032230
         H           -1.412777624640     2.168321847850     0.214474947151     1.007825032230
         H           -0.913934624640     1.305203847850    -1.245167052849     1.007825032230
         H           -2.611444624640     1.280999847850    -0.743457052849     1.007825032230

  Basis Set: AUG-CC-PVTZ
    Blend: AUG-CC-PVTZ
  Basis Set: (AUG-CC-PVTZ AUX)
    Blend: AUG-CC-PVTZ-JKFIT
	 Reference Energy          =    -360.8894424050203611 [Eh]
	 Singles Energy            =      -0.0000000000000000 [Eh]
	 Same-Spin Energy          =      -0.3697577086785246 [Eh]
	 Opposite-Spin Energy      =      -1.1819629165885095 [Eh]
	 Correlation Energy        =      -1.5517206252670341 [Eh]
	 Total Energy              =    -362.4411630302873846 [Eh]

	 ================> DF-SCS-MP2 Energies <==================
	-----------------------------------------------------------
	 SCS Same-Spin Scale       =       0.3333333333333333 [-]
	 SCS Opposite-Spin Scale   =       1.2000000000000000 [-]
	 SCS Same-Spin Energy      =      -0.1232525695595082 [Eh]
	 SCS Opposite-Spin Energy  =      -1.4183554999062113 [Eh]
	 SCS Correlation Energy    =      -1.5416080694657195 [Eh]
	 SCS Total Energy          =    -362.4310504744860850 [Eh]
	-----------------------------------------------------------

  Dipole Moment: [D]
     X:    -2.9829      Y:     0.0010      Z:     2.1347     Total:     3.6681

*** Psi4 exiting successfully. Buy a developer a beer!
