                               Psi4 1.3.2 release

  ==> Input File <==

--------------------------------------------------------------------------
#psi4
#
memory 32 gb

molecule  {
0 1
  O        1.6278220     1.1039490    -0.3557360
  O        1.6261270    -1.1051420    -0.3568940
  N        1.2481423    -0.0005244     0.0760463
  C       -1.2291370     0.0005950     0.4261400
  C        0.1537920    -0.0002450     1.0856290
  C       -1.4725310    -1.2637550    -0.3963350
  C       -1.4703770     1.2649030    -0.3970360
  H       -1.9318680     0.0014310     1.2711020
  H        0.3121680     0.8980270     1.6854240
  H        0.3113180    -0.8988370     1.6852010
  H       -0.8065590    -1.3055500    -1.2620530
  H       -2.5039820    -1.2782850    -0.7600790
  H       -1.3066080    -2.1670550     0.1981350
  H       -1.3030680     2.1682800     0.1969290
  H       -0.8042250     1.3051620    -1.2627130
  H       -2.5017350     1.2809580    -0.7610030
units angstrom
no_reorient  #important for SAPT in psi4, default
symmetry c1  #important for SAPT in psi4, default
}

set PROPERTIES_ORIGIN ["COM"]
properties('MP2/aug-cc-pvtz', properties = ['dipole'])
--------------------------------------------------------------------------

    Molecular point group: c1
  Charge       = 0
  Multiplicity = 1
  Basis Set: AUG-CC-PVTZ
    Blend: AUG-CC-PVTZ
  Basis Set: (AUG-CC-PVTZ AUX)
    Blend: AUG-CC-PVTZ-JKFIT

    Orbital Energies [Eh]
    ---------------------

    Doubly Occupied:

       1A    -20.606164     2A    -20.606113     3A    -15.845522
       4A    -11.306079     5A    -11.265126     6A    -11.228151
       7A    -11.228134     8A     -1.583487     9A     -1.384110
      10A     -1.143361    11A     -1.042541    12A     -0.947854
      13A     -0.881194    14A     -0.804247    15A     -0.737016
      16A     -0.728486    17A     -0.705142    18A     -0.637756
      19A     -0.629177    20A     -0.607917    21A     -0.557328
      22A     -0.544341    23A     -0.516146    24A     -0.500911
      25A     -0.500200    26A     -0.484454    27A     -0.475577
      28A     -0.448054

  @DF-RHF Final Energy:  -360.89873621555245

   => Energetics <=

    Nuclear Repulsion Energy =            328.2745558787085542
    One-Electron Energy =               -1142.4574089081022521
    Two-Electron Energy =                 453.2841168138413082
    Total Energy =                       -360.8987362155524465
  Basis Set: (AUG-CC-PVTZ AUX)
    Blend: AUG-CC-PVTZ-RI
    Molecular point group: c1

    Geometry (in Angstrom), charge = 0, multiplicity = 1:

       Center              X                  Y                   Z               Mass
    ------------   -----------------  -----------------  -----------------  -----------------
         O            1.524114528926     1.103990584335    -0.348807241848    15.994914619570
         O            1.522419528926    -1.105100415665    -0.349965241848    15.994914619570
         N            1.144434828926    -0.000482815665     0.082975058152    14.003074004430
         C           -1.332844471074     0.000636584335     0.433068758152    12.000000000000
         C            0.050084528926    -0.000203415665     1.092557758152    12.000000000000
         C           -1.576238471074    -1.263713415665    -0.389406241848    12.000000000000
         C           -1.574084471074     1.264944584335    -0.390107241848    12.000000000000
         H           -2.035575471074     0.001472584335     1.278030758152     1.007825032230
         H            0.208460528926     0.898068584335     1.692352758152     1.007825032230
         H            0.207610528926    -0.898795415665     1.692129758152     1.007825032230
         H           -0.910266471074    -1.305508415665    -1.255124241848     1.007825032230
         H           -2.607689471074    -1.278243415665    -0.753150241848     1.007825032230
         H           -1.410315471074    -2.167013415665     0.205063758152     1.007825032230
         H           -1.406775471074     2.168321584335     0.203857758152     1.007825032230
         H           -0.907932471074     1.305203584335    -1.255784241848     1.007825032230
         H           -2.605442471074     1.280999584335    -0.754074241848     1.007825032230

  Basis Set: AUG-CC-PVTZ
    Blend: AUG-CC-PVTZ
  Basis Set: (AUG-CC-PVTZ AUX)
    Blend: AUG-CC-PVTZ-JKFIT
	 Reference Energy          =    -360.8987362155524465 [Eh]
	 Singles Energy            =      -0.0000000000000000 [Eh]
	 Same-Spin Energy          =      -0.3689570948477417 [Eh]
	 Opposite-Spin Energy      =      -1.1814289781821352 [Eh]
	 Correlation Energy        =      -1.5503860730298769 [Eh]
	 Total Energy              =    -362.4491222885823163 [Eh]

	 ================> DF-SCS-MP2 Energies <==================
	-----------------------------------------------------------
	 SCS Same-Spin Scale       =       0.3333333333333333 [-]
	 SCS Opposite-Spin Scale   =       1.2000000000000000 [-]
	 SCS Same-Spin Energy      =      -0.1229856982825806 [Eh]
	 SCS Opposite-Spin Energy  =      -1.4177147738185623 [Eh]
	 SCS Correlation Energy    =      -1.5407004721011428 [Eh]
	 SCS Total Energy          =    -362.4394366876535969 [Eh]
	-----------------------------------------------------------

  Dipole Moment: [D]
     X:    -2.9942      Y:     0.0011      Z:     2.1701     Total:     3.6979

*** Psi4 exiting successfully. Buy a developer a beer!
