                               Psi4 1.3.2 release

  ==> Input File <==

--------------------------------------------------------------------------
#psi4
#
memory 32 gb

molecule  {
0 1
  O        1.6278220     1.1039490    -0.3557360
  O        1.6261270    -1.1051420    -0.3568940
  N        1.2303560    -0.0005110     0.0571010
  C       -1.2291370     0.0005950     0.4261400
  C        0.0814866    -0.0002271     1.1547082
  C       -1.4725310    -1.2637550    -0.3963350
  C       -1.4703770     1.2649030    -0.3970360
  H       -1.9318680     0.0014310     1.2711020
  H        0.3121680     0.8980270     1.6854240
  H        0.3113180    -0.8988370     1.6852010
  H       -0.8065590    -1.3055500    -1.2620530
  H       -2.5039820    -1.2782850    -0.7600790
  H       -1.3066080    -2.1670550     0.1981350
  H       -1.3030680     2.1682800     0.1969290
  H       -0.8042250     1.3051620    -1.2627130
  H       -2.5017350     1.2809580    -0.7610030
units angstrom
no_reorient  #important for SAPT in psi4, default
symmetry c1  #important for SAPT in psi4, default
}

set PROPERTIES_ORIGIN ["COM"]
properties('MP2/aug-cc-pvtz', properties = ['dipole'])
--------------------------------------------------------------------------

    Molecular point group: c1
  Charge       = 0
  Multiplicity = 1
  Basis Set: AUG-CC-PVTZ
    Blend: AUG-CC-PVTZ
  Basis Set: (AUG-CC-PVTZ AUX)
    Blend: AUG-CC-PVTZ-JKFIT

    Orbital Energies [Eh]
    ---------------------

    Doubly Occupied:

       1A    -20.601137     2A    -20.601087     3A    -15.835742
       4A    -11.311767     5A    -11.263417     6A    -11.229815
       7A    -11.229797     8A     -1.572861     9A     -1.377718
      10A     -1.141441    11A     -1.026154    12A     -0.949284
      13A     -0.882230    14A     -0.804953    15A     -0.730127
      16A     -0.721252    17A     -0.697025    18A     -0.652560
      19A     -0.627944    20A     -0.614445    21A     -0.558307
      22A     -0.548170    23A     -0.516983    24A     -0.510592
      25A     -0.500107    26A     -0.484496    27A     -0.457476
      28A     -0.444161

  @DF-RHF Final Energy:  -360.89251659096226

   => Energetics <=

    Nuclear Repulsion Energy =            327.2244021297340737
    One-Electron Energy =               -1140.4517338352447950
    Two-Electron Energy =                 452.3348151145485190
    Total Energy =                       -360.8925165909622592
  Basis Set: (AUG-CC-PVTZ AUX)
    Blend: AUG-CC-PVTZ-RI
    Molecular point group: c1

    Geometry (in Angstrom), charge = 0, multiplicity = 1:

       Center              X                  Y                   Z               Mass
    ------------   -----------------  -----------------  -----------------  -----------------
         O            1.534949883179     1.103986679539    -0.354276286658    15.994914619570
         O            1.533254883179    -1.105104320461    -0.355434286658    15.994914619570
         N            1.137483883179    -0.000473320461     0.058560713342    14.003074004430
         C           -1.322009116821     0.000632679539     0.427599713342    12.000000000000
         C           -0.011385516821    -0.000189420461     1.156167913342    12.000000000000
         C           -1.565403116821    -1.263717320461    -0.394875286658    12.000000000000
         C           -1.563249116821     1.264940679539    -0.395576286658    12.000000000000
         H           -2.024740116821     0.001468679539     1.272561713342     1.007825032230
         H            0.219295883179     0.898064679539     1.686883713342     1.007825032230
         H            0.218445883179    -0.898799320461     1.686660713342     1.007825032230
         H           -0.899431116821    -1.305512320461    -1.260593286658     1.007825032230
         H           -2.596854116821    -1.278247320461    -0.758619286658     1.007825032230
         H           -1.399480116821    -2.167017320461     0.199594713342     1.007825032230
         H           -1.395940116821     2.168317679539     0.198388713342     1.007825032230
         H           -0.897097116821     1.305199679539    -1.261253286658     1.007825032230
         H           -2.594607116821     1.280995679539    -0.759543286658     1.007825032230

  Basis Set: AUG-CC-PVTZ
    Blend: AUG-CC-PVTZ
  Basis Set: (AUG-CC-PVTZ AUX)
    Blend: AUG-CC-PVTZ-JKFIT
	 Reference Energy          =    -360.8925165909622592 [Eh]
	 Singles Energy            =      -0.0000000000000000 [Eh]
	 Same-Spin Energy          =      -0.3687933194596631 [Eh]
	 Opposite-Spin Energy      =      -1.1814236569277319 [Eh]
	 Correlation Energy        =      -1.5502169763873950 [Eh]
	 Total Energy              =    -362.4427335673496486 [Eh]

	 ================> DF-SCS-MP2 Energies <==================
	-----------------------------------------------------------
	 SCS Same-Spin Scale       =       0.3333333333333333 [-]
	 SCS Opposite-Spin Scale   =       1.2000000000000000 [-]
	 SCS Same-Spin Energy      =      -0.1229311064865544 [Eh]
	 SCS Opposite-Spin Energy  =      -1.4177083883132782 [Eh]
	 SCS Correlation Energy    =      -1.5406394947998325 [Eh]
	 SCS Total Energy          =    -362.4331560857621071 [Eh]
	-----------------------------------------------------------

  Dipole Moment: [D]
     X:    -3.0771      Y:     0.0011      Z:     2.2207     Total:     3.7948

*** Psi4 exiting successfully. Buy a developer a beer!
