                               Psi4 1.3.2 release

  ==> Input File <==

--------------------------------------------------------------------------
#psi4
#
memory 32 gb

molecule  {
0 1
  O        1.5457605     1.1578011    -0.2701278
  O        1.6261270    -1.1051420    -0.3568940
  N        1.2303560    -0.0005110     0.0571010
  C       -1.2291370     0.0005950     0.4261400
  C        0.1537920    -0.0002450     1.0856290
  C       -1.4725310    -1.2637550    -0.3963350
  C       -1.4703770     1.2649030    -0.3970360
  H       -1.9318680     0.0014310     1.2711020
  H        0.3121680     0.8980270     1.6854240
  H        0.3113180    -0.8988370     1.6852010
  H       -0.8065590    -1.3055500    -1.2620530
  H       -2.5039820    -1.2782850    -0.7600790
  H       -1.3066080    -2.1670550     0.1981350
  H       -1.3030680     2.1682800     0.1969290
  H       -0.8042250     1.3051620    -1.2627130
  H       -2.5017350     1.2809580    -0.7610030
units angstrom
no_reorient  #important for SAPT in psi4, default
symmetry c1  #important for SAPT in psi4, default
}

set PROPERTIES_ORIGIN ["COM"]
properties('MP2/aug-cc-pvtz', properties = ['dipole'])
--------------------------------------------------------------------------

    Molecular point group: c1
  Charge       = 0
  Multiplicity = 1
  Basis Set: AUG-CC-PVTZ
    Blend: AUG-CC-PVTZ
  Basis Set: (AUG-CC-PVTZ AUX)
    Blend: AUG-CC-PVTZ-JKFIT

    Orbital Energies [Eh]
    ---------------------

    Doubly Occupied:

       1A    -20.613388     2A    -20.610167     3A    -15.847739
       4A    -11.299894     5A    -11.262006     6A    -11.227089
       7A    -11.226410     8A     -1.584643     9A     -1.396907
      10A     -1.138684    11A     -1.037715    12A     -0.946424
      13A     -0.880932    14A     -0.805662    15A     -0.738242
      16A     -0.732394    17A     -0.705317    18A     -0.637732
      19A     -0.627431    20A     -0.605989    21A     -0.557227
      22A     -0.543527    23A     -0.513742    24A     -0.505579
      25A     -0.497624    26A     -0.485797    27A     -0.469622
      28A     -0.454483

  @DF-RHF Final Energy:  -360.89461878087707

   => Energetics <=

    Nuclear Repulsion Energy =            329.1692816580760450
    One-Electron Energy =               -1144.2230679158499242
    Two-Electron Energy =                 454.1591674768968687
    Total Energy =                       -360.8946187808770674
  Basis Set: (AUG-CC-PVTZ AUX)
    Blend: AUG-CC-PVTZ-RI
    Molecular point group: c1

    Geometry (in Angstrom), charge = 0, multiplicity = 1:

       Center              X                  Y                   Z               Mass
    ------------   -----------------  -----------------  -----------------  -----------------
         O            1.457205164835     1.149483286331    -0.273910935472    15.994914619570
         O            1.537571664835    -1.113459813669    -0.360677135472    15.994914619570
         N            1.141800664835    -0.008828813669     0.053317864528    14.003074004430
         C           -1.317692335165    -0.007722813669     0.422356864528    12.000000000000
         C            0.065236664835    -0.008562813669     1.081845864528    12.000000000000
         C           -1.561086335165    -1.272072813669    -0.400118135472    12.000000000000
         C           -1.558932335165     1.256585186331    -0.400819135472    12.000000000000
         H           -2.020423335165    -0.006886813669     1.267318864528     1.007825032230
         H            0.223612664835     0.889709186331     1.681640864528     1.007825032230
         H            0.222762664835    -0.907154813669     1.681417864528     1.007825032230
         H           -0.895114335165    -1.313867813669    -1.265836135472     1.007825032230
         H           -2.592537335165    -1.286602813669    -0.763862135472     1.007825032230
         H           -1.395163335165    -2.175372813669     0.194351864528     1.007825032230
         H           -1.391623335165     2.159962186331     0.193145864528     1.007825032230
         H           -0.892780335165     1.296844186331    -1.266496135472     1.007825032230
         H           -2.590290335165     1.272640186331    -0.764786135472     1.007825032230

  Basis Set: AUG-CC-PVTZ
    Blend: AUG-CC-PVTZ
  Basis Set: (AUG-CC-PVTZ AUX)
    Blend: AUG-CC-PVTZ-JKFIT
	 Reference Energy          =    -360.8946187808770674 [Eh]
	 Singles Energy            =      -0.0000000000000000 [Eh]
	 Same-Spin Energy          =      -0.3693734724282445 [Eh]
	 Opposite-Spin Energy      =      -1.1820275181352642 [Eh]
	 Correlation Energy        =      -1.5514009905635087 [Eh]
	 Total Energy              =    -362.4460197714406036 [Eh]

	 ================> DF-SCS-MP2 Energies <==================
	-----------------------------------------------------------
	 SCS Same-Spin Scale       =       0.3333333333333333 [-]
	 SCS Opposite-Spin Scale   =       1.2000000000000000 [-]
	 SCS Same-Spin Energy      =      -0.1231244908094148 [Eh]
	 SCS Opposite-Spin Energy  =      -1.4184330217623169 [Eh]
	 SCS Correlation Energy    =      -1.5415575125717318 [Eh]
	 SCS Total Energy          =    -362.4361762934487956 [Eh]
	-----------------------------------------------------------

  Dipole Moment: [D]
     X:    -2.7757      Y:    -0.0530      Z:     2.0063     Total:     3.4253

*** Psi4 exiting successfully. Buy a developer a beer!
