                               Psi4 1.3.2 release

  ==> Input File <==

--------------------------------------------------------------------------
#psi4
#
memory 32 gb

molecule  {
0 1
  O        1.6418515     1.0937903    -0.3688351
  O        1.6261270    -1.1051420    -0.3568940
  N        1.2303560    -0.0005110     0.0571010
  C       -1.2291370     0.0005950     0.4261400
  C        0.1537920    -0.0002450     1.0856290
  C       -1.4725310    -1.2637550    -0.3963350
  C       -1.4703770     1.2649030    -0.3970360
  H       -1.9318680     0.0014310     1.2711020
  H        0.3121680     0.8980270     1.6854240
  H        0.3113180    -0.8988370     1.6852010
  H       -0.8065590    -1.3055500    -1.2620530
  H       -2.5039820    -1.2782850    -0.7600790
  H       -1.3066080    -2.1670550     0.1981350
  H       -1.3030680     2.1682800     0.1969290
  H       -0.8042250     1.3051620    -1.2627130
  H       -2.5017350     1.2809580    -0.7610030
units angstrom
no_reorient  #important for SAPT in psi4, default
symmetry c1  #important for SAPT in psi4, default
}

set PROPERTIES_ORIGIN ["COM"]
properties('MP2/aug-cc-pvtz', properties = ['dipole'])
--------------------------------------------------------------------------

    Molecular point group: c1
  Charge       = 0
  Multiplicity = 1
  Basis Set: AUG-CC-PVTZ
    Blend: AUG-CC-PVTZ
  Basis Set: (AUG-CC-PVTZ AUX)
    Blend: AUG-CC-PVTZ-JKFIT

    Orbital Energies [Eh]
    ---------------------

    Doubly Occupied:

       1A    -20.605227     2A    -20.604730     3A    -15.845270
       4A    -11.306950     5A    -11.265037     6A    -11.228551
       7A    -11.228402     8A     -1.584192     9A     -1.382788
      10A     -1.144704    11A     -1.042453    12A     -0.948231
      13A     -0.881331    14A     -0.803889    15A     -0.738345
      16A     -0.727896    17A     -0.705415    18A     -0.638088
      19A     -0.629047    20A     -0.608321    21A     -0.557506
      22A     -0.544782    23A     -0.517426    24A     -0.500597
      25A     -0.500399    26A     -0.483881    27A     -0.475495
      28A     -0.447142

  @DF-RHF Final Energy:  -360.89949270748457

   => Energetics <=

    Nuclear Repulsion Energy =            328.3820631536033261
    One-Electron Energy =               -1142.6709254891807177
    Two-Electron Energy =                 453.3893696280928225
    Total Energy =                       -360.8994927074845691
  Basis Set: (AUG-CC-PVTZ AUX)
    Blend: AUG-CC-PVTZ-RI
    Molecular point group: c1

    Geometry (in Angstrom), charge = 0, multiplicity = 1:

       Center              X                  Y                   Z               Mass
    ------------   -----------------  -----------------  -----------------  -----------------
         O            1.538383320834     1.095406643274    -0.357299354758    15.994914619570
         O            1.522658820834    -1.103525656726    -0.345358254758    15.994914619570
         N            1.126887820834     0.001105343274     0.068636745242    14.003074004430
         C           -1.332605179166     0.002211343274     0.437675745242    12.000000000000
         C            0.050323820834     0.001371343274     1.097164745242    12.000000000000
         C           -1.575999179166    -1.262138656726    -0.384799254758    12.000000000000
         C           -1.573845179166     1.266519343274    -0.385500254758    12.000000000000
         H           -2.035336179166     0.003047343274     1.282637745242     1.007825032230
         H            0.208699820834     0.899643343274     1.696959745242     1.007825032230
         H            0.207849820834    -0.897220656726     1.696736745242     1.007825032230
         H           -0.910027179166    -1.303933656726    -1.250517254758     1.007825032230
         H           -2.607450179166    -1.276668656726    -0.748543254758     1.007825032230
         H           -1.410076179166    -2.165438656726     0.209670745242     1.007825032230
         H           -1.406536179166     2.169896343274     0.208464745242     1.007825032230
         H           -0.907693179166     1.306778343274    -1.251177254758     1.007825032230
         H           -2.605203179166     1.282574343274    -0.749467254758     1.007825032230

  Basis Set: AUG-CC-PVTZ
    Blend: AUG-CC-PVTZ
  Basis Set: (AUG-CC-PVTZ AUX)
    Blend: AUG-CC-PVTZ-JKFIT
	 Reference Energy          =    -360.8994927074845691 [Eh]
	 Singles Energy            =      -0.0000000000000000 [Eh]
	 Same-Spin Energy          =      -0.3688401542822000 [Eh]
	 Opposite-Spin Energy      =      -1.1811307829973228 [Eh]
	 Correlation Energy        =      -1.5499709372795227 [Eh]
	 Total Energy              =    -362.4494636447640801 [Eh]

	 ================> DF-SCS-MP2 Energies <==================
	-----------------------------------------------------------
	 SCS Same-Spin Scale       =       0.3333333333333333 [-]
	 SCS Opposite-Spin Scale   =       1.2000000000000000 [-]
	 SCS Same-Spin Energy      =      -0.1229467180940667 [Eh]
	 SCS Opposite-Spin Energy  =      -1.4173569395967873 [Eh]
	 SCS Correlation Energy    =      -1.5403036576908540 [Eh]
	 SCS Total Energy          =    -362.4397963651754253 [Eh]
	-----------------------------------------------------------

  Dipole Moment: [D]
     X:    -3.0264      Y:     0.0120      Z:     2.1945     Total:     3.7384

*** Psi4 exiting successfully. Buy a developer a beer!
