                               Psi4 1.3.2 release

  ==> Input File <==

--------------------------------------------------------------------------
#psi4
#
memory 32 gb

molecule  {
0 1
  O        1.6278220     1.1039490    -0.3557360
  O        1.6261270    -1.1051420    -0.3568940
  N        1.2622993     0.0882516     0.0239224
  C       -1.2291370     0.0005950     0.4261400
  C        0.1537920    -0.0002450     1.0856290
  C       -1.4725310    -1.2637550    -0.3963350
  C       -1.4703770     1.2649030    -0.3970360
  H       -1.9318680     0.0014310     1.2711020
  H        0.3121680     0.8980270     1.6854240
  H        0.3113180    -0.8988370     1.6852010
  H       -0.8065590    -1.3055500    -1.2620530
  H       -2.5039820    -1.2782850    -0.7600790
  H       -1.3066080    -2.1670550     0.1981350
  H       -1.3030680     2.1682800     0.1969290
  H       -0.8042250     1.3051620    -1.2627130
  H       -2.5017350     1.2809580    -0.7610030
units angstrom
no_reorient  #important for SAPT in psi4, default
symmetry c1  #important for SAPT in psi4, default
}

set PROPERTIES_ORIGIN ["COM"]
properties('MP2/aug-cc-pvtz', properties = ['dipole'])
--------------------------------------------------------------------------

    Molecular point group: c1
  Charge       = 0
  Multiplicity = 1
  Basis Set: AUG-CC-PVTZ
    Blend: AUG-CC-PVTZ
  Basis Set: (AUG-CC-PVTZ AUX)
    Blend: AUG-CC-PVTZ-JKFIT

    Orbital Energies [Eh]
    ---------------------

    Doubly Occupied:

       1A    -20.638649     2A    -20.572395     3A    -15.841957
       4A    -11.304493     5A    -11.262439     6A    -11.230336
       7A    -11.224289     8A     -1.637033     9A     -1.375241
      10A     -1.133840    11A     -1.029583    12A     -0.946980
      13A     -0.881289    14A     -0.811726    15A     -0.748505
      16A     -0.735217    17A     -0.719914    18A     -0.638943
      19A     -0.634754    20A     -0.609189    21A     -0.556545
      22A     -0.543589    23A     -0.513348    24A     -0.500877
      25A     -0.497130    26A     -0.483395    27A     -0.455703
      28A     -0.447826

  @DF-RHF Final Energy:  -360.89067191737115

   => Energetics <=

    Nuclear Repulsion Energy =            328.6226418974972034
    One-Electron Energy =               -1143.0762593987617493
    Two-Electron Energy =                 453.5629455838933382
    Total Energy =                       -360.8906719173711508
  Basis Set: (AUG-CC-PVTZ AUX)
    Blend: AUG-CC-PVTZ-RI
    Molecular point group: c1

    Geometry (in Angstrom), charge = 0, multiplicity = 1:

       Center              X                  Y                   Z               Mass
    ------------   -----------------  -----------------  -----------------  -----------------
         O            1.522191036628     1.091928710189    -0.341725238584    15.994914619570
         O            1.520496036628    -1.117162289811    -0.342883238584    15.994914619570
         N            1.156668336628     0.076231310189     0.037933161416    14.003074004430
         C           -1.334767963372    -0.011425289811     0.440150761416    12.000000000000
         C            0.048161036628    -0.012265289811     1.099639761416    12.000000000000
         C           -1.578161963372    -1.275775289811    -0.382324238584    12.000000000000
         C           -1.576007963372     1.252882710189    -0.383025238584    12.000000000000
         H           -2.037498963372    -0.010589289811     1.285112761416     1.007825032230
         H            0.206537036628     0.886006710189     1.699434761416     1.007825032230
         H            0.205687036628    -0.910857289811     1.699211761416     1.007825032230
         H           -0.912189963372    -1.317570289811    -1.248042238584     1.007825032230
         H           -2.609612963372    -1.290305289811    -0.746068238584     1.007825032230
         H           -1.412238963372    -2.179075289811     0.212145761416     1.007825032230
         H           -1.408698963372     2.156259710189     0.210939761416     1.007825032230
         H           -0.909855963372     1.293141710189    -1.248702238584     1.007825032230
         H           -2.607365963372     1.268937710189    -0.746992238584     1.007825032230

  Basis Set: AUG-CC-PVTZ
    Blend: AUG-CC-PVTZ
  Basis Set: (AUG-CC-PVTZ AUX)
    Blend: AUG-CC-PVTZ-JKFIT
	 Reference Energy          =    -360.8906719173711508 [Eh]
	 Singles Energy            =      -0.0000000000000000 [Eh]
	 Same-Spin Energy          =      -0.3662802780113366 [Eh]
	 Opposite-Spin Energy      =      -1.1756141744805779 [Eh]
	 Correlation Energy        =      -1.5418944524919145 [Eh]
	 Total Energy              =    -362.4325663698630819 [Eh]

	 ================> DF-SCS-MP2 Energies <==================
	-----------------------------------------------------------
	 SCS Same-Spin Scale       =       0.3333333333333333 [-]
	 SCS Opposite-Spin Scale   =       1.2000000000000000 [-]
	 SCS Same-Spin Energy      =      -0.1220934260037788 [Eh]
	 SCS Opposite-Spin Energy  =      -1.4107370093766936 [Eh]
	 SCS Correlation Energy    =      -1.5328304353804725 [Eh]
	 SCS Total Energy          =    -362.4235023527515978 [Eh]
	-----------------------------------------------------------

  Dipole Moment: [D]
     X:    -2.8704      Y:     0.5809      Z:     2.0836     Total:     3.5942

*** Psi4 exiting successfully. Buy a developer a beer!
