                               Psi4 1.3.2 release

  ==> Input File <==

--------------------------------------------------------------------------
#psi4
#
memory 32 gb

molecule  {
0 1
  O        1.6278220     1.1039490    -0.3557360
  O        1.6261270    -1.1051420    -0.3568940
  N        1.3319689    -0.0005903     0.1752670
  C       -1.2291370     0.0005950     0.4261400
  C        0.1537920    -0.0002450     1.0856290
  C       -1.4725310    -1.2637550    -0.3963350
  C       -1.4703770     1.2649030    -0.3970360
  H       -1.9318680     0.0014310     1.2711020
  H        0.3121680     0.8980270     1.6854240
  H        0.3113180    -0.8988370     1.6852010
  H       -0.8065590    -1.3055500    -1.2620530
  H       -2.5039820    -1.2782850    -0.7600790
  H       -1.3066080    -2.1670550     0.1981350
  H       -1.3030680     2.1682800     0.1969290
  H       -0.8042250     1.3051620    -1.2627130
  H       -2.5017350     1.2809580    -0.7610030
units angstrom
no_reorient  #important for SAPT in psi4, default
symmetry c1  #important for SAPT in psi4, default
}

set PROPERTIES_ORIGIN ["COM"]
properties('MP2/aug-cc-pvtz', properties = ['dipole'])
--------------------------------------------------------------------------

    Molecular point group: c1
  Charge       = 0
  Multiplicity = 1
  Basis Set: AUG-CC-PVTZ
    Blend: AUG-CC-PVTZ
  Basis Set: (AUG-CC-PVTZ AUX)
    Blend: AUG-CC-PVTZ-JKFIT

    Orbital Energies [Eh]
    ---------------------

    Doubly Occupied:

       1A    -20.607961     2A    -20.607891     3A    -15.843311
       4A    -11.308066     5A    -11.267719     6A    -11.227909
       7A    -11.227892     8A     -1.571430     9A     -1.370907
      10A     -1.141168    11A     -1.046401    12A     -0.947491
      13A     -0.882527    14A     -0.803766    15A     -0.727191
      16A     -0.725103    17A     -0.700707    18A     -0.635449
      19A     -0.629506    20A     -0.607195    21A     -0.556744
      22A     -0.543315    23A     -0.512914    24A     -0.500928
      25A     -0.499823    26A     -0.483320    27A     -0.479123
      28A     -0.443771

  @DF-RHF Final Energy:  -360.88143725924226

   => Energetics <=

    Nuclear Repulsion Energy =            326.8697014514023635
    One-Electron Energy =               -1139.7032169327751490
    Two-Electron Energy =                 451.9520782221305808
    Total Energy =                       -360.8814372592422615
  Basis Set: (AUG-CC-PVTZ AUX)
    Blend: AUG-CC-PVTZ-RI
    Molecular point group: c1

    Geometry (in Angstrom), charge = 0, multiplicity = 1:

       Center              X                  Y                   Z               Mass
    ------------   -----------------  -----------------  -----------------  -----------------
         O            1.512725123014     1.103999538078    -0.362288223150    15.994914619570
         O            1.511030123014    -1.105091461922    -0.363446223150    15.994914619570
         N            1.216872023014    -0.000539761922     0.168714776850    14.003074004430
         C           -1.344233876986     0.000645538078     0.419587776850    12.000000000000
         C            0.038695123014    -0.000194461922     1.079076776850    12.000000000000
         C           -1.587627876986    -1.263704461922    -0.402887223150    12.000000000000
         C           -1.585473876986     1.264953538078    -0.403588223150    12.000000000000
         H           -2.046964876986     0.001481538078     1.264549776850     1.007825032230
         H            0.197071123014     0.898077538078     1.678871776850     1.007825032230
         H            0.196221123014    -0.898786461922     1.678648776850     1.007825032230
         H           -0.921655876986    -1.305499461922    -1.268605223150     1.007825032230
         H           -2.619078876986    -1.278234461922    -0.766631223150     1.007825032230
         H           -1.421704876986    -2.167004461922     0.191582776850     1.007825032230
         H           -1.418164876986     2.168330538078     0.190376776850     1.007825032230
         H           -0.919321876986     1.305212538078    -1.269265223150     1.007825032230
         H           -2.616831876986     1.281008538078    -0.767555223150     1.007825032230

  Basis Set: AUG-CC-PVTZ
    Blend: AUG-CC-PVTZ
  Basis Set: (AUG-CC-PVTZ AUX)
    Blend: AUG-CC-PVTZ-JKFIT
	 Reference Energy          =    -360.8814372592422615 [Eh]
	 Singles Energy            =      -0.0000000000000000 [Eh]
	 Same-Spin Energy          =      -0.3704475951043724 [Eh]
	 Opposite-Spin Energy      =      -1.1858341138731756 [Eh]
	 Correlation Energy        =      -1.5562817089775480 [Eh]
	 Total Energy              =    -362.4377189682198264 [Eh]

	 ================> DF-SCS-MP2 Energies <==================
	-----------------------------------------------------------
	 SCS Same-Spin Scale       =       0.3333333333333333 [-]
	 SCS Opposite-Spin Scale   =       1.2000000000000000 [-]
	 SCS Same-Spin Energy      =      -0.1234825317014575 [Eh]
	 SCS Opposite-Spin Energy  =      -1.4230009366478107 [Eh]
	 SCS Correlation Energy    =      -1.5464834683492681 [Eh]
	 SCS Total Energy          =    -362.4279207275915269 [Eh]
	-----------------------------------------------------------

  Dipole Moment: [D]
     X:    -3.0248      Y:     0.0013      Z:     2.1749     Total:     3.7255

*** Psi4 exiting successfully. Buy a developer a beer!
