                               Psi4 1.3.2 release

  ==> Input File <==

--------------------------------------------------------------------------
#psi4
#
memory 32 gb

molecule  {
0 1
  O        1.6278220     1.1039490    -0.3557360
  O        1.6261270    -1.1051420    -0.3568940
  N        1.1906000    -0.0893886     0.0207617
  C       -1.2291370     0.0005950     0.4261400
  C        0.1537920    -0.0002450     1.0856290
  C       -1.4725310    -1.2637550    -0.3963350
  C       -1.4703770     1.2649030    -0.3970360
  H       -1.9318680     0.0014310     1.2711020
  H        0.3121680     0.8980270     1.6854240
  H        0.3113180    -0.8988370     1.6852010
  H       -0.8065590    -1.3055500    -1.2620530
  H       -2.5039820    -1.2782850    -0.7600790
  H       -1.3066080    -2.1670550     0.1981350
  H       -1.3030680     2.1682800     0.1969290
  H       -0.8042250     1.3051620    -1.2627130
  H       -2.5017350     1.2809580    -0.7610030
units angstrom
no_reorient  #important for SAPT in psi4, default
symmetry c1  #important for SAPT in psi4, default
}

set PROPERTIES_ORIGIN ["COM"]
properties('MP2/aug-cc-pvtz', properties = ['dipole'])
--------------------------------------------------------------------------

    Molecular point group: c1
  Charge       = 0
  Multiplicity = 1
  Basis Set: AUG-CC-PVTZ
    Blend: AUG-CC-PVTZ
  Basis Set: (AUG-CC-PVTZ AUX)
    Blend: AUG-CC-PVTZ-JKFIT

    Orbital Energies [Eh]
    ---------------------

    Doubly Occupied:

       1A    -20.638633     2A    -20.572491     3A    -15.843105
       4A    -11.306138     5A    -11.263743     6A    -11.231540
       7A    -11.225504     8A     -1.617200     9A     -1.358552
      10A     -1.144954    11A     -1.040902    12A     -0.948407
      13A     -0.883464    14A     -0.809354    15A     -0.747898
      16A     -0.731312    17A     -0.713284    18A     -0.637942
      19A     -0.630940    20A     -0.609430    21A     -0.557165
      22A     -0.545288    23A     -0.517486    24A     -0.501640
      25A     -0.497320    26A     -0.482227    27A     -0.462546
      28A     -0.442388

  @DF-RHF Final Energy:  -360.88750579606415

   => Energetics <=

    Nuclear Repulsion Energy =            328.9676550485234543
    One-Electron Energy =               -1143.7886216917549973
    Two-Electron Energy =                 453.9334608471673391
    Total Energy =                       -360.8875057960641470
  Basis Set: (AUG-CC-PVTZ AUX)
    Blend: AUG-CC-PVTZ-RI
    Molecular point group: c1

    Geometry (in Angstrom), charge = 0, multiplicity = 1:

       Center              X                  Y                   Z               Mass
    ------------   -----------------  -----------------  -----------------  -----------------
         O            1.531932722815     1.116064442094    -0.341295798582    15.994914619570
         O            1.530237722815    -1.093026557906    -0.342453798582    15.994914619570
         N            1.094710722815    -0.077273157906     0.035201901418    14.003074004430
         C           -1.325026277185     0.012710442094     0.440580201418    12.000000000000
         C            0.057902722815     0.011870442094     1.100069201418    12.000000000000
         C           -1.568420277185    -1.251639557906    -0.381894798582    12.000000000000
         C           -1.566266277185     1.277018442094    -0.382595798582    12.000000000000
         H           -2.027757277185     0.013546442094     1.285542201418     1.007825032230
         H            0.216278722815     0.910142442094     1.699864201418     1.007825032230
         H            0.215428722815    -0.886721557906     1.699641201418     1.007825032230
         H           -0.902448277185    -1.293434557906    -1.247612798582     1.007825032230
         H           -2.599871277185    -1.266169557906    -0.745638798582     1.007825032230
         H           -1.402497277185    -2.154939557906     0.212575201418     1.007825032230
         H           -1.398957277185     2.180395442094     0.211369201418     1.007825032230
         H           -0.900114277185     1.317277442094    -1.248272798582     1.007825032230
         H           -2.597624277185     1.293073442094    -0.746562798582     1.007825032230

  Basis Set: AUG-CC-PVTZ
    Blend: AUG-CC-PVTZ
  Basis Set: (AUG-CC-PVTZ AUX)
    Blend: AUG-CC-PVTZ-JKFIT
	 Reference Energy          =    -360.8875057960641470 [Eh]
	 Singles Energy            =      -0.0000000000000000 [Eh]
	 Same-Spin Energy          =      -0.3678581856474088 [Eh]
	 Opposite-Spin Energy      =      -1.1790897680564816 [Eh]
	 Correlation Energy        =      -1.5469479537038904 [Eh]
	 Total Energy              =    -362.4344537497680108 [Eh]

	 ================> DF-SCS-MP2 Energies <==================
	-----------------------------------------------------------
	 SCS Same-Spin Scale       =       0.3333333333333333 [-]
	 SCS Opposite-Spin Scale   =       1.2000000000000000 [-]
	 SCS Same-Spin Energy      =      -0.1226193952158029 [Eh]
	 SCS Opposite-Spin Energy  =      -1.4149077216677779 [Eh]
	 SCS Correlation Energy    =      -1.5375271168835809 [Eh]
	 SCS Total Energy          =    -362.4250329129476995 [Eh]
	-----------------------------------------------------------

  Dipole Moment: [D]
     X:    -3.0310      Y:    -0.5211      Z:     2.1914     Total:     3.7763

*** Psi4 exiting successfully. Buy a developer a beer!
