                               Psi4 1.3.2 release

  ==> Input File <==

--------------------------------------------------------------------------
#psi4
#
memory 32 gb

molecule  {
0 1
  O        1.6278220     1.1039490    -0.3557360
  O        1.6261270    -1.1051420    -0.3568940
  N        1.2994800    -0.0005642     0.1347037
  C       -1.2291370     0.0005950     0.4261400
  C        0.1537920    -0.0002450     1.0856290
  C       -1.4725310    -1.2637550    -0.3963350
  C       -1.4703770     1.2649030    -0.3970360
  H       -1.9318680     0.0014310     1.2711020
  H        0.3121680     0.8980270     1.6854240
  H        0.3113180    -0.8988370     1.6852010
  H       -0.8065590    -1.3055500    -1.2620530
  H       -2.5039820    -1.2782850    -0.7600790
  H       -1.3066080    -2.1670550     0.1981350
  H       -1.3030680     2.1682800     0.1969290
  H       -0.8042250     1.3051620    -1.2627130
  H       -2.5017350     1.2809580    -0.7610030
units angstrom
no_reorient  #important for SAPT in psi4, default
symmetry c1  #important for SAPT in psi4, default
}

set PROPERTIES_ORIGIN ["COM"]
properties('MP2/aug-cc-pvtz', properties = ['dipole'])
--------------------------------------------------------------------------

    Molecular point group: c1
  Charge       = 0
  Multiplicity = 1
  Basis Set: AUG-CC-PVTZ
    Blend: AUG-CC-PVTZ
  Basis Set: (AUG-CC-PVTZ AUX)
    Blend: AUG-CC-PVTZ-JKFIT

    Orbital Energies [Eh]
    ---------------------

    Doubly Occupied:

       1A    -20.607004     2A    -20.606944     3A    -15.844482
       4A    -11.307020     5A    -11.266686     6A    -11.227970
       7A    -11.227954     8A     -1.577907     9A     -1.377937
      10A     -1.141981    11A     -1.044813    12A     -0.947596
      13A     -0.881706    14A     -0.804136    15A     -0.731773
      16A     -0.726992    17A     -0.703022    18A     -0.636619
      19A     -0.629668    20A     -0.607547    21A     -0.556980
      22A     -0.543714    23A     -0.514078    24A     -0.500507
      25A     -0.500345    26A     -0.483917    27A     -0.477871
      28A     -0.446102

  @DF-RHF Final Energy:  -360.89113992070969

   => Energetics <=

    Nuclear Repulsion Energy =            327.5013254742357276
    One-Electron Energy =               -1140.9383889596754216
    Two-Electron Energy =                 452.5459235647300034
    Total Energy =                       -360.8911399207096906
  Basis Set: (AUG-CC-PVTZ AUX)
    Blend: AUG-CC-PVTZ-RI
    Molecular point group: c1

    Geometry (in Angstrom), charge = 0, multiplicity = 1:

       Center              X                  Y                   Z               Mass
    ------------   -----------------  -----------------  -----------------  -----------------
         O            1.517139345584     1.103995991906    -0.356776942854    15.994914619570
         O            1.515444345584    -1.105095008094    -0.357934942854    15.994914619570
         N            1.188797345584    -0.000517208094     0.133662757146    14.003074004430
         C           -1.339819654416     0.000641991906     0.425099057146    12.000000000000
         C            0.043109345584    -0.000198008094     1.084588057146    12.000000000000
         C           -1.583213654416    -1.263708008094    -0.397375942854    12.000000000000
         C           -1.581059654416     1.264949991906    -0.398076942854    12.000000000000
         H           -2.042550654416     0.001477991906     1.270061057146     1.007825032230
         H            0.201485345584     0.898073991906     1.684383057146     1.007825032230
         H            0.200635345584    -0.898790008094     1.684160057146     1.007825032230
         H           -0.917241654416    -1.305503008094    -1.263093942854     1.007825032230
         H           -2.614664654416    -1.278238008094    -0.761119942854     1.007825032230
         H           -1.417290654416    -2.167008008094     0.197094057146     1.007825032230
         H           -1.413750654416     2.168326991906     0.195888057146     1.007825032230
         H           -0.914907654416     1.305208991906    -1.263753942854     1.007825032230
         H           -2.612417654416     1.281004991906    -0.762043942854     1.007825032230

  Basis Set: AUG-CC-PVTZ
    Blend: AUG-CC-PVTZ
  Basis Set: (AUG-CC-PVTZ AUX)
    Blend: AUG-CC-PVTZ-JKFIT
	 Reference Energy          =    -360.8911399207096906 [Eh]
	 Singles Energy            =      -0.0000000000000000 [Eh]
	 Same-Spin Energy          =      -0.3696081973093873 [Eh]
	 Opposite-Spin Energy      =      -1.1833936128380496 [Eh]
	 Correlation Energy        =      -1.5530018101474368 [Eh]
	 Total Energy              =    -362.4441417308571545 [Eh]

	 ================> DF-SCS-MP2 Energies <==================
	-----------------------------------------------------------
	 SCS Same-Spin Scale       =       0.3333333333333333 [-]
	 SCS Opposite-Spin Scale   =       1.2000000000000000 [-]
	 SCS Same-Spin Energy      =      -0.1232027324364624 [Eh]
	 SCS Opposite-Spin Energy  =      -1.4200723354056595 [Eh]
	 SCS Correlation Energy    =      -1.5432750678421219 [Eh]
	 SCS Total Energy          =    -362.4344149885517936 [Eh]
	-----------------------------------------------------------

  Dipole Moment: [D]
     X:    -3.0098      Y:     0.0012      Z:     2.1737     Total:     3.7127

*** Psi4 exiting successfully. Buy a developer a beer!
