                               Psi4 1.3.2 release

  ==> Input File <==

--------------------------------------------------------------------------
#psi4
#
memory 32 gb

molecule  {
0 1
  O        1.5412548     1.1577349    -0.2746428
  O        1.6261270    -1.1051420    -0.3568940
  N        1.2303560    -0.0005110     0.0571010
  C       -1.2291370     0.0005950     0.4261400
  C        0.1537920    -0.0002450     1.0856290
  C       -1.4725310    -1.2637550    -0.3963350
  C       -1.4703770     1.2649030    -0.3970360
  H       -1.9318680     0.0014310     1.2711020
  H        0.3121680     0.8980270     1.6854240
  H        0.3113180    -0.8988370     1.6852010
  H       -0.8065590    -1.3055500    -1.2620530
  H       -2.5039820    -1.2782850    -0.7600790
  H       -1.3066080    -2.1670550     0.1981350
  H       -1.3030680     2.1682800     0.1969290
  H       -0.8042250     1.3051620    -1.2627130
  H       -2.5017350     1.2809580    -0.7610030
units angstrom
no_reorient  #important for SAPT in psi4, default
symmetry c1  #important for SAPT in psi4, default
}

set PROPERTIES_ORIGIN ["COM"]
properties('MP2/aug-cc-pvtz', properties = ['dipole'])
--------------------------------------------------------------------------

    Molecular point group: c1
  Charge       = 0
  Multiplicity = 1
  Basis Set: AUG-CC-PVTZ
    Blend: AUG-CC-PVTZ
  Basis Set: (AUG-CC-PVTZ AUX)
    Blend: AUG-CC-PVTZ-JKFIT

    Orbital Energies [Eh]
    ---------------------

    Doubly Occupied:

       1A    -20.613397     2A    -20.610149     3A    -15.847727
       4A    -11.299916     5A    -11.262011     6A    -11.227080
       7A    -11.226329     8A     -1.584651     9A     -1.396901
      10A     -1.138659    11A     -1.037728    12A     -0.946386
      13A     -0.880900    14A     -0.805663    15A     -0.738229
      16A     -0.732403    17A     -0.705356    18A     -0.637713
      19A     -0.627363    20A     -0.605971    21A     -0.557213
      22A     -0.543482    23A     -0.513676    24A     -0.505559
      25A     -0.497614    26A     -0.485790    27A     -0.469665
      28A     -0.454455

  @DF-RHF Final Energy:  -360.89458987494385

   => Energetics <=

    Nuclear Repulsion Energy =            329.2062026368369629
    One-Electron Energy =               -1144.2976122501427199
    Two-Electron Energy =                 454.1968197383619668
    Total Energy =                       -360.8945898749438470
  Basis Set: (AUG-CC-PVTZ AUX)
    Blend: AUG-CC-PVTZ-RI
    Molecular point group: c1

    Geometry (in Angstrom), charge = 0, multiplicity = 1:

       Center              X                  Y                   Z               Mass
    ------------   -----------------  -----------------  -----------------  -----------------
         O            1.453398727006     1.149427360241    -0.277725229988    15.994914619570
         O            1.538270927006    -1.113449539759    -0.359976429988    15.994914619570
         N            1.142499927006    -0.008818539759     0.054018570012    14.003074004430
         C           -1.316993072994    -0.007712539759     0.423057570012    12.000000000000
         C            0.065935927006    -0.008552539759     1.082546570012    12.000000000000
         C           -1.560387072994    -1.272062539759    -0.399417429988    12.000000000000
         C           -1.558233072994     1.256595460241    -0.400118429988    12.000000000000
         H           -2.019724072994    -0.006876539759     1.268019570012     1.007825032230
         H            0.224311927006     0.889719460241     1.682341570012     1.007825032230
         H            0.223461927006    -0.907144539759     1.682118570012     1.007825032230
         H           -0.894415072994    -1.313857539759    -1.265135429988     1.007825032230
         H           -2.591838072994    -1.286592539759    -0.763161429988     1.007825032230
         H           -1.394464072994    -2.175362539759     0.195052570012     1.007825032230
         H           -1.390924072994     2.159972460241     0.193846570012     1.007825032230
         H           -0.892081072994     1.296854460241    -1.265795429988     1.007825032230
         H           -2.589591072994     1.272650460241    -0.764085429988     1.007825032230

  Basis Set: AUG-CC-PVTZ
    Blend: AUG-CC-PVTZ
  Basis Set: (AUG-CC-PVTZ AUX)
    Blend: AUG-CC-PVTZ-JKFIT
	 Reference Energy          =    -360.8945898749438470 [Eh]
	 Singles Energy            =      -0.0000000000000000 [Eh]
	 Same-Spin Energy          =      -0.3693888453694556 [Eh]
	 Opposite-Spin Energy      =      -1.1820467420409462 [Eh]
	 Correlation Energy        =      -1.5514355874104018 [Eh]
	 Total Energy              =    -362.4460254623542710 [Eh]

	 ================> DF-SCS-MP2 Energies <==================
	-----------------------------------------------------------
	 SCS Same-Spin Scale       =       0.3333333333333333 [-]
	 SCS Opposite-Spin Scale   =       1.2000000000000000 [-]
	 SCS Same-Spin Energy      =      -0.1231296151231519 [Eh]
	 SCS Opposite-Spin Energy  =      -1.4184560904491355 [Eh]
	 SCS Correlation Energy    =      -1.5415857055722872 [Eh]
	 SCS Total Energy          =    -362.4361755805161351 [Eh]
	-----------------------------------------------------------

  Dipole Moment: [D]
     X:    -2.7717      Y:    -0.0524      Z:     2.0103     Total:     3.4244

*** Psi4 exiting successfully. Buy a developer a beer!
