                               Psi4 1.3.2 release

  ==> Input File <==

--------------------------------------------------------------------------
#psi4
#
memory 32 gb

molecule  {
0 1
  O        1.7100345     1.0380624    -0.4323060
  O        1.6261270    -1.1051420    -0.3568940
  N        1.2303560    -0.0005110     0.0571010
  C       -1.2291370     0.0005950     0.4261400
  C        0.1537920    -0.0002450     1.0856290
  C       -1.4725310    -1.2637550    -0.3963350
  C       -1.4703770     1.2649030    -0.3970360
  H       -1.9318680     0.0014310     1.2711020
  H        0.3121680     0.8980270     1.6854240
  H        0.3113180    -0.8988370     1.6852010
  H       -0.8065590    -1.3055500    -1.2620530
  H       -2.5039820    -1.2782850    -0.7600790
  H       -1.3066080    -2.1670550     0.1981350
  H       -1.3030680     2.1682800     0.1969290
  H       -0.8042250     1.3051620    -1.2627130
  H       -2.5017350     1.2809580    -0.7610030
units angstrom
no_reorient  #important for SAPT in psi4, default
symmetry c1  #important for SAPT in psi4, default
}

set PROPERTIES_ORIGIN ["COM"]
properties('MP2/aug-cc-pvtz', properties = ['dipole'])
--------------------------------------------------------------------------

    Molecular point group: c1
  Charge       = 0
  Multiplicity = 1
  Basis Set: AUG-CC-PVTZ
    Blend: AUG-CC-PVTZ
  Basis Set: (AUG-CC-PVTZ AUX)
    Blend: AUG-CC-PVTZ-JKFIT

    Orbital Energies [Eh]
    ---------------------

    Doubly Occupied:

       1A    -20.600897     2A    -20.598121     3A    -15.842951
       4A    -11.311810     5A    -11.267061     6A    -11.230157
       7A    -11.229235     8A     -1.584456     9A     -1.371734
      10A     -1.148719    11A     -1.045545    12A     -0.949510
      13A     -0.882004    14A     -0.802543    15A     -0.738457
      16A     -0.724146    17A     -0.705133    18A     -0.638585
      19A     -0.630104    20A     -0.609853    21A     -0.557928
      22A     -0.545994    23A     -0.519903    24A     -0.502600
      25A     -0.498698    26A     -0.479402    27A     -0.477661
      28A     -0.441222

  @DF-RHF Final Energy:  -360.89690058034097

   => Energetics <=

    Nuclear Repulsion Energy =            327.9519765283884567
    One-Electron Energy =               -1141.8288929611455842
    Two-Electron Energy =                 452.9800158524161020
    Total Energy =                       -360.8969005803409686
  Basis Set: (AUG-CC-PVTZ AUX)
    Blend: AUG-CC-PVTZ-RI
    Molecular point group: c1

    Geometry (in Angstrom), charge = 0, multiplicity = 1:

       Center              X                  Y                   Z               Mass
    ------------   -----------------  -----------------  -----------------  -----------------
         O            1.595984659257     1.048327435444    -0.410919887602    15.994914619570
         O            1.512077159257    -1.094876964556    -0.335507887602    15.994914619570
         N            1.116306159257     0.009754035444     0.078487112398    14.003074004430
         C           -1.343186840743     0.010860035444     0.447526112398    12.000000000000
         C            0.039742159257     0.010020035444     1.107015112398    12.000000000000
         C           -1.586580840743    -1.253489964556    -0.374948887602    12.000000000000
         C           -1.584426840743     1.275168035444    -0.375649887602    12.000000000000
         H           -2.045917840743     0.011696035444     1.292488112398     1.007825032230
         H            0.198118159257     0.908292035444     1.706810112398     1.007825032230
         H            0.197268159257    -0.888571964556     1.706587112398     1.007825032230
         H           -0.920608840743    -1.295284964556    -1.240666887602     1.007825032230
         H           -2.618031840743    -1.268019964556    -0.738692887602     1.007825032230
         H           -1.420657840743    -2.156789964556     0.219521112398     1.007825032230
         H           -1.417117840743     2.178545035444     0.218315112398     1.007825032230
         H           -0.918274840743     1.315427035444    -1.241326887602     1.007825032230
         H           -2.615784840743     1.291223035444    -0.739616887602     1.007825032230

  Basis Set: AUG-CC-PVTZ
    Blend: AUG-CC-PVTZ
  Basis Set: (AUG-CC-PVTZ AUX)
    Blend: AUG-CC-PVTZ-JKFIT
	 Reference Energy          =    -360.8969005803409686 [Eh]
	 Singles Energy            =      -0.0000000000000000 [Eh]
	 Same-Spin Energy          =      -0.3685887212260950 [Eh]
	 Opposite-Spin Energy      =      -1.1807865474380652 [Eh]
	 Correlation Energy        =      -1.5493752686641602 [Eh]
	 Total Energy              =    -362.4462758490051328 [Eh]

	 ================> DF-SCS-MP2 Energies <==================
	-----------------------------------------------------------
	 SCS Same-Spin Scale       =       0.3333333333333333 [-]
	 SCS Opposite-Spin Scale   =       1.2000000000000000 [-]
	 SCS Same-Spin Energy      =      -0.1228629070753650 [Eh]
	 SCS Opposite-Spin Energy  =      -1.4169438569256783 [Eh]
	 SCS Correlation Energy    =      -1.5398067640010433 [Eh]
	 SCS Total Energy          =    -362.4367073443420395 [Eh]
	-----------------------------------------------------------

  Dipole Moment: [D]
     X:    -3.2004      Y:     0.0751      Z:     2.3183     Total:     3.9525

*** Psi4 exiting successfully. Buy a developer a beer!
