                               Psi4 1.3.2 release

  ==> Input File <==

--------------------------------------------------------------------------
#psi4
#
memory 32 gb

molecule  {
0 1
  O        1.6278220     1.1039490    -0.3557360
  O        1.6261270    -1.1051420    -0.3568940
  N        1.1559871    -0.0004565    -0.0154909
  C       -1.2291370     0.0005950     0.4261400
  C        0.1537920    -0.0002450     1.0856290
  C       -1.4725310    -1.2637550    -0.3963350
  C       -1.4703770     1.2649030    -0.3970360
  H       -1.9318680     0.0014310     1.2711020
  H        0.3121680     0.8980270     1.6854240
  H        0.3113180    -0.8988370     1.6852010
  H       -0.8065590    -1.3055500    -1.2620530
  H       -2.5039820    -1.2782850    -0.7600790
  H       -1.3066080    -2.1670550     0.1981350
  H       -1.3030680     2.1682800     0.1969290
  H       -0.8042250     1.3051620    -1.2627130
  H       -2.5017350     1.2809580    -0.7610030
units angstrom
no_reorient  #important for SAPT in psi4, default
symmetry c1  #important for SAPT in psi4, default
}

set PROPERTIES_ORIGIN ["COM"]
properties('MP2/aug-cc-pvtz', properties = ['dipole'])
--------------------------------------------------------------------------

    Molecular point group: c1
  Charge       = 0
  Multiplicity = 1
  Basis Set: AUG-CC-PVTZ
    Blend: AUG-CC-PVTZ
  Basis Set: (AUG-CC-PVTZ AUX)
    Blend: AUG-CC-PVTZ-JKFIT

    Orbital Energies [Eh]
    ---------------------

    Doubly Occupied:

       1A    -20.606254     2A    -20.606194     3A    -15.845364
       4A    -11.306476     5A    -11.262706     6A    -11.228684
       7A    -11.228667     8A     -1.581249     9A     -1.381491
      10A     -1.146174    11A     -1.038957    12A     -0.948574
      13A     -0.882480    14A     -0.803070    15A     -0.741385
      16A     -0.727057    17A     -0.704402    18A     -0.638300
      19A     -0.626471    20A     -0.608040    21A     -0.557863
      22A     -0.545466    23A     -0.520229    24A     -0.501053
      25A     -0.500269    26A     -0.484340    27A     -0.471231
      28A     -0.446804

  @DF-RHF Final Energy:  -360.89265734217975

   => Energetics <=

    Nuclear Repulsion Energy =            329.0773051029808585
    One-Electron Energy =               -1144.0614258245566361
    Two-Electron Energy =                 454.0914633793960320
    Total Energy =                       -360.8926573421797457
  Basis Set: (AUG-CC-PVTZ AUX)
    Blend: AUG-CC-PVTZ-RI
    Molecular point group: c1

    Geometry (in Angstrom), charge = 0, multiplicity = 1:

       Center              X                  Y                   Z               Mass
    ------------   -----------------  -----------------  -----------------  -----------------
         O            1.536635530371     1.103981358854    -0.336370207221    15.994914619570
         O            1.534940530371    -1.105109641146    -0.337528207221    15.994914619570
         N            1.064800630371    -0.000424141146     0.003874892779    14.003074004430
         C           -1.320323469629     0.000627358854     0.445505792779    12.000000000000
         C            0.062605530371    -0.000212641146     1.104994792779    12.000000000000
         C           -1.563717469629    -1.263722641146    -0.376969207221    12.000000000000
         C           -1.561563469629     1.264935358854    -0.377670207221    12.000000000000
         H           -2.023054469629     0.001463358854     1.290467792779     1.007825032230
         H            0.220981530371     0.898059358854     1.704789792779     1.007825032230
         H            0.220131530371    -0.898804641146     1.704566792779     1.007825032230
         H           -0.897745469629    -1.305517641146    -1.242687207221     1.007825032230
         H           -2.595168469629    -1.278252641146    -0.740713207221     1.007825032230
         H           -1.397794469629    -2.167022641146     0.217500792779     1.007825032230
         H           -1.394254469629     2.168312358854     0.216294792779     1.007825032230
         H           -0.895411469629     1.305194358854    -1.243347207221     1.007825032230
         H           -2.592921469629     1.280990358854    -0.741637207221     1.007825032230

  Basis Set: AUG-CC-PVTZ
    Blend: AUG-CC-PVTZ
  Basis Set: (AUG-CC-PVTZ AUX)
    Blend: AUG-CC-PVTZ-JKFIT
	 Reference Energy          =    -360.8926573421797457 [Eh]
	 Singles Energy            =      -0.0000000000000000 [Eh]
	 Same-Spin Energy          =      -0.3695178799921017 [Eh]
	 Opposite-Spin Energy      =      -1.1827404458319135 [Eh]
	 Correlation Energy        =      -1.5522583258240152 [Eh]
	 Total Energy              =    -362.4449156680037731 [Eh]

	 ================> DF-SCS-MP2 Energies <==================
	-----------------------------------------------------------
	 SCS Same-Spin Scale       =       0.3333333333333333 [-]
	 SCS Opposite-Spin Scale   =       1.2000000000000000 [-]
	 SCS Same-Spin Energy      =      -0.1231726266640339 [Eh]
	 SCS Opposite-Spin Energy  =      -1.4192885349982962 [Eh]
	 SCS Correlation Energy    =      -1.5424611616623300 [Eh]
	 SCS Total Energy          =    -362.4351185038420908 [Eh]
	-----------------------------------------------------------

  Dipole Moment: [D]
     X:    -2.9840      Y:     0.0008      Z:     2.1677     Total:     3.6882

*** Psi4 exiting successfully. Buy a developer a beer!
