                               Psi4 1.3.2 release

  ==> Input File <==

--------------------------------------------------------------------------
#psi4
#
memory 32 gb

molecule  {
0 1
  O        1.6278220     1.1039490    -0.3557360
  O        1.6261270    -1.1051420    -0.3568940
  N        1.2209016    -0.0227475     0.0475391
  C       -1.2291370     0.0005950     0.4261400
  C        0.1537920    -0.0002450     1.0856290
  C       -1.4725310    -1.2637550    -0.3963350
  C       -1.4703770     1.2649030    -0.3970360
  H       -1.9318680     0.0014310     1.2711020
  H        0.3121680     0.8980270     1.6854240
  H        0.3113180    -0.8988370     1.6852010
  H       -0.8065590    -1.3055500    -1.2620530
  H       -2.5039820    -1.2782850    -0.7600790
  H       -1.3066080    -2.1670550     0.1981350
  H       -1.3030680     2.1682800     0.1969290
  H       -0.8042250     1.3051620    -1.2627130
  H       -2.5017350     1.2809580    -0.7610030
units angstrom
no_reorient  #important for SAPT in psi4, default
symmetry c1  #important for SAPT in psi4, default
}

set PROPERTIES_ORIGIN ["COM"]
properties('MP2/aug-cc-pvtz', properties = ['dipole'])
--------------------------------------------------------------------------

    Molecular point group: c1
  Charge       = 0
  Multiplicity = 1
  Basis Set: AUG-CC-PVTZ
    Blend: AUG-CC-PVTZ
  Basis Set: (AUG-CC-PVTZ AUX)
    Blend: AUG-CC-PVTZ-JKFIT

    Orbital Energies [Eh]
    ---------------------

    Doubly Occupied:

       1A    -20.614382     2A    -20.597506     3A    -15.845561
       4A    -11.305943     5A    -11.264368     6A    -11.229038
       7A    -11.227522     8A     -1.586734     9A     -1.383130
      10A     -1.144141    11A     -1.041469    12A     -0.948044
      13A     -0.881405    14A     -0.804450    15A     -0.739457
      16A     -0.728687    17A     -0.706055    18A     -0.638032
      19A     -0.628819    20A     -0.608130    21A     -0.557459
      22A     -0.544686    23A     -0.517367    24A     -0.501098
      25A     -0.499880    26A     -0.484561    27A     -0.473474
      28A     -0.447893

  @DF-RHF Final Energy:  -360.89873785852274

   => Energetics <=

    Nuclear Repulsion Energy =            328.5906623759420313
    One-Electron Energy =               -1143.0802189174305568
    Two-Electron Energy =                 453.5908186829658462
    Total Energy =                       -360.8987378585227361
  Basis Set: (AUG-CC-PVTZ AUX)
    Blend: AUG-CC-PVTZ-RI
    Molecular point group: c1

    Geometry (in Angstrom), charge = 0, multiplicity = 1:

       Center              X                  Y                   Z               Mass
    ------------   -----------------  -----------------  -----------------  -----------------
         O            1.527815685714     1.107010006648    -0.344934007430    15.994914619570
         O            1.526120685714    -1.102080993352    -0.346092007430    15.994914619570
         N            1.120895285714    -0.019686493352     0.058341092570    14.003074004430
         C           -1.329143314286     0.003656006648     0.436941992570    12.000000000000
         C            0.053785685714     0.002816006648     1.096430992570    12.000000000000
         C           -1.572537314286    -1.260693993352    -0.385533007430    12.000000000000
         C           -1.570383314286     1.267964006648    -0.386234007430    12.000000000000
         H           -2.031874314286     0.004492006648     1.281903992570     1.007825032230
         H            0.212161685714     0.901088006648     1.696225992570     1.007825032230
         H            0.211311685714    -0.895775993352     1.696002992570     1.007825032230
         H           -0.906565314286    -1.302488993352    -1.251251007430     1.007825032230
         H           -2.603988314286    -1.275223993352    -0.749277007430     1.007825032230
         H           -1.406614314286    -2.163993993352     0.208936992570     1.007825032230
         H           -1.403074314286     2.171341006648     0.207730992570     1.007825032230
         H           -0.904231314286     1.308223006648    -1.251911007430     1.007825032230
         H           -2.601741314286     1.284019006648    -0.750201007430     1.007825032230

  Basis Set: AUG-CC-PVTZ
    Blend: AUG-CC-PVTZ
  Basis Set: (AUG-CC-PVTZ AUX)
    Blend: AUG-CC-PVTZ-JKFIT
	 Reference Energy          =    -360.8987378585227361 [Eh]
	 Singles Energy            =      -0.0000000000000000 [Eh]
	 Same-Spin Energy          =      -0.3688325168057537 [Eh]
	 Opposite-Spin Energy      =      -1.1810573273521641 [Eh]
	 Correlation Energy        =      -1.5498898441579179 [Eh]
	 Total Energy              =    -362.4486277026806533 [Eh]

	 ================> DF-SCS-MP2 Energies <==================
	-----------------------------------------------------------
	 SCS Same-Spin Scale       =       0.3333333333333333 [-]
	 SCS Opposite-Spin Scale   =       1.2000000000000000 [-]
	 SCS Same-Spin Energy      =      -0.1229441722685846 [Eh]
	 SCS Opposite-Spin Energy  =      -1.4172687928225969 [Eh]
	 SCS Correlation Energy    =      -1.5402129650911816 [Eh]
	 SCS Total Energy          =    -362.4389508236139363 [Eh]
	-----------------------------------------------------------

  Dipole Moment: [D]
     X:    -2.9921      Y:    -0.1135      Z:     2.1699     Total:     3.6978

*** Psi4 exiting successfully. Buy a developer a beer!
