                               Psi4 1.3.2 release

  ==> Input File <==

--------------------------------------------------------------------------
#psi4
#
memory 32 gb

molecule  {
0 1
  O        1.6278220     1.1039490    -0.3557360
  O        1.6261270    -1.1051420    -0.3568940
  N        1.2655953    -0.0005378     0.0952991
  C       -1.2291370     0.0005950     0.4261400
  C        0.1537920    -0.0002450     1.0856290
  C       -1.4725310    -1.2637550    -0.3963350
  C       -1.4703770     1.2649030    -0.3970360
  H       -1.9318680     0.0014310     1.2711020
  H        0.3121680     0.8980270     1.6854240
  H        0.3113180    -0.8988370     1.6852010
  H       -0.8065590    -1.3055500    -1.2620530
  H       -2.5039820    -1.2782850    -0.7600790
  H       -1.3066080    -2.1670550     0.1981350
  H       -1.3030680     2.1682800     0.1969290
  H       -0.8042250     1.3051620    -1.2627130
  H       -2.5017350     1.2809580    -0.7610030
units angstrom
no_reorient  #important for SAPT in psi4, default
symmetry c1  #important for SAPT in psi4, default
}

set PROPERTIES_ORIGIN ["COM"]
properties('MP2/aug-cc-pvtz', properties = ['dipole'])
--------------------------------------------------------------------------

    Molecular point group: c1
  Charge       = 0
  Multiplicity = 1
  Basis Set: AUG-CC-PVTZ
    Blend: AUG-CC-PVTZ
  Basis Set: (AUG-CC-PVTZ AUX)
    Blend: AUG-CC-PVTZ-JKFIT

    Orbital Energies [Eh]
    ---------------------

    Doubly Occupied:

       1A    -20.606367     2A    -20.606314     3A    -15.845270
       4A    -11.306298     5A    -11.265642     6A    -11.228078
       7A    -11.228062     8A     -1.582195     9A     -1.382675
      10A     -1.142878    11A     -1.043286    12A     -0.947754
      13A     -0.881263    14A     -0.804274    15A     -0.735491
      16A     -0.728177    17A     -0.704632    18A     -0.637450
      19A     -0.629437    20A     -0.607813    21A     -0.557213
      22A     -0.544127    23A     -0.515418    24A     -0.500759
      25A     -0.500264    26A     -0.484324    27A     -0.476384
      28A     -0.447623

  @DF-RHF Final Energy:  -360.89713596699613

   => Energetics <=

    Nuclear Repulsion Energy =            328.0407811752185125
    One-Electron Energy =               -1141.9968936691307135
    Two-Electron Energy =                 453.0589765269160694
    Total Energy =                       -360.8971359669961316
  Basis Set: (AUG-CC-PVTZ AUX)
    Blend: AUG-CC-PVTZ-RI
    Molecular point group: c1

    Geometry (in Angstrom), charge = 0, multiplicity = 1:

       Center              X                  Y                   Z               Mass
    ------------   -----------------  -----------------  -----------------  -----------------
         O            1.521743213599     1.103992404974    -0.351423093548    15.994914619570
         O            1.520048213599    -1.105098595026    -0.352581093548    15.994914619570
         N            1.159516513599    -0.000494395026     0.099612006452    14.003074004430
         C           -1.335215786401     0.000638404974     0.430452906452    12.000000000000
         C            0.047713213599    -0.000201595026     1.089941906452    12.000000000000
         C           -1.578609786401    -1.263711595026    -0.392022093548    12.000000000000
         C           -1.576455786401     1.264946404974    -0.392723093548    12.000000000000
         H           -2.037946786401     0.001474404974     1.275414906452     1.007825032230
         H            0.206089213599     0.898070404974     1.689736906452     1.007825032230
         H            0.205239213599    -0.898793595026     1.689513906452     1.007825032230
         H           -0.912637786401    -1.305506595026    -1.257740093548     1.007825032230
         H           -2.610060786401    -1.278241595026    -0.755766093548     1.007825032230
         H           -1.412686786401    -2.167011595026     0.202447906452     1.007825032230
         H           -1.409146786401     2.168323404974     0.201241906452     1.007825032230
         H           -0.910303786401     1.305205404974    -1.258400093548     1.007825032230
         H           -2.607813786401     1.281001404974    -0.756690093548     1.007825032230

  Basis Set: AUG-CC-PVTZ
    Blend: AUG-CC-PVTZ
  Basis Set: (AUG-CC-PVTZ AUX)
    Blend: AUG-CC-PVTZ-JKFIT
	 Reference Energy          =    -360.8971359669961316 [Eh]
	 Singles Energy            =      -0.0000000000000000 [Eh]
	 Same-Spin Energy          =      -0.3690922608412419 [Eh]
	 Opposite-Spin Energy      =      -1.1818562170831415 [Eh]
	 Correlation Energy        =      -1.5509484779243834 [Eh]
	 Total Energy              =    -362.4480844449205392 [Eh]

	 ================> DF-SCS-MP2 Energies <==================
	-----------------------------------------------------------
	 SCS Same-Spin Scale       =       0.3333333333333333 [-]
	 SCS Opposite-Spin Scale   =       1.2000000000000000 [-]
	 SCS Same-Spin Energy      =      -0.1230307536137473 [Eh]
	 SCS Opposite-Spin Energy  =      -1.4182274604997698 [Eh]
	 SCS Correlation Energy    =      -1.5412582141135172 [Eh]
	 SCS Total Energy          =    -362.4383941811096292 [Eh]
	-----------------------------------------------------------

  Dipole Moment: [D]
     X:    -2.9985      Y:     0.0011      Z:     2.1713     Total:     3.7021

*** Psi4 exiting successfully. Buy a developer a beer!
