                               Psi4 1.3.2 release

  ==> Input File <==

--------------------------------------------------------------------------
#psi4
#
memory 32 gb

molecule  {
0 1
  O        1.6278220     1.1039490    -0.3557360
  O        1.6261270    -1.1051420    -0.3568940
  N        1.1664694    -0.1780362     0.1234583
  C       -1.2291370     0.0005950     0.4261400
  C        0.1537920    -0.0002450     1.0856290
  C       -1.4725310    -1.2637550    -0.3963350
  C       -1.4703770     1.2649030    -0.3970360
  H       -1.9318680     0.0014310     1.2711020
  H        0.3121680     0.8980270     1.6854240
  H        0.3113180    -0.8988370     1.6852010
  H       -0.8065590    -1.3055500    -1.2620530
  H       -2.5039820    -1.2782850    -0.7600790
  H       -1.3066080    -2.1670550     0.1981350
  H       -1.3030680     2.1682800     0.1969290
  H       -0.8042250     1.3051620    -1.2627130
  H       -2.5017350     1.2809580    -0.7610030
units angstrom
no_reorient  #important for SAPT in psi4, default
symmetry c1  #important for SAPT in psi4, default
}

set PROPERTIES_ORIGIN ["COM"]
properties('MP2/aug-cc-pvtz', properties = ['dipole'])
--------------------------------------------------------------------------

    Molecular point group: c1
  Charge       = 0
  Multiplicity = 1
  Basis Set: AUG-CC-PVTZ
    Blend: AUG-CC-PVTZ
  Basis Set: (AUG-CC-PVTZ AUX)
    Blend: AUG-CC-PVTZ-JKFIT

    Orbital Energies [Eh]
    ---------------------

    Doubly Occupied:

       1A    -20.666242     2A    -20.543635     3A    -15.836386
       4A    -11.307740     5A    -11.269435     6A    -11.235638
       7A    -11.224673     8A     -1.643289     9A     -1.294724
      10A     -1.163244    11A     -1.062013    12A     -0.950398
      13A     -0.888722    14A     -0.819811    15A     -0.757258
      16A     -0.741103    17A     -0.717085    18A     -0.637907
      19A     -0.633159    20A     -0.610542    21A     -0.557482
      22A     -0.548834    23A     -0.512070    24A     -0.503868
      25A     -0.497502    26A     -0.469764    27A     -0.443744
      28A     -0.424858

  @DF-RHF Final Energy:  -360.84543311588794

   => Energetics <=

    Nuclear Repulsion Energy =            328.8893578504382731
    One-Electron Energy =               -1143.5473297911898953
    Two-Electron Energy =                 453.8125388248636796
    Total Energy =                       -360.8454331158879427
  Basis Set: (AUG-CC-PVTZ AUX)
    Blend: AUG-CC-PVTZ-RI
    Molecular point group: c1

    Geometry (in Angstrom), charge = 0, multiplicity = 1:

       Center              X                  Y                   Z               Mass
    ------------   -----------------  -----------------  -----------------  -----------------
         O            1.535211314554     1.128108870707    -0.355249045680    15.994914619570
         O            1.533516314554    -1.080982129293    -0.356407045680    15.994914619570
         N            1.073858714554    -0.153876329293     0.123945254320    14.003074004430
         C           -1.321747685446     0.024754870707     0.426626954320    12.000000000000
         C            0.061181314554     0.023914870707     1.086115954320    12.000000000000
         C           -1.565141685446    -1.239595129293    -0.395848045680    12.000000000000
         C           -1.562987685446     1.289062870707    -0.396549045680    12.000000000000
         H           -2.024478685446     0.025590870707     1.271588954320     1.007825032230
         H            0.219557314554     0.922186870707     1.685910954320     1.007825032230
         H            0.218707314554    -0.874677129293     1.685687954320     1.007825032230
         H           -0.899169685446    -1.281390129293    -1.261566045680     1.007825032230
         H           -2.596592685446    -1.254125129293    -0.759592045680     1.007825032230
         H           -1.399218685446    -2.142895129293     0.198621954320     1.007825032230
         H           -1.395678685446     2.192439870707     0.197415954320     1.007825032230
         H           -0.896835685446     1.329321870707    -1.262226045680     1.007825032230
         H           -2.594345685446     1.305117870707    -0.760516045680     1.007825032230

  Basis Set: AUG-CC-PVTZ
    Blend: AUG-CC-PVTZ
  Basis Set: (AUG-CC-PVTZ AUX)
    Blend: AUG-CC-PVTZ-JKFIT
	 Reference Energy          =    -360.8454331158879427 [Eh]
	 Singles Energy            =      -0.0000000000000000 [Eh]
	 Same-Spin Energy          =      -0.3673406530187795 [Eh]
	 Opposite-Spin Energy      =      -1.1790154403146660 [Eh]
	 Correlation Energy        =      -1.5463560933334455 [Eh]
	 Total Energy              =    -362.3917892092213719 [Eh]

	 ================> DF-SCS-MP2 Energies <==================
	-----------------------------------------------------------
	 SCS Same-Spin Scale       =       0.3333333333333333 [-]
	 SCS Opposite-Spin Scale   =       1.2000000000000000 [-]
	 SCS Same-Spin Energy      =      -0.1224468843395932 [Eh]
	 SCS Opposite-Spin Energy  =      -1.4148185283775991 [Eh]
	 SCS Correlation Energy    =      -1.5372654127171923 [Eh]
	 SCS Total Energy          =    -362.3826985286051467 [Eh]
	-----------------------------------------------------------

  Dipole Moment: [D]
     X:    -3.4617      Y:    -1.2482      Z:     2.4472     Total:     4.4193

*** Psi4 exiting successfully. Buy a developer a beer!
