                               Psi4 1.3.2 release

  ==> Input File <==

--------------------------------------------------------------------------
#psi4
#
memory 32 gb

molecule  {
0 1
  O        1.6009085     1.1232761    -0.3276571
  O        1.6261270    -1.1051420    -0.3568940
  N        1.2303560    -0.0005110     0.0571010
  C       -1.2291370     0.0005950     0.4261400
  C        0.1537920    -0.0002450     1.0856290
  C       -1.4725310    -1.2637550    -0.3963350
  C       -1.4703770     1.2649030    -0.3970360
  H       -1.9318680     0.0014310     1.2711020
  H        0.3121680     0.8980270     1.6854240
  H        0.3113180    -0.8988370     1.6852010
  H       -0.8065590    -1.3055500    -1.2620530
  H       -2.5039820    -1.2782850    -0.7600790
  H       -1.3066080    -2.1670550     0.1981350
  H       -1.3030680     2.1682800     0.1969290
  H       -0.8042250     1.3051620    -1.2627130
  H       -2.5017350     1.2809580    -0.7610030
units angstrom
no_reorient  #important for SAPT in psi4, default
symmetry c1  #important for SAPT in psi4, default
}

set PROPERTIES_ORIGIN ["COM"]
properties('MP2/aug-cc-pvtz', properties = ['dipole'])
--------------------------------------------------------------------------

    Molecular point group: c1
  Charge       = 0
  Multiplicity = 1
  Basis Set: AUG-CC-PVTZ
    Blend: AUG-CC-PVTZ
  Basis Set: (AUG-CC-PVTZ AUX)
    Blend: AUG-CC-PVTZ-JKFIT

    Orbital Energies [Eh]
    ---------------------

    Doubly Occupied:

       1A    -20.608522     2A    -20.607503     3A    -15.846446
       4A    -11.303954     5A    -11.263765     6A    -11.227861
       7A    -11.227617     8A     -1.584274     9A     -1.389021
      10A     -1.142179    11A     -1.040484    12A     -0.947457
      13A     -0.881073    14A     -0.804668    15A     -0.738270
      16A     -0.729948    17A     -0.705451    18A     -0.637844
      19A     -0.628378    20A     -0.607348    21A     -0.557340
      22A     -0.544159    23A     -0.515869    24A     -0.502452
      25A     -0.499333    26A     -0.485396    27A     -0.473148
      28A     -0.450427

  @DF-RHF Final Energy:  -360.89862188352572

   => Energetics <=

    Nuclear Repulsion Energy =            328.6916489783340012
    One-Electron Energy =               -1143.2801669120931365
    Two-Electron Energy =                 453.6898960502334148
    Total Energy =                       -360.8986218835257205
  Basis Set: (AUG-CC-PVTZ AUX)
    Blend: AUG-CC-PVTZ-RI
    Molecular point group: c1

    Geometry (in Angstrom), charge = 0, multiplicity = 1:

       Center              X                  Y                   Z               Mass
    ------------   -----------------  -----------------  -----------------  -----------------
         O            1.503794470254     1.120316394158    -0.322511975006    15.994914619570
         O            1.529012970254    -1.108101705842    -0.351748875006    15.994914619570
         N            1.133241970254    -0.003470705842     0.062246124994    14.003074004430
         C           -1.326251029746    -0.002364705842     0.431285124994    12.000000000000
         C            0.056677970254    -0.003204705842     1.090774124994    12.000000000000
         C           -1.569645029746    -1.266714705842    -0.391189875006    12.000000000000
         C           -1.567491029746     1.261943294158    -0.391890875006    12.000000000000
         H           -2.028982029746    -0.001528705842     1.276247124994     1.007825032230
         H            0.215053970254     0.895067294158     1.690569124994     1.007825032230
         H            0.214203970254    -0.901796705842     1.690346124994     1.007825032230
         H           -0.903673029746    -1.308509705842    -1.256907875006     1.007825032230
         H           -2.601096029746    -1.281244705842    -0.754933875006     1.007825032230
         H           -1.403722029746    -2.170014705842     0.203280124994     1.007825032230
         H           -1.400182029746     2.165320294158     0.202074124994     1.007825032230
         H           -0.901339029746     1.302202294158    -1.257567875006     1.007825032230
         H           -2.598849029746     1.277998294158    -0.755857875006     1.007825032230

  Basis Set: AUG-CC-PVTZ
    Blend: AUG-CC-PVTZ
  Basis Set: (AUG-CC-PVTZ AUX)
    Blend: AUG-CC-PVTZ-JKFIT
	 Reference Energy          =    -360.8986218835257205 [Eh]
	 Singles Energy            =      -0.0000000000000000 [Eh]
	 Same-Spin Energy          =      -0.3690419103311251 [Eh]
	 Opposite-Spin Energy      =      -1.1814561739932028 [Eh]
	 Correlation Energy        =      -1.5504980843243279 [Eh]
	 Total Energy              =    -362.4491199678500379 [Eh]

	 ================> DF-SCS-MP2 Energies <==================
	-----------------------------------------------------------
	 SCS Same-Spin Scale       =       0.3333333333333333 [-]
	 SCS Opposite-Spin Scale   =       1.2000000000000000 [-]
	 SCS Same-Spin Energy      =      -0.1230139701103750 [Eh]
	 SCS Opposite-Spin Energy  =      -1.4177474087918434 [Eh]
	 SCS Correlation Energy    =      -1.5407613789022183 [Eh]
	 SCS Total Energy          =    -362.4393832624279526 [Eh]
	-----------------------------------------------------------

  Dipole Moment: [D]
     X:    -2.9201      Y:    -0.0194      Z:     2.1157     Total:     3.6060

*** Psi4 exiting successfully. Buy a developer a beer!
