                               Psi4 1.3.2 release

  ==> Input File <==

--------------------------------------------------------------------------
#psi4
#
memory 32 gb

molecule  {
0 1
  O        1.5735436     1.1412341    -0.2991094
  O        1.6261270    -1.1051420    -0.3568940
  N        1.2303560    -0.0005110     0.0571010
  C       -1.2291370     0.0005950     0.4261400
  C        0.1537920    -0.0002450     1.0856290
  C       -1.4725310    -1.2637550    -0.3963350
  C       -1.4703770     1.2649030    -0.3970360
  H       -1.9318680     0.0014310     1.2711020
  H        0.3121680     0.8980270     1.6854240
  H        0.3113180    -0.8988370     1.6852010
  H       -0.8065590    -1.3055500    -1.2620530
  H       -2.5039820    -1.2782850    -0.7600790
  H       -1.3066080    -2.1670550     0.1981350
  H       -1.3030680     2.1682800     0.1969290
  H       -0.8042250     1.3051620    -1.2627130
  H       -2.5017350     1.2809580    -0.7610030
units angstrom
no_reorient  #important for SAPT in psi4, default
symmetry c1  #important for SAPT in psi4, default
}

set PROPERTIES_ORIGIN ["COM"]
properties('MP2/aug-cc-pvtz', properties = ['dipole'])
--------------------------------------------------------------------------

    Molecular point group: c1
  Charge       = 0
  Multiplicity = 1
  Basis Set: AUG-CC-PVTZ
    Blend: AUG-CC-PVTZ
  Basis Set: (AUG-CC-PVTZ AUX)
    Blend: AUG-CC-PVTZ-JKFIT

    Orbital Energies [Eh]
    ---------------------

    Doubly Occupied:

       1A    -20.610980     2A    -20.608889     3A    -15.847133
       4A    -11.301931     5A    -11.262894     6A    -11.227482
       7A    -11.227010     8A     -1.584422     9A     -1.393022
      10A     -1.140450    11A     -1.039120    12A     -0.946942
      13A     -0.880971    14A     -0.805172    15A     -0.738239
      16A     -0.731217    17A     -0.705411    18A     -0.637749
      19A     -0.627914    20A     -0.606678    21A     -0.557268
      22A     -0.543811    23A     -0.514806    24A     -0.504026
      25A     -0.498484    26A     -0.485772    27A     -0.471448
      28A     -0.452503

  @DF-RHF Final Energy:  -360.89703076948342

   => Energetics <=

    Nuclear Repulsion Energy =            328.9200809367407601
    One-Electron Energy =               -1143.7307325212912019
    Two-Electron Energy =                 453.9136208150670200
    Total Energy =                       -360.8970307694834219
  Basis Set: (AUG-CC-PVTZ AUX)
    Blend: AUG-CC-PVTZ-RI
    Molecular point group: c1

    Geometry (in Angstrom), charge = 0, multiplicity = 1:

       Center              X                  Y                   Z               Mass
    ------------   -----------------  -----------------  -----------------  -----------------
         O            1.480676466268     1.135487402113    -0.298394735681    15.994914619570
         O            1.533259866268    -1.110888697887    -0.356179335681    15.994914619570
         N            1.137488866268    -0.006257697887     0.057815664319    14.003074004430
         C           -1.322004133732    -0.005151697887     0.426854664319    12.000000000000
         C            0.060924866268    -0.005991697887     1.086343664319    12.000000000000
         C           -1.565398133732    -1.269501697887    -0.395620335681    12.000000000000
         C           -1.563244133732     1.259156302113    -0.396321335681    12.000000000000
         H           -2.024735133732    -0.004315697887     1.271816664319     1.007825032230
         H            0.219300866268     0.892280302113     1.686138664319     1.007825032230
         H            0.218450866268    -0.904583697887     1.685915664319     1.007825032230
         H           -0.899426133732    -1.311296697887    -1.261338335681     1.007825032230
         H           -2.596849133732    -1.284031697887    -0.759364335681     1.007825032230
         H           -1.399475133732    -2.172801697887     0.198849664319     1.007825032230
         H           -1.395935133732     2.162533302113     0.197643664319     1.007825032230
         H           -0.897092133732     1.299415302113    -1.261998335681     1.007825032230
         H           -2.594602133732     1.275211302113    -0.760288335681     1.007825032230

  Basis Set: AUG-CC-PVTZ
    Blend: AUG-CC-PVTZ
  Basis Set: (AUG-CC-PVTZ AUX)
    Blend: AUG-CC-PVTZ-JKFIT
	 Reference Energy          =    -360.8970307694834219 [Eh]
	 Singles Energy            =      -0.0000000000000000 [Eh]
	 Same-Spin Energy          =      -0.3691981887449036 [Eh]
	 Opposite-Spin Energy      =      -1.1817218763550117 [Eh]
	 Correlation Energy        =      -1.5509200650999153 [Eh]
	 Total Energy              =    -362.4479508345833096 [Eh]

	 ================> DF-SCS-MP2 Energies <==================
	-----------------------------------------------------------
	 SCS Same-Spin Scale       =       0.3333333333333333 [-]
	 SCS Opposite-Spin Scale   =       1.2000000000000000 [-]
	 SCS Same-Spin Energy      =      -0.1230660629149679 [Eh]
	 SCS Opposite-Spin Energy  =      -1.4180662516260141 [Eh]
	 SCS Correlation Energy    =      -1.5411323145409819 [Eh]
	 SCS Total Energy          =    -362.4381630840243815 [Eh]
	-----------------------------------------------------------

  Dipole Moment: [D]
     X:    -2.8484      Y:    -0.0374      Z:     2.0615     Total:     3.5163

*** Psi4 exiting successfully. Buy a developer a beer!
