                               Psi4 1.3.2 release

  ==> Input File <==

--------------------------------------------------------------------------
#psi4
#
memory 32 gb

molecule  {
0 1
  O        1.6410992     1.0937793    -0.3695889
  O        1.6261270    -1.1051420    -0.3568940
  N        1.2303560    -0.0005110     0.0571010
  C       -1.2291370     0.0005950     0.4261400
  C        0.1537920    -0.0002450     1.0856290
  C       -1.4725310    -1.2637550    -0.3963350
  C       -1.4703770     1.2649030    -0.3970360
  H       -1.9318680     0.0014310     1.2711020
  H        0.3121680     0.8980270     1.6854240
  H        0.3113180    -0.8988370     1.6852010
  H       -0.8065590    -1.3055500    -1.2620530
  H       -2.5039820    -1.2782850    -0.7600790
  H       -1.3066080    -2.1670550     0.1981350
  H       -1.3030680     2.1682800     0.1969290
  H       -0.8042250     1.3051620    -1.2627130
  H       -2.5017350     1.2809580    -0.7610030
units angstrom
no_reorient  #important for SAPT in psi4, default
symmetry c1  #important for SAPT in psi4, default
}

set PROPERTIES_ORIGIN ["COM"]
properties('MP2/aug-cc-pvtz', properties = ['dipole'])
--------------------------------------------------------------------------

    Molecular point group: c1
  Charge       = 0
  Multiplicity = 1
  Basis Set: AUG-CC-PVTZ
    Blend: AUG-CC-PVTZ
  Basis Set: (AUG-CC-PVTZ AUX)
    Blend: AUG-CC-PVTZ-JKFIT

    Orbital Energies [Eh]
    ---------------------

    Doubly Occupied:

       1A    -20.605223     2A    -20.604732     3A    -15.845269
       4A    -11.306953     5A    -11.265037     6A    -11.228538
       7A    -11.228401     8A     -1.584194     9A     -1.382787
      10A     -1.144700    11A     -1.042454    12A     -0.948224
      13A     -0.881327    14A     -0.803889    15A     -0.738342
      16A     -0.727896    17A     -0.705421    18A     -0.638085
      19A     -0.629036    20A     -0.608317    21A     -0.557503
      22A     -0.544776    23A     -0.517417    24A     -0.500596
      25A     -0.500393    26A     -0.483879    27A     -0.475499
      28A     -0.447139

  @DF-RHF Final Energy:  -360.89948796143005

   => Energetics <=

    Nuclear Repulsion Energy =            328.3878187715712329
    One-Electron Energy =               -1142.6825610883252011
    Two-Electron Energy =                 453.3952543553239138
    Total Energy =                       -360.8994879614300544
  Basis Set: (AUG-CC-PVTZ AUX)
    Blend: AUG-CC-PVTZ-RI
    Molecular point group: c1

    Geometry (in Angstrom), charge = 0, multiplicity = 1:

       Center              X                  Y                   Z               Mass
    ------------   -----------------  -----------------  -----------------  -----------------
         O            1.537747774042     1.095397350419    -0.357936168757    15.994914619570
         O            1.522775574042    -1.103523949581    -0.345241268757    15.994914619570
         N            1.127004574042     0.001107050419     0.068753731243    14.003074004430
         C           -1.332488425958     0.002213050419     0.437792731243    12.000000000000
         C            0.050440574042     0.001373050419     1.097281731243    12.000000000000
         C           -1.575882425958    -1.262136949581    -0.384682268757    12.000000000000
         C           -1.573728425958     1.266521050419    -0.385383268757    12.000000000000
         H           -2.035219425958     0.003049050419     1.282754731243     1.007825032230
         H            0.208816574042     0.899645050419     1.697076731243     1.007825032230
         H            0.207966574042    -0.897218949581     1.696853731243     1.007825032230
         H           -0.909910425958    -1.303931949581    -1.250400268757     1.007825032230
         H           -2.607333425958    -1.276666949581    -0.748426268757     1.007825032230
         H           -1.409959425958    -2.165436949581     0.209787731243     1.007825032230
         H           -1.406419425958     2.169898050419     0.208581731243     1.007825032230
         H           -0.907576425958     1.306780050419    -1.251060268757     1.007825032230
         H           -2.605086425958     1.282576050419    -0.749350268757     1.007825032230

  Basis Set: AUG-CC-PVTZ
    Blend: AUG-CC-PVTZ
  Basis Set: (AUG-CC-PVTZ AUX)
    Blend: AUG-CC-PVTZ-JKFIT
	 Reference Energy          =    -360.8994879614300544 [Eh]
	 Singles Energy            =      -0.0000000000000000 [Eh]
	 Same-Spin Energy          =      -0.3688423045114368 [Eh]
	 Opposite-Spin Energy      =      -1.1811334754214573 [Eh]
	 Correlation Energy        =      -1.5499757799328941 [Eh]
	 Total Energy              =    -362.4494637413629334 [Eh]

	 ================> DF-SCS-MP2 Energies <==================
	-----------------------------------------------------------
	 SCS Same-Spin Scale       =       0.3333333333333333 [-]
	 SCS Opposite-Spin Scale   =       1.2000000000000000 [-]
	 SCS Same-Spin Energy      =      -0.1229474348371456 [Eh]
	 SCS Opposite-Spin Energy  =      -1.4173601705057488 [Eh]
	 SCS Correlation Energy    =      -1.5403076053428943 [Eh]
	 SCS Total Energy          =    -362.4397955667729434 [Eh]
	-----------------------------------------------------------

  Dipole Moment: [D]
     X:    -3.0257      Y:     0.0121      Z:     2.1952     Total:     3.7382

*** Psi4 exiting successfully. Buy a developer a beer!
