                               Psi4 1.3.2 release

  ==> Input File <==

--------------------------------------------------------------------------
#psi4
#
memory 32 gb

molecule  {
0 1
  O        1.6278220     1.1039490    -0.3557360
  O        1.6261270    -1.1051420    -0.3568940
  N        1.2122417    -0.0004975     0.0384690
  C       -1.2291370     0.0005950     0.4261400
  C        0.1537920    -0.0002450     1.0856290
  C       -1.4725310    -1.2637550    -0.3963350
  C       -1.4703770     1.2649030    -0.3970360
  H       -1.9318680     0.0014310     1.2711020
  H        0.3121680     0.8980270     1.6854240
  H        0.3113180    -0.8988370     1.6852010
  H       -0.8065590    -1.3055500    -1.2620530
  H       -2.5039820    -1.2782850    -0.7600790
  H       -1.3066080    -2.1670550     0.1981350
  H       -1.3030680     2.1682800     0.1969290
  H       -0.8042250     1.3051620    -1.2627130
  H       -2.5017350     1.2809580    -0.7610030
units angstrom
no_reorient  #important for SAPT in psi4, default
symmetry c1  #important for SAPT in psi4, default
}

set PROPERTIES_ORIGIN ["COM"]
properties('MP2/aug-cc-pvtz', properties = ['dipole'])
--------------------------------------------------------------------------

    Molecular point group: c1
  Charge       = 0
  Multiplicity = 1
  Basis Set: AUG-CC-PVTZ
    Blend: AUG-CC-PVTZ
  Basis Set: (AUG-CC-PVTZ AUX)
    Blend: AUG-CC-PVTZ-JKFIT

    Orbital Energies [Eh]
    ---------------------

    Doubly Occupied:

       1A    -20.605979     2A    -20.605928     3A    -15.845743
       4A    -11.305940     5A    -11.264120     6A    -11.228332
       7A    -11.228315     8A     -1.584333     9A     -1.385026
      10A     -1.144405    11A     -1.041082    12A     -0.948100
      13A     -0.881374    14A     -0.803986    15A     -0.739399
      16A     -0.728512    17A     -0.705524    18A     -0.638170
      19A     -0.628371    20A     -0.608058    21A     -0.557553
      22A     -0.544782    23A     -0.517702    24A     -0.501092
      25A     -0.500163    26A     -0.484564    27A     -0.473881
      28A     -0.448232

  @DF-RHF Final Energy:  -360.89912886258418

   => Energetics <=

    Nuclear Repulsion Energy =            328.6687603782977476
    One-Electron Energy =               -1143.2384458248900501
    Two-Electron Energy =                 453.6705565840081249
    Total Energy =                       -360.8991288625841776
  Basis Set: (AUG-CC-PVTZ AUX)
    Blend: AUG-CC-PVTZ-RI
    Molecular point group: c1

    Geometry (in Angstrom), charge = 0, multiplicity = 1:

       Center              X                  Y                   Z               Mass
    ------------   -----------------  -----------------  -----------------  -----------------
         O            1.528992294527     1.103986929468    -0.343701665303    15.994914619570
         O            1.527297294527    -1.105104070532    -0.344859665303    15.994914619570
         N            1.113411994527    -0.000459570532     0.050503334697    14.003074004430
         C           -1.327966705473     0.000632929468     0.438174334697    12.000000000000
         C            0.054962294527    -0.000207070532     1.097663334697    12.000000000000
         C           -1.571360705473    -1.263717070532    -0.384300665303    12.000000000000
         C           -1.569206705473     1.264940929468    -0.385001665303    12.000000000000
         H           -2.030697705473     0.001468929468     1.283136334697     1.007825032230
         H            0.213338294527     0.898064929468     1.697458334697     1.007825032230
         H            0.212488294527    -0.898799070532     1.697235334697     1.007825032230
         H           -0.905388705473    -1.305512070532    -1.250018665303     1.007825032230
         H           -2.602811705473    -1.278247070532    -0.748044665303     1.007825032230
         H           -1.405437705473    -2.167017070532     0.210169334697     1.007825032230
         H           -1.401897705473     2.168317929468     0.208963334697     1.007825032230
         H           -0.903054705473     1.305199929468    -1.250678665303     1.007825032230
         H           -2.600564705473     1.280995929468    -0.748968665303     1.007825032230

  Basis Set: AUG-CC-PVTZ
    Blend: AUG-CC-PVTZ
  Basis Set: (AUG-CC-PVTZ AUX)
    Blend: AUG-CC-PVTZ-JKFIT
	 Reference Energy          =    -360.8991288625841776 [Eh]
	 Singles Energy            =      -0.0000000000000000 [Eh]
	 Same-Spin Energy          =      -0.3689339140175077 [Eh]
	 Opposite-Spin Energy      =      -1.1812627225575416 [Eh]
	 Correlation Energy        =      -1.5501966365750492 [Eh]
	 Total Energy              =    -362.4493254991592153 [Eh]

	 ================> DF-SCS-MP2 Energies <==================
	-----------------------------------------------------------
	 SCS Same-Spin Scale       =       0.3333333333333333 [-]
	 SCS Opposite-Spin Scale   =       1.2000000000000000 [-]
	 SCS Same-Spin Energy      =      -0.1229779713391692 [Eh]
	 SCS Opposite-Spin Energy  =      -1.4175152670690498 [Eh]
	 SCS Correlation Energy    =      -1.5404932384082191 [Eh]
	 SCS Total Energy          =    -362.4396221009923806 [Eh]
	-----------------------------------------------------------

  Dipole Moment: [D]
     X:    -2.9882      Y:     0.0010      Z:     2.1681     Total:     3.6919

*** Psi4 exiting successfully. Buy a developer a beer!
