                               Psi4 1.3.2 release

  ==> Input File <==

--------------------------------------------------------------------------
#psi4
#
memory 32 gb

molecule  {
0 1
  O        1.6278220     1.1039490    -0.3557360
  O        1.6261270    -1.1051420    -0.3568940
  N        1.2482783     0.0439554     0.0771618
  C       -1.2291370     0.0005950     0.4261400
  C        0.1537920    -0.0002450     1.0856290
  C       -1.4725310    -1.2637550    -0.3963350
  C       -1.4703770     1.2649030    -0.3970360
  H       -1.9318680     0.0014310     1.2711020
  H        0.3121680     0.8980270     1.6854240
  H        0.3113180    -0.8988370     1.6852010
  H       -0.8065590    -1.3055500    -1.2620530
  H       -2.5039820    -1.2782850    -0.7600790
  H       -1.3066080    -2.1670550     0.1981350
  H       -1.3030680     2.1682800     0.1969290
  H       -0.8042250     1.3051620    -1.2627130
  H       -2.5017350     1.2809580    -0.7610030
units angstrom
no_reorient  #important for SAPT in psi4, default
symmetry c1  #important for SAPT in psi4, default
}

set PROPERTIES_ORIGIN ["COM"]
properties('MP2/aug-cc-pvtz', properties = ['dipole'])
--------------------------------------------------------------------------

    Molecular point group: c1
  Charge       = 0
  Multiplicity = 1
  Basis Set: AUG-CC-PVTZ
    Blend: AUG-CC-PVTZ
  Basis Set: (AUG-CC-PVTZ AUX)
    Blend: AUG-CC-PVTZ-JKFIT

    Orbital Energies [Eh]
    ---------------------

    Doubly Occupied:

       1A    -20.622817     2A    -20.589259     3A    -15.844869
       4A    -11.306109     5A    -11.265173     6A    -11.229653
       7A    -11.226654     8A     -1.592679     9A     -1.376737
      10A     -1.143337    11A     -1.042713    12A     -0.947880
      13A     -0.881642    14A     -0.805761    15A     -0.739046
      16A     -0.729025    17A     -0.707227    18A     -0.637556
      19A     -0.630049    20A     -0.608260    21A     -0.557161
      22A     -0.544396    23A     -0.516240    24A     -0.501167
      25A     -0.499063    26A     -0.484549    27A     -0.472189
      28A     -0.446562

  @DF-RHF Final Energy:  -360.89614715191846

   => Energetics <=

    Nuclear Repulsion Energy =            328.2993175176203522
    One-Electron Energy =               -1142.4953813157605964
    Two-Electron Energy =                 453.2999166462217886
    Total Energy =                       -360.8961471519184556
  Basis Set: (AUG-CC-PVTZ AUX)
    Blend: AUG-CC-PVTZ-RI
    Molecular point group: c1

    Geometry (in Angstrom), charge = 0, multiplicity = 1:

       Center              X                  Y                   Z               Mass
    ------------   -----------------  -----------------  -----------------  -----------------
         O            1.524096050791     1.097947174521    -0.348958803313    15.994914619570
         O            1.522401050791    -1.111143825479    -0.350116803313    15.994914619570
         N            1.144552350791     0.037953574521     0.083938996687    14.003074004430
         C           -1.332862949209    -0.005406825479     0.432917196687    12.000000000000
         C            0.050066050791    -0.006246825479     1.092406196687    12.000000000000
         C           -1.576256949209    -1.269756825479    -0.389557803313    12.000000000000
         C           -1.574102949209     1.258901174521    -0.390258803313    12.000000000000
         H           -2.035593949209    -0.004570825479     1.277879196687     1.007825032230
         H            0.208442050791     0.892025174521     1.692201196687     1.007825032230
         H            0.207592050791    -0.904838825479     1.691978196687     1.007825032230
         H           -0.910284949209    -1.311551825479    -1.255275803313     1.007825032230
         H           -2.607707949209    -1.284286825479    -0.753301803313     1.007825032230
         H           -1.410333949209    -2.173056825479     0.204912196687     1.007825032230
         H           -1.406793949209     2.162278174521     0.203706196687     1.007825032230
         H           -0.907950949209     1.299160174521    -1.255935803313     1.007825032230
         H           -2.605460949209     1.274956174521    -0.754225803313     1.007825032230

  Basis Set: AUG-CC-PVTZ
    Blend: AUG-CC-PVTZ
  Basis Set: (AUG-CC-PVTZ AUX)
    Blend: AUG-CC-PVTZ-JKFIT
	 Reference Energy          =    -360.8961471519184556 [Eh]
	 Singles Energy            =      -0.0000000000000000 [Eh]
	 Same-Spin Energy          =      -0.3686564256591937 [Eh]
	 Opposite-Spin Energy      =      -1.1808037547068999 [Eh]
	 Correlation Energy        =      -1.5494601803660935 [Eh]
	 Total Energy              =    -362.4456073322845668 [Eh]

	 ================> DF-SCS-MP2 Energies <==================
	-----------------------------------------------------------
	 SCS Same-Spin Scale       =       0.3333333333333333 [-]
	 SCS Opposite-Spin Scale   =       1.2000000000000000 [-]
	 SCS Same-Spin Energy      =      -0.1228854752197312 [Eh]
	 SCS Opposite-Spin Energy  =      -1.4169645056482798 [Eh]
	 SCS Correlation Energy    =      -1.5398499808680111 [Eh]
	 SCS Total Energy          =    -362.4359971327864400 [Eh]
	-----------------------------------------------------------

  Dipole Moment: [D]
     X:    -3.0047      Y:     0.2340      Z:     2.1761     Total:     3.7173

*** Psi4 exiting successfully. Buy a developer a beer!
