                               Psi4 1.3.2 release

  ==> Input File <==

--------------------------------------------------------------------------
#psi4
#
memory 32 gb

molecule  {
0 1
  O        1.6278220     1.1039490    -0.3557360
  O        1.6261270    -1.1051420    -0.3568940
  N        1.2394825     0.0217255     0.0669762
  C       -1.2291370     0.0005950     0.4261400
  C        0.1537920    -0.0002450     1.0856290
  C       -1.4725310    -1.2637550    -0.3963350
  C       -1.4703770     1.2649030    -0.3970360
  H       -1.9318680     0.0014310     1.2711020
  H        0.3121680     0.8980270     1.6854240
  H        0.3113180    -0.8988370     1.6852010
  H       -0.8065590    -1.3055500    -1.2620530
  H       -2.5039820    -1.2782850    -0.7600790
  H       -1.3066080    -2.1670550     0.1981350
  H       -1.3030680     2.1682800     0.1969290
  H       -0.8042250     1.3051620    -1.2627130
  H       -2.5017350     1.2809580    -0.7610030
units angstrom
no_reorient  #important for SAPT in psi4, default
symmetry c1  #important for SAPT in psi4, default
}

set PROPERTIES_ORIGIN ["COM"]
properties('MP2/aug-cc-pvtz', properties = ['dipole'])
--------------------------------------------------------------------------

    Molecular point group: c1
  Charge       = 0
  Multiplicity = 1
  Basis Set: AUG-CC-PVTZ
    Blend: AUG-CC-PVTZ
  Basis Set: (AUG-CC-PVTZ AUX)
    Blend: AUG-CC-PVTZ-JKFIT

    Orbital Energies [Eh]
    ---------------------

    Doubly Occupied:

       1A    -20.614470     2A    -20.597610     3A    -15.845448
       4A    -11.306015     5A    -11.264887     6A    -11.228942
       7A    -11.227429     8A     -1.586290     9A     -1.382662
      10A     -1.143602    11A     -1.042222    12A     -0.947916
      13A     -0.881310    14A     -0.804589    15A     -0.738218
      16A     -0.728677    17A     -0.705853    18A     -0.637821
      19A     -0.629235    20A     -0.608052    21A     -0.557341
      22A     -0.544458    23A     -0.516570    24A     -0.501027
      25A     -0.499874    26A     -0.484555    27A     -0.474293
      28A     -0.447803

  @DF-RHF Final Energy:  -360.89853601900097

   => Energetics <=

    Nuclear Repulsion Energy =            328.3868711015360873
    One-Electron Energy =               -1142.6764757143503175
    Two-Electron Energy =                 453.3910685938132019
    Total Energy =                       -360.8985360190009715
  Basis Set: (AUG-CC-PVTZ AUX)
    Blend: AUG-CC-PVTZ-RI
    Molecular point group: c1

    Geometry (in Angstrom), charge = 0, multiplicity = 1:

       Center              X                  Y                   Z               Mass
    ------------   -----------------  -----------------  -----------------  -----------------
         O            1.525291124151     1.100967520741    -0.347574899721    15.994914619570
         O            1.523596124151    -1.108123479259    -0.348732899721    15.994914619570
         N            1.136951624151     0.018744020741     0.075137300279    14.003074004430
         C           -1.331667875849    -0.002386479259     0.434301100279    12.000000000000
         C            0.051261124151    -0.003226479259     1.093790100279    12.000000000000
         C           -1.575061875849    -1.266736479259    -0.388173899721    12.000000000000
         C           -1.572907875849     1.261921520741    -0.388874899721    12.000000000000
         H           -2.034398875849    -0.001550479259     1.279263100279     1.007825032230
         H            0.209637124151     0.895045520741     1.693585100279     1.007825032230
         H            0.208787124151    -0.901818479259     1.693362100279     1.007825032230
         H           -0.909089875849    -1.308531479259    -1.253891899721     1.007825032230
         H           -2.606512875849    -1.281266479259    -0.751917899721     1.007825032230
         H           -1.409138875849    -2.170036479259     0.206296100279     1.007825032230
         H           -1.405598875849     2.165298520741     0.205090100279     1.007825032230
         H           -0.906755875849     1.302180520741    -1.254551899721     1.007825032230
         H           -2.604265875849     1.277976520741    -0.752841899721     1.007825032230

  Basis Set: AUG-CC-PVTZ
    Blend: AUG-CC-PVTZ
  Basis Set: (AUG-CC-PVTZ AUX)
    Blend: AUG-CC-PVTZ-JKFIT
	 Reference Energy          =    -360.8985360190009715 [Eh]
	 Singles Energy            =      -0.0000000000000000 [Eh]
	 Same-Spin Energy          =      -0.3688448081061553 [Eh]
	 Opposite-Spin Energy      =      -1.1811438638397145 [Eh]
	 Correlation Energy        =      -1.5499886719458698 [Eh]
	 Total Energy              =    -362.4485246909468401 [Eh]

	 ================> DF-SCS-MP2 Energies <==================
	-----------------------------------------------------------
	 SCS Same-Spin Scale       =       0.3333333333333333 [-]
	 SCS Opposite-Spin Scale   =       1.2000000000000000 [-]
	 SCS Same-Spin Energy      =      -0.1229482693687184 [Eh]
	 SCS Opposite-Spin Energy  =      -1.4173726366076573 [Eh]
	 SCS Correlation Energy    =      -1.5403209059763758 [Eh]
	 SCS Total Energy          =    -362.4388569249773582 [Eh]
	-----------------------------------------------------------

  Dipole Moment: [D]
     X:    -2.9950      Y:     0.1148      Z:     2.1710     Total:     3.7009

*** Psi4 exiting successfully. Buy a developer a beer!
