                               Psi4 1.3.2 release

  ==> Input File <==

--------------------------------------------------------------------------
#psi4
#
memory 32 gb

molecule  {
0 1
  O        1.6278220     1.1039490    -0.3557360
  O        1.6261270    -1.1051420    -0.3568940
  N        1.2303560    -0.0005110     0.0571010
  C       -1.2291370     0.0005950     0.4261400
  C        0.0091812    -0.0002093     1.2237873
  C       -1.4725310    -1.2637550    -0.3963350
  C       -1.4703770     1.2649030    -0.3970360
  H       -1.9318680     0.0014310     1.2711020
  H        0.3121680     0.8980270     1.6854240
  H        0.3113180    -0.8988370     1.6852010
  H       -0.8065590    -1.3055500    -1.2620530
  H       -2.5039820    -1.2782850    -0.7600790
  H       -1.3066080    -2.1670550     0.1981350
  H       -1.3030680     2.1682800     0.1969290
  H       -0.8042250     1.3051620    -1.2627130
  H       -2.5017350     1.2809580    -0.7610030
units angstrom
no_reorient  #important for SAPT in psi4, default
symmetry c1  #important for SAPT in psi4, default
}

set PROPERTIES_ORIGIN ["COM"]
properties('MP2/aug-cc-pvtz', properties = ['dipole'])
--------------------------------------------------------------------------

    Molecular point group: c1
  Charge       = 0
  Multiplicity = 1
  Basis Set: AUG-CC-PVTZ
    Blend: AUG-CC-PVTZ
  Basis Set: (AUG-CC-PVTZ AUX)
    Blend: AUG-CC-PVTZ-JKFIT

    Orbital Energies [Eh]
    ---------------------

    Doubly Occupied:

       1A    -20.593979     2A    -20.593929     3A    -15.821581
       4A    -11.320240     5A    -11.264768     6A    -11.232100
       7A    -11.232082     8A     -1.561050     9A     -1.368887
      10A     -1.143559    11A     -1.014477    12A     -0.951233
      13A     -0.880535    14A     -0.807517    15A     -0.721379
      16A     -0.713995    17A     -0.687837    18A     -0.663844
      19A     -0.626353    20A     -0.621029    21A     -0.559844
      22A     -0.551199    23A     -0.525556    24A     -0.512246
      25A     -0.500578    26A     -0.480815    27A     -0.438626
      28A     -0.437059

  @DF-RHF Final Energy:  -360.87478045366635

   => Energetics <=

    Nuclear Repulsion Energy =            326.0106939713070915
    One-Electron Energy =               -1138.1183574697836320
    Two-Electron Energy =                 451.2328830448101940
    Total Energy =                       -360.8747804536663466
  Basis Set: (AUG-CC-PVTZ AUX)
    Blend: AUG-CC-PVTZ-RI
    Molecular point group: c1

    Geometry (in Angstrom), charge = 0, multiplicity = 1:

       Center              X                  Y                   Z               Mass
    ------------   -----------------  -----------------  -----------------  -----------------
         O            1.543368637088     1.103984607027    -0.362319391920    15.994914619570
         O            1.541673637088    -1.105106392973    -0.363477391920    15.994914619570
         N            1.145902637088    -0.000475392973     0.050517608080    14.003074004430
         C           -1.313590362912     0.000630607027     0.419556608080    12.000000000000
         C           -0.075272162912    -0.000173692973     1.217203908080    12.000000000000
         C           -1.556984362912    -1.263719392973    -0.402918391920    12.000000000000
         C           -1.554830362912     1.264938607027    -0.403619391920    12.000000000000
         H           -2.016321362912     0.001466607027     1.264518608080     1.007825032230
         H            0.227714637088     0.898062607027     1.678840608080     1.007825032230
         H            0.226864637088    -0.898801392973     1.678617608080     1.007825032230
         H           -0.891012362912    -1.305514392973    -1.268636391920     1.007825032230
         H           -2.588435362912    -1.278249392973    -0.766662391920     1.007825032230
         H           -1.391061362912    -2.167019392973     0.191551608080     1.007825032230
         H           -1.387521362912     2.168315607027     0.190345608080     1.007825032230
         H           -0.888678362912     1.305197607027    -1.269296391920     1.007825032230
         H           -2.586188362912     1.280993607027    -0.767586391920     1.007825032230

  Basis Set: AUG-CC-PVTZ
    Blend: AUG-CC-PVTZ
  Basis Set: (AUG-CC-PVTZ AUX)
    Blend: AUG-CC-PVTZ-JKFIT
	 Reference Energy          =    -360.8747804536663466 [Eh]
	 Singles Energy            =      -0.0000000000000000 [Eh]
	 Same-Spin Energy          =      -0.3691705181096465 [Eh]
	 Opposite-Spin Energy      =      -1.1821961080325922 [Eh]
	 Correlation Energy        =      -1.5513666261422387 [Eh]
	 Total Energy              =    -362.4261470798085725 [Eh]

	 ================> DF-SCS-MP2 Energies <==================
	-----------------------------------------------------------
	 SCS Same-Spin Scale       =       0.3333333333333333 [-]
	 SCS Opposite-Spin Scale   =       1.2000000000000000 [-]
	 SCS Same-Spin Energy      =      -0.1230568393698822 [Eh]
	 SCS Opposite-Spin Energy  =      -1.4186353296391105 [Eh]
	 SCS Correlation Energy    =      -1.5416921690089926 [Eh]
	 SCS Total Energy          =    -362.4164726226753146 [Eh]
	-----------------------------------------------------------

  Dipole Moment: [D]
     X:    -3.2177      Y:     0.0011      Z:     2.2784     Total:     3.9427

*** Psi4 exiting successfully. Buy a developer a beer!
