                               Psi4 1.3.2 release

  ==> Input File <==

--------------------------------------------------------------------------
#psi4
#
memory 32 gb

molecule  {
0 1
  O        1.6278220     1.1039490    -0.3557360
  O        1.6261270    -1.1051420    -0.3568940
  N        1.1984127    -0.0892736     0.0902796
  C       -1.2291370     0.0005950     0.4261400
  C        0.1537920    -0.0002450     1.0856290
  C       -1.4725310    -1.2637550    -0.3963350
  C       -1.4703770     1.2649030    -0.3970360
  H       -1.9318680     0.0014310     1.2711020
  H        0.3121680     0.8980270     1.6854240
  H        0.3113180    -0.8988370     1.6852010
  H       -0.8065590    -1.3055500    -1.2620530
  H       -2.5039820    -1.2782850    -0.7600790
  H       -1.3066080    -2.1670550     0.1981350
  H       -1.3030680     2.1682800     0.1969290
  H       -0.8042250     1.3051620    -1.2627130
  H       -2.5017350     1.2809580    -0.7610030
units angstrom
no_reorient  #important for SAPT in psi4, default
symmetry c1  #important for SAPT in psi4, default
}

set PROPERTIES_ORIGIN ["COM"]
properties('MP2/aug-cc-pvtz', properties = ['dipole'])
--------------------------------------------------------------------------

    Molecular point group: c1
  Charge       = 0
  Multiplicity = 1
  Basis Set: AUG-CC-PVTZ
    Blend: AUG-CC-PVTZ
  Basis Set: (AUG-CC-PVTZ AUX)
    Blend: AUG-CC-PVTZ-JKFIT

    Orbital Energies [Eh]
    ---------------------

    Doubly Occupied:

       1A    -20.638828     2A    -20.572918     3A    -15.843887
       4A    -11.306635     5A    -11.266910     6A    -11.232089
       7A    -11.226222     8A     -1.600146     9A     -1.344778
      10A     -1.154790    11A     -1.052972    12A     -0.949089
      13A     -0.884387    14A     -0.808536    15A     -0.744457
      16A     -0.729585    17A     -0.707944    18A     -0.635241
      19A     -0.629154    20A     -0.608432    21A     -0.557186
      22A     -0.546012    23A     -0.518322    24A     -0.502225
      25A     -0.497568    26A     -0.483855    27A     -0.466328
      28A     -0.438377

  @DF-RHF Final Energy:  -360.88180428793851

   => Energetics <=

    Nuclear Repulsion Energy =            328.6102458533635513
    One-Electron Energy =               -1143.0903527867048979
    Two-Electron Energy =                 453.5983026454028959
    Total Energy =                       -360.8818042879385075
  Basis Set: (AUG-CC-PVTZ AUX)
    Blend: AUG-CC-PVTZ-RI
    Molecular point group: c1

    Geometry (in Angstrom), charge = 0, multiplicity = 1:

       Center              X                  Y                   Z               Mass
    ------------   -----------------  -----------------  -----------------  -----------------
         O            1.530871221912     1.116048817201    -0.350741100923    15.994914619570
         O            1.529176221912    -1.093042182799    -0.351899100923    15.994914619570
         N            1.101461921912    -0.077173782799     0.095274499077    14.003074004430
         C           -1.326087778088     0.012694817201     0.431134899077    12.000000000000
         C            0.056841221912     0.011854817201     1.090623899077    12.000000000000
         C           -1.569481778088    -1.251655182799    -0.391340100923    12.000000000000
         C           -1.567327778088     1.277002817201    -0.392041100923    12.000000000000
         H           -2.028818778088     0.013530817201     1.276096899077     1.007825032230
         H            0.215217221912     0.910126817201     1.690418899077     1.007825032230
         H            0.214367221912    -0.886737182799     1.690195899077     1.007825032230
         H           -0.903509778088    -1.293450182799    -1.257058100923     1.007825032230
         H           -2.600932778088    -1.266185182799    -0.755084100923     1.007825032230
         H           -1.403558778088    -2.154955182799     0.203129899077     1.007825032230
         H           -1.400018778088     2.180379817201     0.201923899077     1.007825032230
         H           -0.901175778088     1.317261817201    -1.257718100923     1.007825032230
         H           -2.598685778088     1.293057817201    -0.756008100923     1.007825032230

  Basis Set: AUG-CC-PVTZ
    Blend: AUG-CC-PVTZ
  Basis Set: (AUG-CC-PVTZ AUX)
    Blend: AUG-CC-PVTZ-JKFIT
	 Reference Energy          =    -360.8818042879385075 [Eh]
	 Singles Energy            =      -0.0000000000000000 [Eh]
	 Same-Spin Energy          =      -0.3693098008172626 [Eh]
	 Opposite-Spin Energy      =      -1.1821854369228582 [Eh]
	 Correlation Energy        =      -1.5514952377401208 [Eh]
	 Total Energy              =    -362.4332995256786489 [Eh]

	 ================> DF-SCS-MP2 Energies <==================
	-----------------------------------------------------------
	 SCS Same-Spin Scale       =       0.3333333333333333 [-]
	 SCS Opposite-Spin Scale   =       1.2000000000000000 [-]
	 SCS Same-Spin Energy      =      -0.1231032669390875 [Eh]
	 SCS Opposite-Spin Energy  =      -1.4186225243074297 [Eh]
	 SCS Correlation Energy    =      -1.5417257912465172 [Eh]
	 SCS Total Energy          =    -362.4235300791850136 [Eh]
	-----------------------------------------------------------

  Dipole Moment: [D]
     X:    -3.1637      Y:    -0.4698      Z:     2.2750     Total:     3.9249

*** Psi4 exiting successfully. Buy a developer a beer!
