                               Psi4 1.3.2 release

  ==> Input File <==

--------------------------------------------------------------------------
#psi4
#
memory 32 gb

molecule  {
0 1
  O        1.6278220     1.1039490    -0.3557360
  O        1.6261270    -1.1051420    -0.3568940
  N        1.2648671     0.0883679     0.0984512
  C       -1.2291370     0.0005950     0.4261400
  C        0.1537920    -0.0002450     1.0856290
  C       -1.4725310    -1.2637550    -0.3963350
  C       -1.4703770     1.2649030    -0.3970360
  H       -1.9318680     0.0014310     1.2711020
  H        0.3121680     0.8980270     1.6854240
  H        0.3113180    -0.8988370     1.6852010
  H       -0.8065590    -1.3055500    -1.2620530
  H       -2.5039820    -1.2782850    -0.7600790
  H       -1.3066080    -2.1670550     0.1981350
  H       -1.3030680     2.1682800     0.1969290
  H       -0.8042250     1.3051620    -1.2627130
  H       -2.5017350     1.2809580    -0.7610030
units angstrom
no_reorient  #important for SAPT in psi4, default
symmetry c1  #important for SAPT in psi4, default
}

set PROPERTIES_ORIGIN ["COM"]
properties('MP2/aug-cc-pvtz', properties = ['dipole'])
--------------------------------------------------------------------------

    Molecular point group: c1
  Charge       = 0
  Multiplicity = 1
  Basis Set: AUG-CC-PVTZ
    Blend: AUG-CC-PVTZ
  Basis Set: (AUG-CC-PVTZ AUX)
    Blend: AUG-CC-PVTZ-JKFIT

    Orbital Energies [Eh]
    ---------------------

    Doubly Occupied:

       1A    -20.638899     2A    -20.573001     3A    -15.842700
       4A    -11.306400     5A    -11.265778     6A    -11.231035
       7A    -11.225179     8A     -1.615153     9A     -1.356936
      10A     -1.142796    11A     -1.043903    12A     -0.947851
      13A     -0.883021    14A     -0.810130    15A     -0.742755
      16A     -0.731255    17A     -0.712230    18A     -0.637224
      19A     -0.632664    20A     -0.608925    21A     -0.556648
      22A     -0.544468    23A     -0.514671    24A     -0.501620
      25A     -0.497067    26A     -0.483088    27A     -0.464424
      28A     -0.442110

  @DF-RHF Final Energy:  -360.88681723469512

   => Energetics <=

    Nuclear Repulsion Energy =            328.1509179893541841
    One-Electron Energy =               -1142.1716088549301276
    Two-Electron Energy =                 453.1338736308808279
    Total Energy =                       -360.8868172346951155
  Basis Set: (AUG-CC-PVTZ AUX)
    Blend: AUG-CC-PVTZ-RI
    Molecular point group: c1

    Geometry (in Angstrom), charge = 0, multiplicity = 1:

       Center              X                  Y                   Z               Mass
    ------------   -----------------  -----------------  -----------------  -----------------
         O            1.521842153141     1.091912908666    -0.351851365080    15.994914619570
         O            1.520147153141    -1.117178091334    -0.353009365080    15.994914619570
         N            1.158887253141     0.076331808666     0.102335834920    14.003074004430
         C           -1.335116846859    -0.011441091334     0.430024634920    12.000000000000
         C            0.047812153141    -0.012281091334     1.089513634920    12.000000000000
         C           -1.578510846859    -1.275791091334    -0.392450365080    12.000000000000
         C           -1.576356846859     1.252866908666    -0.393151365080    12.000000000000
         H           -2.037847846859    -0.010605091334     1.274986634920     1.007825032230
         H            0.206188153141     0.885990908666     1.689308634920     1.007825032230
         H            0.205338153141    -0.910873091334     1.689085634920     1.007825032230
         H           -0.912538846859    -1.317586091334    -1.258168365080     1.007825032230
         H           -2.609961846859    -1.290321091334    -0.756194365080     1.007825032230
         H           -1.412587846859    -2.179091091334     0.202019634920     1.007825032230
         H           -1.409047846859     2.156243908666     0.200813634920     1.007825032230
         H           -0.910204846859     1.293125908666    -1.258828365080     1.007825032230
         H           -2.607714846859     1.268921908666    -0.757118365080     1.007825032230

  Basis Set: AUG-CC-PVTZ
    Blend: AUG-CC-PVTZ
  Basis Set: (AUG-CC-PVTZ AUX)
    Blend: AUG-CC-PVTZ-JKFIT
	 Reference Energy          =    -360.8868172346951155 [Eh]
	 Singles Energy            =      -0.0000000000000000 [Eh]
	 Same-Spin Energy          =      -0.3679184150201552 [Eh]
	 Opposite-Spin Energy      =      -1.1794539509819937 [Eh]
	 Correlation Energy        =      -1.5473723660021488 [Eh]
	 Total Energy              =    -362.4341896006972661 [Eh]

	 ================> DF-SCS-MP2 Energies <==================
	-----------------------------------------------------------
	 SCS Same-Spin Scale       =       0.3333333333333333 [-]
	 SCS Opposite-Spin Scale   =       1.2000000000000000 [-]
	 SCS Same-Spin Energy      =      -0.1226394716733850 [Eh]
	 SCS Opposite-Spin Energy  =      -1.4153447411783924 [Eh]
	 SCS Correlation Energy    =      -1.5379842128517773 [Eh]
	 SCS Total Energy          =    -362.4248014475468835 [Eh]
	-----------------------------------------------------------

  Dipole Moment: [D]
     X:    -3.0413      Y:     0.5107      Z:     2.1960     Total:     3.7859

*** Psi4 exiting successfully. Buy a developer a beer!
