                               Psi4 1.3.2 release

  ==> Input File <==

--------------------------------------------------------------------------
#psi4
#
memory 32 gb

molecule  {
0 1
  O        1.5994042     1.1232540    -0.3291646
  O        1.6261270    -1.1051420    -0.3568940
  N        1.2303560    -0.0005110     0.0571010
  C       -1.2291370     0.0005950     0.4261400
  C        0.1537920    -0.0002450     1.0856290
  C       -1.4725310    -1.2637550    -0.3963350
  C       -1.4703770     1.2649030    -0.3970360
  H       -1.9318680     0.0014310     1.2711020
  H        0.3121680     0.8980270     1.6854240
  H        0.3113180    -0.8988370     1.6852010
  H       -0.8065590    -1.3055500    -1.2620530
  H       -2.5039820    -1.2782850    -0.7600790
  H       -1.3066080    -2.1670550     0.1981350
  H       -1.3030680     2.1682800     0.1969290
  H       -0.8042250     1.3051620    -1.2627130
  H       -2.5017350     1.2809580    -0.7610030
units angstrom
no_reorient  #important for SAPT in psi4, default
symmetry c1  #important for SAPT in psi4, default
}

set PROPERTIES_ORIGIN ["COM"]
properties('MP2/aug-cc-pvtz', properties = ['dipole'])
--------------------------------------------------------------------------

    Molecular point group: c1
  Charge       = 0
  Multiplicity = 1
  Basis Set: AUG-CC-PVTZ
    Blend: AUG-CC-PVTZ
  Basis Set: (AUG-CC-PVTZ AUX)
    Blend: AUG-CC-PVTZ-JKFIT

    Orbital Energies [Eh]
    ---------------------

    Doubly Occupied:

       1A    -20.608525     2A    -20.607496     3A    -15.846442
       4A    -11.303960     5A    -11.263766     6A    -11.227858
       7A    -11.227590     8A     -1.584277     9A     -1.389019
      10A     -1.142172    11A     -1.040487    12A     -0.947444
      13A     -0.881063    14A     -0.804668    15A     -0.738265
      16A     -0.729950    17A     -0.705464    18A     -0.637839
      19A     -0.628354    20A     -0.607342    21A     -0.557334
      22A     -0.544145    23A     -0.515849    24A     -0.502444
      25A     -0.499330    26A     -0.485394    27A     -0.473160
      28A     -0.450419

  @DF-RHF Final Energy:  -360.89861229090809

   => Energetics <=

    Nuclear Repulsion Energy =            328.7034933561347430
    One-Electron Energy =               -1143.3040995592905347
    Two-Electron Energy =                 453.7019939122477581
    Total Energy =                       -360.8986122909080905
  Basis Set: (AUG-CC-PVTZ AUX)
    Blend: AUG-CC-PVTZ-RI
    Molecular point group: c1

    Geometry (in Angstrom), charge = 0, multiplicity = 1:

       Center              X                  Y                   Z               Mass
    ------------   -----------------  -----------------  -----------------  -----------------
         O            1.502523630112     1.120297723967    -0.323785518524    15.994914619570
         O            1.529246430112    -1.108098276033    -0.351514918524    15.994914619570
         N            1.133475430112    -0.003467276033     0.062480081476    14.003074004430
         C           -1.326017569888    -0.002361276033     0.431519081476    12.000000000000
         C            0.056911430112    -0.003201276033     1.091008081476    12.000000000000
         C           -1.569411569888    -1.266711276033    -0.390955918524    12.000000000000
         C           -1.567257569888     1.261946723967    -0.391656918524    12.000000000000
         H           -2.028748569888    -0.001525276033     1.276481081476     1.007825032230
         H            0.215287430112     0.895070723967     1.690803081476     1.007825032230
         H            0.214437430112    -0.901793276033     1.690580081476     1.007825032230
         H           -0.903439569888    -1.308506276033    -1.256673918524     1.007825032230
         H           -2.600862569888    -1.281241276033    -0.754699918524     1.007825032230
         H           -1.403488569888    -2.170011276033     0.203514081476     1.007825032230
         H           -1.399948569888     2.165323723967     0.202308081476     1.007825032230
         H           -0.901105569888     1.302205723967    -1.257333918524     1.007825032230
         H           -2.598615569888     1.278001723967    -0.755623918524     1.007825032230

  Basis Set: AUG-CC-PVTZ
    Blend: AUG-CC-PVTZ
  Basis Set: (AUG-CC-PVTZ AUX)
    Blend: AUG-CC-PVTZ-JKFIT
	 Reference Energy          =    -360.8986122909080905 [Eh]
	 Singles Energy            =      -0.0000000000000000 [Eh]
	 Same-Spin Energy          =      -0.3690465461288083 [Eh]
	 Opposite-Spin Energy      =      -1.1814619933311581 [Eh]
	 Correlation Energy        =      -1.5505085394599663 [Eh]
	 Total Energy              =    -362.4491208303680310 [Eh]

	 ================> DF-SCS-MP2 Energies <==================
	-----------------------------------------------------------
	 SCS Same-Spin Scale       =       0.3333333333333333 [-]
	 SCS Opposite-Spin Scale   =       1.2000000000000000 [-]
	 SCS Same-Spin Energy      =      -0.1230155153762694 [Eh]
	 SCS Opposite-Spin Energy  =      -1.4177543919973896 [Eh]
	 SCS Correlation Energy    =      -1.5407699073736589 [Eh]
	 SCS Total Energy          =    -362.4393821982817485 [Eh]
	-----------------------------------------------------------

  Dipole Moment: [D]
     X:    -2.9187      Y:    -0.0192      Z:     2.1171     Total:     3.6057

*** Psi4 exiting successfully. Buy a developer a beer!
