                               Psi4 1.3.2 release

  ==> Input File <==

--------------------------------------------------------------------------
#psi4
#
memory 32 gb

molecule  {
0 1
  O        1.5705367     1.1411899    -0.3021225
  O        1.6261270    -1.1051420    -0.3568940
  N        1.2303560    -0.0005110     0.0571010
  C       -1.2291370     0.0005950     0.4261400
  C        0.1537920    -0.0002450     1.0856290
  C       -1.4725310    -1.2637550    -0.3963350
  C       -1.4703770     1.2649030    -0.3970360
  H       -1.9318680     0.0014310     1.2711020
  H        0.3121680     0.8980270     1.6854240
  H        0.3113180    -0.8988370     1.6852010
  H       -0.8065590    -1.3055500    -1.2620530
  H       -2.5039820    -1.2782850    -0.7600790
  H       -1.3066080    -2.1670550     0.1981350
  H       -1.3030680     2.1682800     0.1969290
  H       -0.8042250     1.3051620    -1.2627130
  H       -2.5017350     1.2809580    -0.7610030
units angstrom
no_reorient  #important for SAPT in psi4, default
symmetry c1  #important for SAPT in psi4, default
}

set PROPERTIES_ORIGIN ["COM"]
properties('MP2/aug-cc-pvtz', properties = ['dipole'])
--------------------------------------------------------------------------

    Molecular point group: c1
  Charge       = 0
  Multiplicity = 1
  Basis Set: AUG-CC-PVTZ
    Blend: AUG-CC-PVTZ
  Basis Set: (AUG-CC-PVTZ AUX)
    Blend: AUG-CC-PVTZ-JKFIT

    Orbital Energies [Eh]
    ---------------------

    Doubly Occupied:

       1A    -20.610986     2A    -20.608876     3A    -15.847125
       4A    -11.301944     5A    -11.262897     6A    -11.227476
       7A    -11.226956     8A     -1.584427     9A     -1.393018
      10A     -1.140434    11A     -1.039128    12A     -0.946916
      13A     -0.880951    14A     -0.805172    15A     -0.738230
      16A     -0.731222    17A     -0.705437    18A     -0.637737
      19A     -0.627868    20A     -0.606666    21A     -0.557258
      22A     -0.543782    23A     -0.514763    24A     -0.504011
      25A     -0.498477    26A     -0.485767    27A     -0.471474
      28A     -0.452486

  @DF-RHF Final Energy:  -360.89701150483262

   => Energetics <=

    Nuclear Repulsion Energy =            328.9442298578727559
    One-Electron Energy =               -1143.7795092649300841
    Two-Electron Energy =                 453.9382679022247089
    Total Energy =                       -360.8970115048326193
  Basis Set: (AUG-CC-PVTZ AUX)
    Blend: AUG-CC-PVTZ-RI
    Molecular point group: c1

    Geometry (in Angstrom), charge = 0, multiplicity = 1:

       Center              X                  Y                   Z               Mass
    ------------   -----------------  -----------------  -----------------  -----------------
         O            1.478136222152     1.135450061732    -0.300940217587    15.994914619570
         O            1.533726522152    -1.110881838268    -0.355711717587    15.994914619570
         N            1.137955522152    -0.006250838268     0.058283282413    14.003074004430
         C           -1.321537477848    -0.005144838268     0.427322282413    12.000000000000
         C            0.061391522152    -0.005984838268     1.086811282413    12.000000000000
         C           -1.564931477848    -1.269494838268    -0.395152717587    12.000000000000
         C           -1.562777477848     1.259163161732    -0.395853717587    12.000000000000
         H           -2.024268477848    -0.004308838268     1.272284282413     1.007825032230
         H            0.219767522152     0.892287161732     1.686606282413     1.007825032230
         H            0.218917522152    -0.904576838268     1.686383282413     1.007825032230
         H           -0.898959477848    -1.311289838268    -1.260870717587     1.007825032230
         H           -2.596382477848    -1.284024838268    -0.758896717587     1.007825032230
         H           -1.399008477848    -2.172794838268     0.199317282413     1.007825032230
         H           -1.395468477848     2.162540161732     0.198111282413     1.007825032230
         H           -0.896625477848     1.299422161732    -1.261530717587     1.007825032230
         H           -2.594135477848     1.275218161732    -0.759820717587     1.007825032230

  Basis Set: AUG-CC-PVTZ
    Blend: AUG-CC-PVTZ
  Basis Set: (AUG-CC-PVTZ AUX)
    Blend: AUG-CC-PVTZ-JKFIT
	 Reference Energy          =    -360.8970115048326193 [Eh]
	 Singles Energy            =      -0.0000000000000000 [Eh]
	 Same-Spin Energy          =      -0.3692079360453313 [Eh]
	 Opposite-Spin Energy      =      -1.1817340961228786 [Eh]
	 Correlation Energy        =      -1.5509420321682099 [Eh]
	 Total Energy              =    -362.4479535370008421 [Eh]

	 ================> DF-SCS-MP2 Energies <==================
	-----------------------------------------------------------
	 SCS Same-Spin Scale       =       0.3333333333333333 [-]
	 SCS Opposite-Spin Scale   =       1.2000000000000000 [-]
	 SCS Same-Spin Energy      =      -0.1230693120151104 [Eh]
	 SCS Opposite-Spin Energy  =      -1.4180809153474543 [Eh]
	 SCS Correlation Energy    =      -1.5411502273625648 [Eh]
	 SCS Total Energy          =    -362.4381617321951694 [Eh]
	-----------------------------------------------------------

  Dipole Moment: [D]
     X:    -2.8457      Y:    -0.0371      Z:     2.0642     Total:     3.5157

*** Psi4 exiting successfully. Buy a developer a beer!
