                               Psi4 1.3.2 release

  ==> Input File <==

--------------------------------------------------------------------------
#psi4
#
memory 32 gb

molecule  {
0 1
  O        1.6144238     1.1137823    -0.3417573
  O        1.6261270    -1.1051420    -0.3568940
  N        1.2303560    -0.0005110     0.0571010
  C       -1.2291370     0.0005950     0.4261400
  C        0.1537920    -0.0002450     1.0856290
  C       -1.4725310    -1.2637550    -0.3963350
  C       -1.4703770     1.2649030    -0.3970360
  H       -1.9318680     0.0014310     1.2711020
  H        0.3121680     0.8980270     1.6854240
  H        0.3113180    -0.8988370     1.6852010
  H       -0.8065590    -1.3055500    -1.2620530
  H       -2.5039820    -1.2782850    -0.7600790
  H       -1.3066080    -2.1670550     0.1981350
  H       -1.3030680     2.1682800     0.1969290
  H       -0.8042250     1.3051620    -1.2627130
  H       -2.5017350     1.2809580    -0.7610030
units angstrom
no_reorient  #important for SAPT in psi4, default
symmetry c1  #important for SAPT in psi4, default
}

set PROPERTIES_ORIGIN ["COM"]
properties('MP2/aug-cc-pvtz', properties = ['dipole'])
--------------------------------------------------------------------------

    Molecular point group: c1
  Charge       = 0
  Multiplicity = 1
  Basis Set: AUG-CC-PVTZ
    Blend: AUG-CC-PVTZ
  Basis Set: (AUG-CC-PVTZ AUX)
    Blend: AUG-CC-PVTZ-JKFIT

    Orbital Energies [Eh]
    ---------------------

    Doubly Occupied:

       1A    -20.607273     2A    -20.606769     3A    -15.846072
       4A    -11.304959     5A    -11.264194     6A    -11.228045
       7A    -11.227922     8A     -1.584228     9A     -1.386975
      10A     -1.143029    11A     -1.041150    12A     -0.947714
      13A     -0.881145    14A     -0.804411    15A     -0.738292
      16A     -0.729283    17A     -0.705452    18A     -0.637914
      19A     -0.628602    20A     -0.607676    21A     -0.557387
      22A     -0.544353    23A     -0.516392    24A     -0.501709
      25A     -0.499753    26A     -0.485035    27A     -0.473957
      28A     -0.449354

  @DF-RHF Final Energy:  -360.89911272222156

   => Energetics <=

    Nuclear Repulsion Energy =            328.5851981626836960
    One-Electron Energy =               -1143.0705278023458504
    Two-Electron Energy =                 453.5862169174405949
    Total Energy =                       -360.8991127222215596
  Basis Set: (AUG-CC-PVTZ AUX)
    Blend: AUG-CC-PVTZ-RI
    Molecular point group: c1

    Geometry (in Angstrom), charge = 0, multiplicity = 1:

       Center              X                  Y                   Z               Mass
    ------------   -----------------  -----------------  -----------------  -----------------
         O            1.515212263094     1.112295984573    -0.334423894283    15.994914619570
         O            1.526915463094    -1.106628315427    -0.349560594283    15.994914619570
         N            1.131144463094    -0.001997315427     0.064434405717    14.003074004430
         C           -1.328348536906    -0.000891315427     0.433473405717    12.000000000000
         C            0.054580463094    -0.001731315427     1.092962405717    12.000000000000
         C           -1.571742536906    -1.265241315427    -0.389001594283    12.000000000000
         C           -1.569588536906     1.263416684573    -0.389702594283    12.000000000000
         H           -2.031079536906    -0.000055315427     1.278435405717     1.007825032230
         H            0.212956463094     0.896540684573     1.692757405717     1.007825032230
         H            0.212106463094    -0.900323315427     1.692534405717     1.007825032230
         H           -0.905770536906    -1.307036315427    -1.254719594283     1.007825032230
         H           -2.603193536906    -1.279771315427    -0.752745594283     1.007825032230
         H           -1.405819536906    -2.168541315427     0.205468405717     1.007825032230
         H           -1.402279536906     2.166793684573     0.204262405717     1.007825032230
         H           -0.903436536906     1.303675684573    -1.255379594283     1.007825032230
         H           -2.600946536906     1.279471684573    -0.753669594283     1.007825032230

  Basis Set: AUG-CC-PVTZ
    Blend: AUG-CC-PVTZ
  Basis Set: (AUG-CC-PVTZ AUX)
    Blend: AUG-CC-PVTZ-JKFIT
	 Reference Energy          =    -360.8991127222215596 [Eh]
	 Singles Energy            =      -0.0000000000000000 [Eh]
	 Same-Spin Energy          =      -0.3689707778403740 [Eh]
	 Opposite-Spin Energy      =      -1.1813384461017651 [Eh]
	 Correlation Energy        =      -1.5503092239421390 [Eh]
	 Total Energy              =    -362.4494219461636817 [Eh]

	 ================> DF-SCS-MP2 Energies <==================
	-----------------------------------------------------------
	 SCS Same-Spin Scale       =       0.3333333333333333 [-]
	 SCS Opposite-Spin Scale   =       1.2000000000000000 [-]
	 SCS Same-Spin Energy      =      -0.1229902592801247 [Eh]
	 SCS Opposite-Spin Energy  =      -1.4176061353221181 [Eh]
	 SCS Correlation Energy    =      -1.5405963946022427 [Eh]
	 SCS Total Energy          =    -362.4397091168237921 [Eh]
	-----------------------------------------------------------

  Dipole Moment: [D]
     X:    -2.9556      Y:    -0.0095      Z:     2.1424     Total:     3.6504

*** Psi4 exiting successfully. Buy a developer a beer!
