                               Psi4 1.3.2 release

  ==> Input File <==

--------------------------------------------------------------------------
#psi4
#
memory 32 gb

molecule  {
0 1
  O        1.6278220     1.1039490    -0.3557360
  O        1.6261270    -1.1051420    -0.3568940
  N        1.2111221    -0.0449771     0.0382933
  C       -1.2291370     0.0005950     0.4261400
  C        0.1537920    -0.0002450     1.0856290
  C       -1.4725310    -1.2637550    -0.3963350
  C       -1.4703770     1.2649030    -0.3970360
  H       -1.9318680     0.0014310     1.2711020
  H        0.3121680     0.8980270     1.6854240
  H        0.3113180    -0.8988370     1.6852010
  H       -0.8065590    -1.3055500    -1.2620530
  H       -2.5039820    -1.2782850    -0.7600790
  H       -1.3066080    -2.1670550     0.1981350
  H       -1.3030680     2.1682800     0.1969290
  H       -0.8042250     1.3051620    -1.2627130
  H       -2.5017350     1.2809580    -0.7610030
units angstrom
no_reorient  #important for SAPT in psi4, default
symmetry c1  #important for SAPT in psi4, default
}

set PROPERTIES_ORIGIN ["COM"]
properties('MP2/aug-cc-pvtz', properties = ['dipole'])
--------------------------------------------------------------------------

    Molecular point group: c1
  Charge       = 0
  Multiplicity = 1
  Basis Set: AUG-CC-PVTZ
    Blend: AUG-CC-PVTZ
  Basis Set: (AUG-CC-PVTZ AUX)
    Blend: AUG-CC-PVTZ-JKFIT

    Orbital Energies [Eh]
    ---------------------

    Doubly Occupied:

       1A    -20.622657     2A    -20.589035     3A    -15.845091
       4A    -11.305968     5A    -11.264139     6A    -11.229865
       7A    -11.226828     8A     -1.593602     9A     -1.377641
      10A     -1.144416    11A     -1.041207    12A     -0.948141
      13A     -0.881838    14A     -0.805456    15A     -0.741563
      16A     -0.729030    17A     -0.707657    18A     -0.637965
      19A     -0.629210    20A     -0.608439    21A     -0.557402
      22A     -0.544841    23A     -0.517790    24A     -0.501218
      25A     -0.499160    26A     -0.484378    27A     -0.470796
      28A     -0.446733

  @DF-RHF Final Energy:  -360.89653904532838

   => Energetics <=

    Nuclear Repulsion Energy =            328.7070600251049086
    One-Electron Energy =               -1143.3030753512241517
    Two-Electron Energy =                 453.6994762807908046
    Total Energy =                       -360.8965390453283817
  Basis Set: (AUG-CC-PVTZ AUX)
    Blend: AUG-CC-PVTZ-RI
    Molecular point group: c1

    Geometry (in Angstrom), charge = 0, multiplicity = 1:

       Center              X                  Y                   Z               Mass
    ------------   -----------------  -----------------  -----------------  -----------------
         O            1.529144413053     1.110030312108    -0.343677793183    15.994914619570
         O            1.527449413053    -1.099060687892    -0.344835793183    15.994914619570
         N            1.112444513053    -0.038895787892     0.050351506817    14.003074004430
         C           -1.327814586947     0.006676312108     0.438198206817    12.000000000000
         C            0.055114413053     0.005836312108     1.097687206817    12.000000000000
         C           -1.571208586947    -1.257673687892    -0.384276793183    12.000000000000
         C           -1.569054586947     1.270984312108    -0.384977793183    12.000000000000
         H           -2.030545586947     0.007512312108     1.283160206817     1.007825032230
         H            0.213490413053     0.904108312108     1.697482206817     1.007825032230
         H            0.212640413053    -0.892755687892     1.697259206817     1.007825032230
         H           -0.905236586947    -1.299468687892    -1.249994793183     1.007825032230
         H           -2.602659586947    -1.272203687892    -0.748020793183     1.007825032230
         H           -1.405285586947    -2.160973687892     0.210193206817     1.007825032230
         H           -1.401745586947     2.174361312108     0.208987206817     1.007825032230
         H           -0.902902586947     1.311243312108    -1.250654793183     1.007825032230
         H           -2.600412586947     1.287039312108    -0.748944793183     1.007825032230

  Basis Set: AUG-CC-PVTZ
    Blend: AUG-CC-PVTZ
  Basis Set: (AUG-CC-PVTZ AUX)
    Blend: AUG-CC-PVTZ-JKFIT
	 Reference Energy          =    -360.8965390453283817 [Eh]
	 Singles Energy            =      -0.0000000000000000 [Eh]
	 Same-Spin Energy          =      -0.3686306191940606 [Eh]
	 Opposite-Spin Energy      =      -1.1806285779415586 [Eh]
	 Correlation Energy        =      -1.5492591971356193 [Eh]
	 Total Energy              =    -362.4457982424639795 [Eh]

	 ================> DF-SCS-MP2 Energies <==================
	-----------------------------------------------------------
	 SCS Same-Spin Scale       =       0.3333333333333333 [-]
	 SCS Opposite-Spin Scale   =       1.2000000000000000 [-]
	 SCS Same-Spin Energy      =      -0.1228768730646869 [Eh]
	 SCS Opposite-Spin Energy  =      -1.4167542935298703 [Eh]
	 SCS Correlation Energy    =      -1.5396311665945572 [Eh]
	 SCS Total Energy          =    -362.4361702119229562 [Eh]
	-----------------------------------------------------------

  Dipole Moment: [D]
     X:    -2.9990      Y:    -0.2351      Z:     2.1738     Total:     3.7115

*** Psi4 exiting successfully. Buy a developer a beer!
