                               Psi4 1.3.2 release

  ==> Input File <==

--------------------------------------------------------------------------
#psi4
#
memory 32 gb

molecule  {
0 1
  O        1.6278220     1.1039490    -0.3557360
  O        1.6261270    -1.1051420    -0.3568940
  N        1.2801022     0.1326725     0.1209434
  C       -1.2291370     0.0005950     0.4261400
  C        0.1537920    -0.0002450     1.0856290
  C       -1.4725310    -1.2637550    -0.3963350
  C       -1.4703770     1.2649030    -0.3970360
  H       -1.9318680     0.0014310     1.2711020
  H        0.3121680     0.8980270     1.6854240
  H        0.3113180    -0.8988370     1.6852010
  H       -0.8065590    -1.3055500    -1.2620530
  H       -2.5039820    -1.2782850    -0.7600790
  H       -1.3066080    -2.1670550     0.1981350
  H       -1.3030680     2.1682800     0.1969290
  H       -0.8042250     1.3051620    -1.2627130
  H       -2.5017350     1.2809580    -0.7610030
units angstrom
no_reorient  #important for SAPT in psi4, default
symmetry c1  #important for SAPT in psi4, default
}

set PROPERTIES_ORIGIN ["COM"]
properties('MP2/aug-cc-pvtz', properties = ['dipole'])
--------------------------------------------------------------------------

    Molecular point group: c1
  Charge       = 0
  Multiplicity = 1
  Basis Set: AUG-CC-PVTZ
    Blend: AUG-CC-PVTZ
  Basis Set: (AUG-CC-PVTZ AUX)
    Blend: AUG-CC-PVTZ-JKFIT

    Orbital Energies [Eh]
    ---------------------

    Doubly Occupied:

       1A    -20.653765     2A    -20.557824     3A    -15.839275
       4A    -11.306796     5A    -11.266392     6A    -11.232313
       7A    -11.223823     8A     -1.644998     9A     -1.331826
      10A     -1.142188    11A     -1.045323    12A     -0.947854
      13A     -0.885263    14A     -0.816571    15A     -0.748783
      16A     -0.736297    17A     -0.718545    18A     -0.637848
      19A     -0.635943    20A     -0.609554    21A     -0.556125
      22A     -0.544794    23A     -0.511687    24A     -0.502022
      25A     -0.495729    26A     -0.477612    27A     -0.454090
      28A     -0.435936

  @DF-RHF Final Energy:  -360.87146136187749

   => Energetics <=

    Nuclear Repulsion Energy =            328.0330769705436751
    One-Electron Energy =               -1141.8907262617708511
    Two-Electron Energy =                 452.9861879293496827
    Total Energy =                       -360.8714613618774933
  Basis Set: (AUG-CC-PVTZ AUX)
    Blend: AUG-CC-PVTZ-RI
    Molecular point group: c1

    Geometry (in Angstrom), charge = 0, multiplicity = 1:

       Center              X                  Y                   Z               Mass
    ------------   -----------------  -----------------  -----------------  -----------------
         O            1.519772180864     1.085893303038    -0.354907349644    15.994914619570
         O            1.518077180864    -1.123197696962    -0.356065349644    15.994914619570
         N            1.172052380864     0.114616803038     0.121772050356    14.003074004430
         C           -1.337186819136    -0.017460696962     0.426968650356    12.000000000000
         C            0.045742180864    -0.018300696962     1.086457650356    12.000000000000
         C           -1.580580819136    -1.281810696962    -0.395506349644    12.000000000000
         C           -1.578426819136     1.246847303038    -0.396207349644    12.000000000000
         H           -2.039917819136    -0.016624696962     1.271930650356     1.007825032230
         H            0.204118180864     0.879971303038     1.686252650356     1.007825032230
         H            0.203268180864    -0.916892696962     1.686029650356     1.007825032230
         H           -0.914608819136    -1.323605696962    -1.261224349644     1.007825032230
         H           -2.612031819136    -1.296340696962    -0.759250349644     1.007825032230
         H           -1.414657819136    -2.185110696962     0.198963650356     1.007825032230
         H           -1.411117819136     2.150224303038     0.197757650356     1.007825032230
         H           -0.912274819136     1.287106303038    -1.261884349644     1.007825032230
         H           -2.609784819136     1.262902303038    -0.760174349644     1.007825032230

  Basis Set: AUG-CC-PVTZ
    Blend: AUG-CC-PVTZ
  Basis Set: (AUG-CC-PVTZ AUX)
    Blend: AUG-CC-PVTZ-JKFIT
	 Reference Energy          =    -360.8714613618774933 [Eh]
	 Singles Energy            =      -0.0000000000000000 [Eh]
	 Same-Spin Energy          =      -0.3667772065602148 [Eh]
	 Opposite-Spin Energy      =      -1.1774634576754699 [Eh]
	 Correlation Energy        =      -1.5442406642356847 [Eh]
	 Total Energy              =    -362.4157020261131947 [Eh]

	 ================> DF-SCS-MP2 Energies <==================
	-----------------------------------------------------------
	 SCS Same-Spin Scale       =       0.3333333333333333 [-]
	 SCS Opposite-Spin Scale   =       1.2000000000000000 [-]
	 SCS Same-Spin Energy      =      -0.1222590688534049 [Eh]
	 SCS Opposite-Spin Energy  =      -1.4129561492105638 [Eh]
	 SCS Correlation Energy    =      -1.5352152180639687 [Eh]
	 SCS Total Energy          =    -362.4066765799414611 [Eh]
	-----------------------------------------------------------

  Dipole Moment: [D]
     X:    -3.1015      Y:     0.8642      Z:     2.2307     Total:     3.9169

*** Psi4 exiting successfully. Buy a developer a beer!
