                               Psi4 1.3.2 release

  ==> Input File <==

--------------------------------------------------------------------------
#psi4
#
memory 32 gb

molecule  {
0 1
  O        1.6801640     1.0612831    -0.4103513
  O        1.6261270    -1.1051420    -0.3568940
  N        1.2303560    -0.0005110     0.0571010
  C       -1.2291370     0.0005950     0.4261400
  C        0.1537920    -0.0002450     1.0856290
  C       -1.4725310    -1.2637550    -0.3963350
  C       -1.4703770     1.2649030    -0.3970360
  H       -1.9318680     0.0014310     1.2711020
  H        0.3121680     0.8980270     1.6854240
  H        0.3113180    -0.8988370     1.6852010
  H       -0.8065590    -1.3055500    -1.2620530
  H       -2.5039820    -1.2782850    -0.7600790
  H       -1.3066080    -2.1670550     0.1981350
  H       -1.3030680     2.1682800     0.1969290
  H       -0.8042250     1.3051620    -1.2627130
  H       -2.5017350     1.2809580    -0.7610030
units angstrom
no_reorient  #important for SAPT in psi4, default
symmetry c1  #important for SAPT in psi4, default
}

set PROPERTIES_ORIGIN ["COM"]
properties('MP2/aug-cc-pvtz', properties = ['dipole'])
--------------------------------------------------------------------------

    Molecular point group: c1
  Charge       = 0
  Multiplicity = 1
  Basis Set: AUG-CC-PVTZ
    Blend: AUG-CC-PVTZ
  Basis Set: (AUG-CC-PVTZ AUX)
    Blend: AUG-CC-PVTZ-JKFIT

    Orbital Energies [Eh]
    ---------------------

    Doubly Occupied:

       1A    -20.602696     2A    -20.600818     3A    -15.843925
       4A    -11.309896     5A    -11.266267     6A    -11.229463
       7A    -11.228907     8A     -1.584293     9A     -1.376255
      10A     -1.147130    11A     -1.044337    12A     -0.948978
      13A     -0.881687    14A     -0.803086    15A     -0.738410
      16A     -0.725691    17A     -0.705299    18A     -0.638380
      19A     -0.629649    20A     -0.609243    21A     -0.557727
      22A     -0.545471    23A     -0.518898    24A     -0.501799
      25A     -0.499098    26A     -0.480938    27A     -0.477613
      28A     -0.443647

  @DF-RHF Final Energy:  -360.89853238664699

   => Energetics <=

    Nuclear Repulsion Energy =            328.1305366086011759
    One-Electron Energy =               -1142.1789373496806093
    Two-Electron Energy =                 453.1498683544323853
    Total Energy =                       -360.8985323866469912
  Basis Set: (AUG-CC-PVTZ AUX)
    Blend: AUG-CC-PVTZ-RI
    Molecular point group: c1

    Geometry (in Angstrom), charge = 0, multiplicity = 1:

       Center              X                  Y                   Z               Mass
    ------------   -----------------  -----------------  -----------------  -----------------
         O            1.570749911895     1.067944398603    -0.392372447556    15.994914619570
         O            1.516712911895    -1.098480701397    -0.338915147556    15.994914619570
         N            1.120941911895     0.006150298603     0.075079852444    14.003074004430
         C           -1.338551088105     0.007256298603     0.444118852444    12.000000000000
         C            0.044377911895     0.006416298603     1.103607852444    12.000000000000
         C           -1.581945088105    -1.257093701397    -0.378356147556    12.000000000000
         C           -1.579791088105     1.271564298603    -0.379057147556    12.000000000000
         H           -2.041282088105     0.008092298603     1.289080852444     1.007825032230
         H            0.202753911895     0.904688298603     1.703402852444     1.007825032230
         H            0.201903911895    -0.892175701397     1.703179852444     1.007825032230
         H           -0.915973088105    -1.298888701397    -1.244074147556     1.007825032230
         H           -2.613396088105    -1.271623701397    -0.742100147556     1.007825032230
         H           -1.416022088105    -2.160393701397     0.216113852444     1.007825032230
         H           -1.412482088105     2.174941298603     0.214907852444     1.007825032230
         H           -0.913639088105     1.311823298603    -1.244734147556     1.007825032230
         H           -2.611149088105     1.287619298603    -0.743024147556     1.007825032230

  Basis Set: AUG-CC-PVTZ
    Blend: AUG-CC-PVTZ
  Basis Set: (AUG-CC-PVTZ AUX)
    Blend: AUG-CC-PVTZ-JKFIT
	 Reference Energy          =    -360.8985323866469912 [Eh]
	 Singles Energy            =      -0.0000000000000000 [Eh]
	 Same-Spin Energy          =      -0.3686835777728654 [Eh]
	 Opposite-Spin Energy      =      -1.1809028765197485 [Eh]
	 Correlation Energy        =      -1.5495864542926139 [Eh]
	 Total Energy              =    -362.4481188409396282 [Eh]

	 ================> DF-SCS-MP2 Energies <==================
	-----------------------------------------------------------
	 SCS Same-Spin Scale       =       0.3333333333333333 [-]
	 SCS Opposite-Spin Scale   =       1.2000000000000000 [-]
	 SCS Same-Spin Energy      =      -0.1228945259242885 [Eh]
	 SCS Opposite-Spin Energy  =      -1.4170834518236981 [Eh]
	 SCS Correlation Energy    =      -1.5399779777479865 [Eh]
	 SCS Total Energy          =    -362.4385103643949719 [Eh]
	-----------------------------------------------------------

  Dipole Moment: [D]
     X:    -3.1289      Y:     0.0486      Z:     2.2724     Total:     3.8673

*** Psi4 exiting successfully. Buy a developer a beer!
