                               Psi4 1.3.2 release

  ==> Input File <==

--------------------------------------------------------------------------
#psi4
#
memory 32 gb

molecule  {
0 1
  O        1.6278220     1.1039490    -0.3557360
  O        1.6261270    -1.1051420    -0.3568940
  N        1.2303560    -0.0005110     0.0571010
  C       -1.2291370     0.0005950     0.4261400
  C        0.2984028    -0.0002807     0.9474707
  C       -1.4725310    -1.2637550    -0.3963350
  C       -1.4703770     1.2649030    -0.3970360
  H       -1.9318680     0.0014310     1.2711020
  H        0.3121680     0.8980270     1.6854240
  H        0.3113180    -0.8988370     1.6852010
  H       -0.8065590    -1.3055500    -1.2620530
  H       -2.5039820    -1.2782850    -0.7600790
  H       -1.3066080    -2.1670550     0.1981350
  H       -1.3030680     2.1682800     0.1969290
  H       -0.8042250     1.3051620    -1.2627130
  H       -2.5017350     1.2809580    -0.7610030
units angstrom
no_reorient  #important for SAPT in psi4, default
symmetry c1  #important for SAPT in psi4, default
}

set PROPERTIES_ORIGIN ["COM"]
properties('MP2/aug-cc-pvtz', properties = ['dipole'])
--------------------------------------------------------------------------

    Molecular point group: c1
  Charge       = 0
  Multiplicity = 1
  Basis Set: AUG-CC-PVTZ
    Blend: AUG-CC-PVTZ
  Basis Set: (AUG-CC-PVTZ AUX)
    Blend: AUG-CC-PVTZ-JKFIT

    Orbital Energies [Eh]
    ---------------------

    Doubly Occupied:

       1A    -20.606596     2A    -20.606547     3A    -15.849194
       4A    -11.301242     5A    -11.276436     6A    -11.228219
       7A    -11.228204     8A     -1.607080     9A     -1.392881
      10A     -1.175937    11A     -1.072745    12A     -0.948205
      13A     -0.871310    14A     -0.805843    15A     -0.755258
      16A     -0.741049    17A     -0.718463    18A     -0.630430
      19A     -0.609110    20A     -0.597059    21A     -0.557931
      22A     -0.535864    23A     -0.522436    24A     -0.502330
      25A     -0.496879    26A     -0.474329    27A     -0.471015
      28A     -0.451516

  @DF-RHF Final Energy:  -360.85467825713209

   => Energetics <=

    Nuclear Repulsion Energy =            331.3316260508328810
    One-Electron Energy =               -1148.3043947998903604
    Two-Electron Energy =                 456.1180904919253294
    Total Energy =                       -360.8546782571320932
  Basis Set: (AUG-CC-PVTZ AUX)
    Blend: AUG-CC-PVTZ-RI
    Molecular point group: c1

    Geometry (in Angstrom), charge = 0, multiplicity = 1:

       Center              X                  Y                   Z               Mass
    ------------   -----------------  -----------------  -----------------  -----------------
         O            1.509693621451     1.103992920362    -0.330146947587    15.994914619570
         O            1.507998621451    -1.105098079638    -0.331304947587    15.994914619570
         N            1.112227621451    -0.000467079638     0.082690052413    14.003074004430
         C           -1.347265378549     0.000638920362     0.451729052413    12.000000000000
         C            0.180274421451    -0.000236779638     0.973059752413    12.000000000000
         C           -1.590659378549    -1.263711079638    -0.370745947587    12.000000000000
         C           -1.588505378549     1.264946920362    -0.371446947587    12.000000000000
         H           -2.049996378549     0.001474920362     1.296691052413     1.007825032230
         H            0.194039621451     0.898070920362     1.711013052413     1.007825032230
         H            0.193189621451    -0.898793079638     1.710790052413     1.007825032230
         H           -0.924687378549    -1.305506079638    -1.236463947587     1.007825032230
         H           -2.622110378549    -1.278241079638    -0.734489947587     1.007825032230
         H           -1.424736378549    -2.167011079638     0.223724052413     1.007825032230
         H           -1.421196378549     2.168323920362     0.222518052413     1.007825032230
         H           -0.922353378549     1.305205920362    -1.237123947587     1.007825032230
         H           -2.619863378549     1.281001920362    -0.735413947587     1.007825032230

  Basis Set: AUG-CC-PVTZ
    Blend: AUG-CC-PVTZ
  Basis Set: (AUG-CC-PVTZ AUX)
    Blend: AUG-CC-PVTZ-JKFIT
	 Reference Energy          =    -360.8546782571320932 [Eh]
	 Singles Energy            =      -0.0000000000000000 [Eh]
	 Same-Spin Energy          =      -0.3715966360643347 [Eh]
	 Opposite-Spin Energy      =      -1.1838687356626727 [Eh]
	 Correlation Energy        =      -1.5554653717270073 [Eh]
	 Total Energy              =    -362.4101436288590889 [Eh]

	 ================> DF-SCS-MP2 Energies <==================
	-----------------------------------------------------------
	 SCS Same-Spin Scale       =       0.3333333333333333 [-]
	 SCS Opposite-Spin Scale   =       1.2000000000000000 [-]
	 SCS Same-Spin Energy      =      -0.1238655453547782 [Eh]
	 SCS Opposite-Spin Energy  =      -1.4206424827952071 [Eh]
	 SCS Correlation Energy    =      -1.5445080281499854 [Eh]
	 SCS Total Energy          =    -362.3991862852820987 [Eh]
	-----------------------------------------------------------

  Dipole Moment: [D]
     X:    -3.0786      Y:     0.0011      Z:     2.1255     Total:     3.7410

*** Psi4 exiting successfully. Buy a developer a beer!
