                               Psi4 1.3.2 release

  ==> Input File <==

--------------------------------------------------------------------------
#psi4
#
memory 32 gb

molecule  {
0 1
  O        1.6278220     1.1039490    -0.3557360
  O        1.6261270    -1.1051420    -0.3568940
  N        1.1688148    -0.1336916     0.0045274
  C       -1.2291370     0.0005950     0.4261400
  C        0.1537920    -0.0002450     1.0856290
  C       -1.4725310    -1.2637550    -0.3963350
  C       -1.4703770     1.2649030    -0.3970360
  H       -1.9318680     0.0014310     1.2711020
  H        0.3121680     0.8980270     1.6854240
  H        0.3113180    -0.8988370     1.6852010
  H       -0.8065590    -1.3055500    -1.2620530
  H       -2.5039820    -1.2782850    -0.7600790
  H       -1.3066080    -2.1670550     0.1981350
  H       -1.3030680     2.1682800     0.1969290
  H       -0.8042250     1.3051620    -1.2627130
  H       -2.5017350     1.2809580    -0.7610030
units angstrom
no_reorient  #important for SAPT in psi4, default
symmetry c1  #important for SAPT in psi4, default
}

set PROPERTIES_ORIGIN ["COM"]
properties('MP2/aug-cc-pvtz', properties = ['dipole'])
--------------------------------------------------------------------------

    Molecular point group: c1
  Charge       = 0
  Multiplicity = 1
  Basis Set: AUG-CC-PVTZ
    Blend: AUG-CC-PVTZ
  Basis Set: (AUG-CC-PVTZ AUX)
    Blend: AUG-CC-PVTZ-JKFIT

    Orbital Energies [Eh]
    ---------------------

    Doubly Occupied:

       1A    -20.653426     2A    -20.556981     3A    -15.839796
       4A    -11.306455     5A    -11.263422     6A    -11.233214
       7A    -11.224300     8A     -1.648401     9A     -1.333945
      10A     -1.145417    11A     -1.040848    12A     -0.948775
      13A     -0.886035    14A     -0.815194    15A     -0.756000
      16A     -0.737018    17A     -0.720658    18A     -0.638663
      19A     -0.633314    20A     -0.610589    21A     -0.556989
      22A     -0.545903    23A     -0.515138    24A     -0.502154
      25A     -0.496057    26A     -0.476324    27A     -0.452133
      28A     -0.436214

  @DF-RHF Final Energy:  -360.87225236719303

   => Energetics <=

    Nuclear Repulsion Energy =            329.2612309795483156
    One-Electron Energy =               -1144.3202373193398671
    Two-Electron Energy =                 454.1867539725984670
    Total Energy =                       -360.8722523671930276
  Basis Set: (AUG-CC-PVTZ AUX)
    Blend: AUG-CC-PVTZ-RI
    Molecular point group: c1

    Geometry (in Angstrom), charge = 0, multiplicity = 1:

       Center              X                  Y                   Z               Mass
    ------------   -----------------  -----------------  -----------------  -----------------
         O            1.534892648252     1.122083830333    -0.339090066363    15.994914619570
         O            1.533197648252    -1.087007169667    -0.340248066363    15.994914619570
         N            1.075885448252    -0.115556769667     0.021173333637    14.003074004430
         C           -1.322066351748     0.018729830333     0.442785933637    12.000000000000
         C            0.060862648252     0.017889830333     1.102274933637    12.000000000000
         C           -1.565460351748    -1.245620169667    -0.379689066363    12.000000000000
         C           -1.563306351748     1.283037830333    -0.380390066363    12.000000000000
         H           -2.024797351748     0.019565830333     1.287747933637     1.007825032230
         H            0.219238648252     0.916161830333     1.702069933637     1.007825032230
         H            0.218388648252    -0.880702169667     1.701846933637     1.007825032230
         H           -0.899488351748    -1.287415169667    -1.245407066363     1.007825032230
         H           -2.596911351748    -1.260150169667    -0.743433066363     1.007825032230
         H           -1.399537351748    -2.148920169667     0.214780933637     1.007825032230
         H           -1.395997351748     2.186414830333     0.213574933637     1.007825032230
         H           -0.897154351748     1.323296830333    -1.246067066363     1.007825032230
         H           -2.594664351748     1.299092830333    -0.744357066363     1.007825032230

  Basis Set: AUG-CC-PVTZ
    Blend: AUG-CC-PVTZ
  Basis Set: (AUG-CC-PVTZ AUX)
    Blend: AUG-CC-PVTZ-JKFIT
	 Reference Energy          =    -360.8722523671930276 [Eh]
	 Singles Energy            =      -0.0000000000000000 [Eh]
	 Same-Spin Energy          =      -0.3666710540477676 [Eh]
	 Opposite-Spin Energy      =      -1.1768959713574749 [Eh]
	 Correlation Energy        =      -1.5435670254052425 [Eh]
	 Total Energy              =    -362.4158193925982800 [Eh]

	 ================> DF-SCS-MP2 Energies <==================
	-----------------------------------------------------------
	 SCS Same-Spin Scale       =       0.3333333333333333 [-]
	 SCS Opposite-Spin Scale   =       1.2000000000000000 [-]
	 SCS Same-Spin Energy      =      -0.1222236846825892 [Eh]
	 SCS Opposite-Spin Energy  =      -1.4122751656289698 [Eh]
	 SCS Correlation Energy    =      -1.5344988503115591 [Eh]
	 SCS Total Energy          =    -362.4067512175045636 [Eh]
	-----------------------------------------------------------

  Dipole Moment: [D]
     X:    -3.0896      Y:    -0.8881      Z:     2.2222     Total:     3.9080

*** Psi4 exiting successfully. Buy a developer a beer!
