                               Psi4 1.3.2 release

  ==> Input File <==

--------------------------------------------------------------------------
#psi4
#
memory 32 gb

molecule  {
0 1
  O        1.6278220     1.1039490    -0.3557360
  O        1.6261270    -1.1051420    -0.3568940
  N        1.1169480    -0.0004288    -0.0497962
  C       -1.2291370     0.0005950     0.4261400
  C        0.1537920    -0.0002450     1.0856290
  C       -1.4725310    -1.2637550    -0.3963350
  C       -1.4703770     1.2649030    -0.3970360
  H       -1.9318680     0.0014310     1.2711020
  H        0.3121680     0.8980270     1.6854240
  H        0.3113180    -0.8988370     1.6852010
  H       -0.8065590    -1.3055500    -1.2620530
  H       -2.5039820    -1.2782850    -0.7600790
  H       -1.3066080    -2.1670550     0.1981350
  H       -1.3030680     2.1682800     0.1969290
  H       -0.8042250     1.3051620    -1.2627130
  H       -2.5017350     1.2809580    -0.7610030
units angstrom
no_reorient  #important for SAPT in psi4, default
symmetry c1  #important for SAPT in psi4, default
}

set PROPERTIES_ORIGIN ["COM"]
properties('MP2/aug-cc-pvtz', properties = ['dipole'])
--------------------------------------------------------------------------

    Molecular point group: c1
  Charge       = 0
  Multiplicity = 1
  Basis Set: AUG-CC-PVTZ
    Blend: AUG-CC-PVTZ
  Basis Set: (AUG-CC-PVTZ AUX)
    Blend: AUG-CC-PVTZ-JKFIT

    Orbital Energies [Eh]
    ---------------------

    Doubly Occupied:

       1A    -20.606817     2A    -20.606745     3A    -15.844630
       4A    -11.307266     5A    -11.261834     6A    -11.228958
       7A    -11.228941     8A     -1.576360     9A     -1.376020
      10A     -1.147492    11A     -1.037577    12A     -0.948951
      13A     -0.883789    14A     -0.802128    15A     -0.741741
      16A     -0.725122    17A     -0.702505    18A     -0.638019
      19A     -0.624793    20A     -0.607765    21A     -0.558037
      22A     -0.545922    23A     -0.522001    24A     -0.500863
      25A     -0.500398    26A     -0.483913    27A     -0.469445
      28A     -0.444800

  @DF-RHF Final Energy:  -360.88360172425865

   => Energetics <=

    Nuclear Repulsion Energy =            329.2321219847803491
    One-Electron Energy =               -1144.3857831478471780
    Two-Electron Energy =                 454.2700594388081186
    Total Energy =                       -360.8836017242586536
  Basis Set: (AUG-CC-PVTZ AUX)
    Blend: AUG-CC-PVTZ-RI
    Molecular point group: c1

    Geometry (in Angstrom), charge = 0, multiplicity = 1:

       Center              X                  Y                   Z               Mass
    ------------   -----------------  -----------------  -----------------  -----------------
         O            1.541939719690     1.103977595293    -0.331709192857    15.994914619570
         O            1.540244719690    -1.105113404707    -0.332867192857    15.994914619570
         N            1.031065719690    -0.000400204707    -0.025769392857    14.003074004430
         C           -1.315019280310     0.000623595293     0.450166807143    12.000000000000
         C            0.067909719690    -0.000216404707     1.109655807143    12.000000000000
         C           -1.558413280310    -1.263726404707    -0.372308192857    12.000000000000
         C           -1.556259280310     1.264931595293    -0.373009192857    12.000000000000
         H           -2.017750280310     0.001459595293     1.295128807143     1.007825032230
         H            0.226285719690     0.898055595293     1.709450807143     1.007825032230
         H            0.225435719690    -0.898808404707     1.709227807143     1.007825032230
         H           -0.892441280310    -1.305521404707    -1.238026192857     1.007825032230
         H           -2.589864280310    -1.278256404707    -0.736052192857     1.007825032230
         H           -1.392490280310    -2.167026404707     0.222161807143     1.007825032230
         H           -1.388950280310     2.168308595293     0.220955807143     1.007825032230
         H           -0.890107280310     1.305190595293    -1.238686192857     1.007825032230
         H           -2.587617280310     1.280986595293    -0.736976192857     1.007825032230

  Basis Set: AUG-CC-PVTZ
    Blend: AUG-CC-PVTZ
  Basis Set: (AUG-CC-PVTZ AUX)
    Blend: AUG-CC-PVTZ-JKFIT
	 Reference Energy          =    -360.8836017242586536 [Eh]
	 Singles Energy            =      -0.0000000000000000 [Eh]
	 Same-Spin Energy          =      -0.3703174854364882 [Eh]
	 Opposite-Spin Energy      =      -1.1848714383037486 [Eh]
	 Correlation Energy        =      -1.5551889237402368 [Eh]
	 Total Energy              =    -362.4387906479988715 [Eh]

	 ================> DF-SCS-MP2 Energies <==================
	-----------------------------------------------------------
	 SCS Same-Spin Scale       =       0.3333333333333333 [-]
	 SCS Opposite-Spin Scale   =       1.2000000000000000 [-]
	 SCS Same-Spin Energy      =      -0.1234391618121627 [Eh]
	 SCS Opposite-Spin Energy  =      -1.4218457259644983 [Eh]
	 SCS Correlation Energy    =      -1.5452848877766610 [Eh]
	 SCS Total Energy          =    -362.4288866120353418 [Eh]
	-----------------------------------------------------------

  Dipole Moment: [D]
     X:    -2.9821      Y:     0.0008      Z:     2.1694     Total:     3.6877

*** Psi4 exiting successfully. Buy a developer a beer!
