                               Psi4 1.3.2 release

  ==> Input File <==

--------------------------------------------------------------------------
#psi4
#
memory 32 gb

molecule  {
0 1
  O        1.7055288     1.0379962    -0.4368211
  O        1.6261270    -1.1051420    -0.3568940
  N        1.2303560    -0.0005110     0.0571010
  C       -1.2291370     0.0005950     0.4261400
  C        0.1537920    -0.0002450     1.0856290
  C       -1.4725310    -1.2637550    -0.3963350
  C       -1.4703770     1.2649030    -0.3970360
  H       -1.9318680     0.0014310     1.2711020
  H        0.3121680     0.8980270     1.6854240
  H        0.3113180    -0.8988370     1.6852010
  H       -0.8065590    -1.3055500    -1.2620530
  H       -2.5039820    -1.2782850    -0.7600790
  H       -1.3066080    -2.1670550     0.1981350
  H       -1.3030680     2.1682800     0.1969290
  H       -0.8042250     1.3051620    -1.2627130
  H       -2.5017350     1.2809580    -0.7610030
units angstrom
no_reorient  #important for SAPT in psi4, default
symmetry c1  #important for SAPT in psi4, default
}

set PROPERTIES_ORIGIN ["COM"]
properties('MP2/aug-cc-pvtz', properties = ['dipole'])
--------------------------------------------------------------------------

    Molecular point group: c1
  Charge       = 0
  Multiplicity = 1
  Basis Set: AUG-CC-PVTZ
    Blend: AUG-CC-PVTZ
  Basis Set: (AUG-CC-PVTZ AUX)
    Blend: AUG-CC-PVTZ-JKFIT

    Orbital Energies [Eh]
    ---------------------

    Doubly Occupied:

       1A    -20.600874     2A    -20.598134     3A    -15.842942
       4A    -11.311822     5A    -11.267062     6A    -11.230079
       7A    -11.229225     8A     -1.584466     9A     -1.371725
      10A     -1.148699    11A     -1.045548    12A     -0.949471
      13A     -0.881978    14A     -0.802540    15A     -0.738437
      16A     -0.724148    17A     -0.705174    18A     -0.638573
      19A     -0.630034    20A     -0.609835    21A     -0.557905
      22A     -0.545961    23A     -0.519855    24A     -0.502589
      25A     -0.498668    26A     -0.479401    27A     -0.477671
      28A     -0.441207

  @DF-RHF Final Energy:  -360.89687265795334

   => Energetics <=

    Nuclear Repulsion Energy =            327.9849290692531554
    One-Electron Energy =               -1141.8955550969799333
    Two-Electron Energy =                 453.0137533697733829
    Total Energy =                       -360.8968726579533381
  Basis Set: (AUG-CC-PVTZ AUX)
    Blend: AUG-CC-PVTZ-RI
    Molecular point group: c1

    Geometry (in Angstrom), charge = 0, multiplicity = 1:

       Center              X                  Y                   Z               Mass
    ------------   -----------------  -----------------  -----------------  -----------------
         O            1.592178221428     1.048271509353    -0.414734266599    15.994914619570
         O            1.512776421428    -1.094866690647    -0.334807166599    15.994914619570
         N            1.117005421428     0.009764309353     0.079187833401    14.003074004430
         C           -1.342487578572     0.010870309353     0.448226833401    12.000000000000
         C            0.040441421428     0.010030309353     1.107715833401    12.000000000000
         C           -1.585881578572    -1.253479690647    -0.374248166599    12.000000000000
         C           -1.583727578572     1.275178309353    -0.374949166599    12.000000000000
         H           -2.045218578572     0.011706309353     1.293188833401     1.007825032230
         H            0.198817421428     0.908302309353     1.707510833401     1.007825032230
         H            0.197967421428    -0.888561690647     1.707287833401     1.007825032230
         H           -0.919909578572    -1.295274690647    -1.239966166599     1.007825032230
         H           -2.617332578572    -1.268009690647    -0.737992166599     1.007825032230
         H           -1.419958578572    -2.156779690647     0.220221833401     1.007825032230
         H           -1.416418578572     2.178555309353     0.219015833401     1.007825032230
         H           -0.917575578572     1.315437309353    -1.240626166599     1.007825032230
         H           -2.615085578572     1.291233309353    -0.738916166599     1.007825032230

  Basis Set: AUG-CC-PVTZ
    Blend: AUG-CC-PVTZ
  Basis Set: (AUG-CC-PVTZ AUX)
    Blend: AUG-CC-PVTZ-JKFIT
	 Reference Energy          =    -360.8968726579533381 [Eh]
	 Singles Energy            =      -0.0000000000000000 [Eh]
	 Same-Spin Energy          =      -0.3686001071608492 [Eh]
	 Opposite-Spin Energy      =      -1.1808005545296310 [Eh]
	 Correlation Energy        =      -1.5494006616904801 [Eh]
	 Total Energy              =    -362.4462733196438080 [Eh]

	 ================> DF-SCS-MP2 Energies <==================
	-----------------------------------------------------------
	 SCS Same-Spin Scale       =       0.3333333333333333 [-]
	 SCS Opposite-Spin Scale   =       1.2000000000000000 [-]
	 SCS Same-Spin Energy      =      -0.1228667023869497 [Eh]
	 SCS Opposite-Spin Energy  =      -1.4169606654355571 [Eh]
	 SCS Correlation Energy    =      -1.5398273678225070 [Eh]
	 SCS Total Energy          =    -362.4367000257758491 [Eh]
	-----------------------------------------------------------

  Dipole Moment: [D]
     X:    -3.1961      Y:     0.0755      Z:     2.3225     Total:     3.9516

*** Psi4 exiting successfully. Buy a developer a beer!
