                               Psi4 1.3.2 release

  ==> Input File <==

--------------------------------------------------------------------------
#psi4
#
memory 32 gb

molecule  {
0 1
  O        1.6557556     1.0832983    -0.3818045
  O        1.6261270    -1.1051420    -0.3568940
  N        1.2303560    -0.0005110     0.0571010
  C       -1.2291370     0.0005950     0.4261400
  C        0.1537920    -0.0002450     1.0856290
  C       -1.4725310    -1.2637550    -0.3963350
  C       -1.4703770     1.2649030    -0.3970360
  H       -1.9318680     0.0014310     1.2711020
  H        0.3121680     0.8980270     1.6854240
  H        0.3113180    -0.8988370     1.6852010
  H       -0.8065590    -1.3055500    -1.2620530
  H       -2.5039820    -1.2782850    -0.7600790
  H       -1.3066080    -2.1670550     0.1981350
  H       -1.3030680     2.1682800     0.1969290
  H       -0.8042250     1.3051620    -1.2627130
  H       -2.5017350     1.2809580    -0.7610030
units angstrom
no_reorient  #important for SAPT in psi4, default
symmetry c1  #important for SAPT in psi4, default
}

set PROPERTIES_ORIGIN ["COM"]
properties('MP2/aug-cc-pvtz', properties = ['dipole'])
--------------------------------------------------------------------------

    Molecular point group: c1
  Charge       = 0
  Multiplicity = 1
  Basis Set: AUG-CC-PVTZ
    Blend: AUG-CC-PVTZ
  Basis Set: (AUG-CC-PVTZ AUX)
    Blend: AUG-CC-PVTZ-JKFIT

    Orbital Energies [Eh]
    ---------------------

    Doubly Occupied:

       1A    -20.604415     2A    -20.603438     3A    -15.844842
       4A    -11.307935     5A    -11.265451     6A    -11.228872
       7A    -11.228577     8A     -1.584203     9A     -1.380647
      10A     -1.145527    11A     -1.043089    12A     -0.948490
      13A     -0.881445    14A     -0.803624    15A     -0.738374
      16A     -0.727176    17A     -0.705377    18A     -0.638186
      19A     -0.629268    20A     -0.608637    21A     -0.557578
      22A     -0.545013    23A     -0.517936    24A     -0.500997
      25A     -0.499885    26A     -0.483063    27A     -0.476226
      28A     -0.446004

  @DF-RHF Final Energy:  -360.89938185759843

   => Energetics <=

    Nuclear Repulsion Energy =            328.2854805316123361
    One-Electron Energy =               -1142.4811768852609930
    Two-Electron Energy =                 453.2963144960501722
    Total Energy =                       -360.8993818575984278
  Basis Set: (AUG-CC-PVTZ AUX)
    Blend: AUG-CC-PVTZ-RI
    Molecular point group: c1

    Geometry (in Angstrom), charge = 0, multiplicity = 1:

       Center              X                  Y                   Z               Mass
    ------------   -----------------  -----------------  -----------------  -----------------
         O            1.550129573852     1.086542949351    -0.368255968555    15.994914619570
         O            1.520500973852    -1.101897350649    -0.343345468555    15.994914619570
         N            1.124729973852     0.002733649351     0.070649531445    14.003074004430
         C           -1.334763026148     0.003839649351     0.439688531445    12.000000000000
         C            0.048165973852     0.002999649351     1.099177531445    12.000000000000
         C           -1.578157026148    -1.260510350649    -0.382786468555    12.000000000000
         C           -1.576003026148     1.268147649351    -0.383487468555    12.000000000000
         H           -2.037494026148     0.004675649351     1.284650531445     1.007825032230
         H            0.206541973852     0.901271649351     1.698972531445     1.007825032230
         H            0.205691973852    -0.895592350649     1.698749531445     1.007825032230
         H           -0.912185026148    -1.302305350649    -1.248504468555     1.007825032230
         H           -2.609608026148    -1.275040350649    -0.746530468555     1.007825032230
         H           -1.412234026148    -2.163810350649     0.211683531445     1.007825032230
         H           -1.408694026148     2.171524649351     0.210477531445     1.007825032230
         H           -0.909851026148     1.308406649351    -1.249164468555     1.007825032230
         H           -2.607361026148     1.284202649351    -0.747454468555     1.007825032230

  Basis Set: AUG-CC-PVTZ
    Blend: AUG-CC-PVTZ
  Basis Set: (AUG-CC-PVTZ AUX)
    Blend: AUG-CC-PVTZ-JKFIT
	 Reference Energy          =    -360.8993818575984278 [Eh]
	 Singles Energy            =      -0.0000000000000000 [Eh]
	 Same-Spin Energy          =      -0.3687807017910074 [Eh]
	 Opposite-Spin Energy      =      -1.1810410947703127 [Eh]
	 Correlation Energy        =      -1.5498217965613201 [Eh]
	 Total Energy              =    -362.4492036541597599 [Eh]

	 ================> DF-SCS-MP2 Energies <==================
	-----------------------------------------------------------
	 SCS Same-Spin Scale       =       0.3333333333333333 [-]
	 SCS Opposite-Spin Scale   =       1.2000000000000000 [-]
	 SCS Same-Spin Energy      =      -0.1229269005970025 [Eh]
	 SCS Opposite-Spin Energy  =      -1.4172493137243751 [Eh]
	 SCS Correlation Energy    =      -1.5401762143213775 [Eh]
	 SCS Total Energy          =    -362.4395580719198051 [Eh]
	-----------------------------------------------------------

  Dipole Moment: [D]
     X:    -3.0618      Y:     0.0236      Z:     2.2198     Total:     3.7819

*** Psi4 exiting successfully. Buy a developer a beer!
