                               Psi4 1.3.2 release

  ==> Input File <==

--------------------------------------------------------------------------
#psi4
#
memory 32 gb

molecule  {
0 1
  O        1.6542512     1.0832762    -0.3833119
  O        1.6261270    -1.1051420    -0.3568940
  N        1.2303560    -0.0005110     0.0571010
  C       -1.2291370     0.0005950     0.4261400
  C        0.1537920    -0.0002450     1.0856290
  C       -1.4725310    -1.2637550    -0.3963350
  C       -1.4703770     1.2649030    -0.3970360
  H       -1.9318680     0.0014310     1.2711020
  H        0.3121680     0.8980270     1.6854240
  H        0.3113180    -0.8988370     1.6852010
  H       -0.8065590    -1.3055500    -1.2620530
  H       -2.5039820    -1.2782850    -0.7600790
  H       -1.3066080    -2.1670550     0.1981350
  H       -1.3030680     2.1682800     0.1969290
  H       -0.8042250     1.3051620    -1.2627130
  H       -2.5017350     1.2809580    -0.7610030
units angstrom
no_reorient  #important for SAPT in psi4, default
symmetry c1  #important for SAPT in psi4, default
}

set PROPERTIES_ORIGIN ["COM"]
properties('MP2/aug-cc-pvtz', properties = ['dipole'])
--------------------------------------------------------------------------

    Molecular point group: c1
  Charge       = 0
  Multiplicity = 1
  Basis Set: AUG-CC-PVTZ
    Blend: AUG-CC-PVTZ
  Basis Set: (AUG-CC-PVTZ AUX)
    Blend: AUG-CC-PVTZ-JKFIT

    Orbital Energies [Eh]
    ---------------------

    Doubly Occupied:

       1A    -20.604408     2A    -20.603442     3A    -15.844839
       4A    -11.307940     5A    -11.265452     6A    -11.228846
       7A    -11.228574     8A     -1.584206     9A     -1.380644
      10A     -1.145520    11A     -1.043091    12A     -0.948477
      13A     -0.881436    14A     -0.803624    15A     -0.738367
      16A     -0.727177    17A     -0.705390    18A     -0.638181
      19A     -0.629245    20A     -0.608631    21A     -0.557571
      22A     -0.545001    23A     -0.517918    24A     -0.500994
      25A     -0.499875    26A     -0.483060    27A     -0.476235
      28A     -0.445998

  @DF-RHF Final Energy:  -360.89937242852096

   => Energetics <=

    Nuclear Repulsion Energy =            328.2968865893772659
    One-Electron Energy =               -1142.5042388009212573
    Two-Electron Energy =                 453.3079797830230859
    Total Energy =                       -360.8993724285209623
  Basis Set: (AUG-CC-PVTZ AUX)
    Blend: AUG-CC-PVTZ-RI
    Molecular point group: c1

    Geometry (in Angstrom), charge = 0, multiplicity = 1:

       Center              X                  Y                   Z               Mass
    ------------   -----------------  -----------------  -----------------  -----------------
         O            1.548858649230     1.086524279161    -0.369529427592    15.994914619570
         O            1.520734449230    -1.101893920839    -0.343111527592    15.994914619570
         N            1.124963449230     0.002737079161     0.070883472408    14.003074004430
         C           -1.334529550770     0.003843079161     0.439922472408    12.000000000000
         C            0.048399449230     0.003003079161     1.099411472408    12.000000000000
         C           -1.577923550770    -1.260506920839    -0.382552527592    12.000000000000
         C           -1.575769550770     1.268151079161    -0.383253527592    12.000000000000
         H           -2.037260550770     0.004679079161     1.284884472408     1.007825032230
         H            0.206775449230     0.901275079161     1.699206472408     1.007825032230
         H            0.205925449230    -0.895588920839     1.698983472408     1.007825032230
         H           -0.911951550770    -1.302301920839    -1.248270527592     1.007825032230
         H           -2.609374550770    -1.275036920839    -0.746296527592     1.007825032230
         H           -1.412000550770    -2.163806920839     0.211917472408     1.007825032230
         H           -1.408460550770     2.171528079161     0.210711472408     1.007825032230
         H           -0.909617550770     1.308410079161    -1.248930527592     1.007825032230
         H           -2.607127550770     1.284206079161    -0.747220527592     1.007825032230

  Basis Set: AUG-CC-PVTZ
    Blend: AUG-CC-PVTZ
  Basis Set: (AUG-CC-PVTZ AUX)
    Blend: AUG-CC-PVTZ-JKFIT
	 Reference Energy          =    -360.8993724285209623 [Eh]
	 Singles Energy            =      -0.0000000000000000 [Eh]
	 Same-Spin Energy          =      -0.3687848925516440 [Eh]
	 Opposite-Spin Energy      =      -1.1810463260203425 [Eh]
	 Correlation Energy        =      -1.5498312185719865 [Eh]
	 Total Energy              =    -362.4492036470929293 [Eh]

	 ================> DF-SCS-MP2 Energies <==================
	-----------------------------------------------------------
	 SCS Same-Spin Scale       =       0.3333333333333333 [-]
	 SCS Opposite-Spin Scale   =       1.2000000000000000 [-]
	 SCS Same-Spin Energy      =      -0.1229282975172147 [Eh]
	 SCS Opposite-Spin Energy  =      -1.4172555912244109 [Eh]
	 SCS Correlation Energy    =      -1.5401838887416255 [Eh]
	 SCS Total Energy          =    -362.4395563172625998 [Eh]
	-----------------------------------------------------------

  Dipole Moment: [D]
     X:    -3.0604      Y:     0.0237      Z:     2.2212     Total:     3.7816

*** Psi4 exiting successfully. Buy a developer a beer!
