                               Psi4 1.3.2 release

  ==> Input File <==

--------------------------------------------------------------------------
#psi4
#
memory 32 gb

molecule  {
0 1
  O        1.6831709     1.0613272    -0.4073382
  O        1.6261270    -1.1051420    -0.3568940
  N        1.2303560    -0.0005110     0.0571010
  C       -1.2291370     0.0005950     0.4261400
  C        0.1537920    -0.0002450     1.0856290
  C       -1.4725310    -1.2637550    -0.3963350
  C       -1.4703770     1.2649030    -0.3970360
  H       -1.9318680     0.0014310     1.2711020
  H        0.3121680     0.8980270     1.6854240
  H        0.3113180    -0.8988370     1.6852010
  H       -0.8065590    -1.3055500    -1.2620530
  H       -2.5039820    -1.2782850    -0.7600790
  H       -1.3066080    -2.1670550     0.1981350
  H       -1.3030680     2.1682800     0.1969290
  H       -0.8042250     1.3051620    -1.2627130
  H       -2.5017350     1.2809580    -0.7610030
units angstrom
no_reorient  #important for SAPT in psi4, default
symmetry c1  #important for SAPT in psi4, default
}

set PROPERTIES_ORIGIN ["COM"]
properties('MP2/aug-cc-pvtz', properties = ['dipole'])
--------------------------------------------------------------------------

    Molecular point group: c1
  Charge       = 0
  Multiplicity = 1
  Basis Set: AUG-CC-PVTZ
    Blend: AUG-CC-PVTZ
  Basis Set: (AUG-CC-PVTZ AUX)
    Blend: AUG-CC-PVTZ-JKFIT

    Orbital Energies [Eh]
    ---------------------

    Doubly Occupied:

       1A    -20.602711     2A    -20.600809     3A    -15.843932
       4A    -11.309887     5A    -11.266266     6A    -11.229515
       7A    -11.228914     8A     -1.584286     9A     -1.376261
      10A     -1.147144    11A     -1.044335    12A     -0.949004
      13A     -0.881704    14A     -0.803087    15A     -0.738423
      16A     -0.725690    17A     -0.705272    18A     -0.638389
      19A     -0.629696    20A     -0.609255    21A     -0.557741
      22A     -0.545494    23A     -0.518932    24A     -0.501806
      25A     -0.499118    26A     -0.480946    27A     -0.477596
      28A     -0.443658

  @DF-RHF Final Energy:  -360.89855112131505

   => Energetics <=

    Nuclear Repulsion Energy =            328.1081546301185199
    One-Electron Energy =               -1142.1336702942141983
    Two-Electron Energy =                 453.1269645427806267
    Total Energy =                       -360.8985511213150517
  Basis Set: (AUG-CC-PVTZ AUX)
    Blend: AUG-CC-PVTZ-RI
    Molecular point group: c1

    Geometry (in Angstrom), charge = 0, multiplicity = 1:

       Center              X                  Y                   Z               Mass
    ------------   -----------------  -----------------  -----------------  -----------------
         O            1.573290156010     1.067981654503    -0.389826965650    15.994914619570
         O            1.516246256010    -1.098487545497    -0.339382765650    15.994914619570
         N            1.120475256010     0.006143454503     0.074612234350    14.003074004430
         C           -1.339017743990     0.007249454503     0.443651234350    12.000000000000
         C            0.043911256010     0.006409454503     1.103140234350    12.000000000000
         C           -1.582411743990    -1.257100545497    -0.378823765650    12.000000000000
         C           -1.580257743990     1.271557454503    -0.379524765650    12.000000000000
         H           -2.041748743990     0.008085454503     1.288613234350     1.007825032230
         H            0.202287256010     0.904681454503     1.702935234350     1.007825032230
         H            0.201437256010    -0.892182545497     1.702712234350     1.007825032230
         H           -0.916439743990    -1.298895545497    -1.244541765650     1.007825032230
         H           -2.613862743990    -1.271630545497    -0.742567765650     1.007825032230
         H           -1.416488743990    -2.160400545497     0.215646234350     1.007825032230
         H           -1.412948743990     2.174934454503     0.214440234350     1.007825032230
         H           -0.914105743990     1.311816454503    -1.245201765650     1.007825032230
         H           -2.611615743990     1.287612454503    -0.743491765650     1.007825032230

  Basis Set: AUG-CC-PVTZ
    Blend: AUG-CC-PVTZ
  Basis Set: (AUG-CC-PVTZ AUX)
    Blend: AUG-CC-PVTZ-JKFIT
	 Reference Energy          =    -360.8985511213150517 [Eh]
	 Singles Energy            =      -0.0000000000000000 [Eh]
	 Same-Spin Energy          =      -0.3686755998784422 [Eh]
	 Opposite-Spin Energy      =      -1.1808929746512522 [Eh]
	 Correlation Energy        =      -1.5495685745296943 [Eh]
	 Total Energy              =    -362.4481196958447526 [Eh]

	 ================> DF-SCS-MP2 Energies <==================
	-----------------------------------------------------------
	 SCS Same-Spin Scale       =       0.3333333333333333 [-]
	 SCS Opposite-Spin Scale   =       1.2000000000000000 [-]
	 SCS Same-Spin Energy      =      -0.1228918666261474 [Eh]
	 SCS Opposite-Spin Energy  =      -1.4170715695815026 [Eh]
	 SCS Correlation Energy    =      -1.5399634362076500 [Eh]
	 SCS Total Energy          =    -362.4385145575226943 [Eh]
	-----------------------------------------------------------

  Dipole Moment: [D]
     X:    -3.1317      Y:     0.0483      Z:     2.2696     Total:     3.8680

*** Psi4 exiting successfully. Buy a developer a beer!
