                               Psi4 1.3.2 release

  ==> Input File <==

--------------------------------------------------------------------------
#psi4
#
memory 32 gb

molecule  {
0 1
  O        1.6278220     1.1039490    -0.3557360
  O        1.6261270    -1.1051420    -0.3568940
  N        1.2942426     0.1770142    -0.0092563
  C       -1.2291370     0.0005950     0.4261400
  C        0.1537920    -0.0002450     1.0856290
  C       -1.4725310    -1.2637550    -0.3963350
  C       -1.4703770     1.2649030    -0.3970360
  H       -1.9318680     0.0014310     1.2711020
  H        0.3121680     0.8980270     1.6854240
  H        0.3113180    -0.8988370     1.6852010
  H       -0.8065590    -1.3055500    -1.2620530
  H       -2.5039820    -1.2782850    -0.7600790
  H       -1.3066080    -2.1670550     0.1981350
  H       -1.3030680     2.1682800     0.1969290
  H       -0.8042250     1.3051620    -1.2627130
  H       -2.5017350     1.2809580    -0.7610030
units angstrom
no_reorient  #important for SAPT in psi4, default
symmetry c1  #important for SAPT in psi4, default
}

set PROPERTIES_ORIGIN ["COM"]
properties('MP2/aug-cc-pvtz', properties = ['dipole'])
--------------------------------------------------------------------------

    Molecular point group: c1
  Charge       = 0
  Multiplicity = 1
  Basis Set: AUG-CC-PVTZ
    Blend: AUG-CC-PVTZ
  Basis Set: (AUG-CC-PVTZ AUX)
    Blend: AUG-CC-PVTZ-JKFIT

    Orbital Energies [Eh]
    ---------------------

    Doubly Occupied:

       1A    -20.669428     2A    -20.542059     3A    -15.834540
       4A    -11.300399     5A    -11.259767     6A    -11.232076
       7A    -11.220259     8A     -1.743130     9A     -1.333521
      10A     -1.125357    11A     -1.018266    12A     -0.945850
      13A     -0.888636    14A     -0.832651    15A     -0.783467
      16A     -0.761207    17A     -0.736295    18A     -0.641651
      19A     -0.637219    20A     -0.609138    21A     -0.554783
      22A     -0.541922    23A     -0.506461    24A     -0.499164
      25A     -0.492625    26A     -0.469167    27A     -0.438236
      28A     -0.424385

  @DF-RHF Final Energy:  -360.83828010849078

   => Energetics <=

    Nuclear Repulsion Energy =            329.1526045234959383
    One-Electron Energy =               -1143.8984466725362381
    Two-Electron Energy =                 453.9075620405495215
    Total Energy =                       -360.8382801084907783
  Basis Set: (AUG-CC-PVTZ AUX)
    Blend: AUG-CC-PVTZ-RI
    Molecular point group: c1

    Geometry (in Angstrom), charge = 0, multiplicity = 1:

       Center              X                  Y                   Z               Mass
    ------------   -----------------  -----------------  -----------------  -----------------
         O            1.517850943985     1.079868656683    -0.337217293827    15.994914619570
         O            1.516155943985    -1.129222343317    -0.338375293827    15.994914619570
         N            1.184271543985     0.152933856683     0.009262406173    14.003074004430
         C           -1.339108056015    -0.023485343317     0.444658706173    12.000000000000
         C            0.043820943985    -0.024325343317     1.104147706173    12.000000000000
         C           -1.582502056015    -1.287835343317    -0.377816293827    12.000000000000
         C           -1.580348056015     1.240822656683    -0.378517293827    12.000000000000
         H           -2.041839056015    -0.022649343317     1.289620706173     1.007825032230
         H            0.202196943985     0.873946656683     1.703942706173     1.007825032230
         H            0.201346943985    -0.922917343317     1.703719706173     1.007825032230
         H           -0.916530056015    -1.329630343317    -1.243534293827     1.007825032230
         H           -2.613953056015    -1.302365343317    -0.741560293827     1.007825032230
         H           -1.416579056015    -2.191135343317     0.216653706173     1.007825032230
         H           -1.413039056015     2.144199656683     0.215447706173     1.007825032230
         H           -0.914196056015     1.281081656683    -1.244194293827     1.007825032230
         H           -2.611706056015     1.256877656683    -0.742484293827     1.007825032230

  Basis Set: AUG-CC-PVTZ
    Blend: AUG-CC-PVTZ
  Basis Set: (AUG-CC-PVTZ AUX)
    Blend: AUG-CC-PVTZ-JKFIT
	 Reference Energy          =    -360.8382801084907783 [Eh]
	 Singles Energy            =      -0.0000000000000000 [Eh]
	 Same-Spin Energy          =      -0.3626756006135540 [Eh]
	 Opposite-Spin Energy      =      -1.1680471363190614 [Eh]
	 Correlation Energy        =      -1.5307227369326153 [Eh]
	 Total Energy              =    -362.3690028454233811 [Eh]

	 ================> DF-SCS-MP2 Energies <==================
	-----------------------------------------------------------
	 SCS Same-Spin Scale       =       0.3333333333333333 [-]
	 SCS Opposite-Spin Scale   =       1.2000000000000000 [-]
	 SCS Same-Spin Energy      =      -0.1208918668711847 [Eh]
	 SCS Opposite-Spin Energy  =      -1.4016565635828737 [Eh]
	 SCS Correlation Energy    =      -1.5225484304540584 [Eh]
	 SCS Total Energy          =    -362.3608285389448156 [Eh]
	-----------------------------------------------------------

  Dipole Moment: [D]
     X:    -2.7391      Y:     1.5309      Z:     1.9776     Total:     3.7091

*** Psi4 exiting successfully. Buy a developer a beer!
