                               Psi4 1.3.2 release

  ==> Input File <==

--------------------------------------------------------------------------
#psi4
#
memory 32 gb

molecule  {
0 1
  O        1.6136715     1.1137712    -0.3425111
  O        1.6261270    -1.1051420    -0.3568940
  N        1.2303560    -0.0005110     0.0571010
  C       -1.2291370     0.0005950     0.4261400
  C        0.1537920    -0.0002450     1.0856290
  C       -1.4725310    -1.2637550    -0.3963350
  C       -1.4703770     1.2649030    -0.3970360
  H       -1.9318680     0.0014310     1.2711020
  H        0.3121680     0.8980270     1.6854240
  H        0.3113180    -0.8988370     1.6852010
  H       -0.8065590    -1.3055500    -1.2620530
  H       -2.5039820    -1.2782850    -0.7600790
  H       -1.3066080    -2.1670550     0.1981350
  H       -1.3030680     2.1682800     0.1969290
  H       -0.8042250     1.3051620    -1.2627130
  H       -2.5017350     1.2809580    -0.7610030
units angstrom
no_reorient  #important for SAPT in psi4, default
symmetry c1  #important for SAPT in psi4, default
}

set PROPERTIES_ORIGIN ["COM"]
properties('MP2/aug-cc-pvtz', properties = ['dipole'])
--------------------------------------------------------------------------

    Molecular point group: c1
  Charge       = 0
  Multiplicity = 1
  Basis Set: AUG-CC-PVTZ
    Blend: AUG-CC-PVTZ
  Basis Set: (AUG-CC-PVTZ AUX)
    Blend: AUG-CC-PVTZ-JKFIT

    Orbital Energies [Eh]
    ---------------------

    Doubly Occupied:

       1A    -20.607275     2A    -20.606765     3A    -15.846071
       4A    -11.304962     5A    -11.264194     6A    -11.228044
       7A    -11.227909     8A     -1.584229     9A     -1.386974
      10A     -1.143026    11A     -1.041152    12A     -0.947707
      13A     -0.881140    14A     -0.804411    15A     -0.738290
      16A     -0.729283    17A     -0.705459    18A     -0.637912
      19A     -0.628590    20A     -0.607673    21A     -0.557384
      22A     -0.544347    23A     -0.516383    24A     -0.501705
      25A     -0.499751    26A     -0.485034    27A     -0.473962
      28A     -0.449350

  @DF-RHF Final Energy:  -360.89910795148353

   => Energetics <=

    Nuclear Repulsion Energy =            328.5910669099442316
    One-Electron Energy =               -1143.0823880692321382
    Two-Electron Energy =                 453.5922132078044342
    Total Energy =                       -360.8991079514835292
  Basis Set: (AUG-CC-PVTZ AUX)
    Blend: AUG-CC-PVTZ-RI
    Molecular point group: c1

    Geometry (in Angstrom), charge = 0, multiplicity = 1:

       Center              X                  Y                   Z               Mass
    ------------   -----------------  -----------------  -----------------  -----------------
         O            1.514576716302     1.112286607237    -0.335060708282    15.994914619570
         O            1.527032216302    -1.106626592763    -0.349443608282    15.994914619570
         N            1.131261216302    -0.001995592763     0.064551391718    14.003074004430
         C           -1.328231783698    -0.000889592763     0.433590391718    12.000000000000
         C            0.054697216302    -0.001729592763     1.093079391718    12.000000000000
         C           -1.571625783698    -1.265239592763    -0.388884608282    12.000000000000
         C           -1.569471783698     1.263418407237    -0.389585608282    12.000000000000
         H           -2.030962783698    -0.000053592763     1.278552391718     1.007825032230
         H            0.213073216302     0.896542407237     1.692874391718     1.007825032230
         H            0.212223216302    -0.900321592763     1.692651391718     1.007825032230
         H           -0.905653783698    -1.307034592763    -1.254602608282     1.007825032230
         H           -2.603076783698    -1.279769592763    -0.752628608282     1.007825032230
         H           -1.405702783698    -2.168539592763     0.205585391718     1.007825032230
         H           -1.402162783698     2.166795407237     0.204379391718     1.007825032230
         H           -0.903319783698     1.303677407237    -1.255262608282     1.007825032230
         H           -2.600829783698     1.279473407237    -0.753552608282     1.007825032230

  Basis Set: AUG-CC-PVTZ
    Blend: AUG-CC-PVTZ
  Basis Set: (AUG-CC-PVTZ AUX)
    Blend: AUG-CC-PVTZ-JKFIT
	 Reference Energy          =    -360.8991079514835292 [Eh]
	 Singles Energy            =      -0.0000000000000000 [Eh]
	 Same-Spin Energy          =      -0.3689730355915210 [Eh]
	 Opposite-Spin Energy      =      -1.1813412757895438 [Eh]
	 Correlation Energy        =      -1.5503143113810649 [Eh]
	 Total Energy              =    -362.4494222628645730 [Eh]

	 ================> DF-SCS-MP2 Energies <==================
	-----------------------------------------------------------
	 SCS Same-Spin Scale       =       0.3333333333333333 [-]
	 SCS Opposite-Spin Scale   =       1.2000000000000000 [-]
	 SCS Same-Spin Energy      =      -0.1229910118638403 [Eh]
	 SCS Opposite-Spin Energy  =      -1.4176095309474526 [Eh]
	 SCS Correlation Energy    =      -1.5406005428112930 [Eh]
	 SCS Total Energy          =    -362.4397084942948482 [Eh]
	-----------------------------------------------------------

  Dipole Moment: [D]
     X:    -2.9549      Y:    -0.0094      Z:     2.1431     Total:     3.6503

*** Psi4 exiting successfully. Buy a developer a beer!
