                               Psi4 1.4a3.dev225

  ==> Input File <==

--------------------------------------------------------------------------
#psi4
#
memory 32 gb

molecule  {
0 1
  O        1.6269320     1.1045440    -0.3563700
  O        1.6269410    -1.1045380    -0.3563700
  N        1.2303420     0.0000010     0.0570950
  C       -1.2290370    -0.0000020     0.4263420
  C        0.1176735    -0.0000021     1.1203119
  C       -1.4714760    -1.2642140    -0.3967350
  C       -1.4714800     1.2642120    -0.3967320
  H       -1.9318800    -0.0000060     1.2712410
  H        0.3118450     0.8984460     1.6853920
  H        0.3118480    -0.8984510     1.6853890
  H       -0.8055150    -1.3049070    -1.2625520
  H       -2.5029200    -1.2793330    -0.7603930
  H       -1.3046420    -2.1677380     0.1971180
  H       -1.3046550     2.1677340     0.1971270
  H       -0.8055150     1.3049140    -1.2625460
  H       -2.5029220     1.2793270    -0.7603950
units angstrom
no_reorient  #important for SAPT in psi4, default
symmetry c1  #important for SAPT in psi4, default
}

set PROPERTIES_ORIGIN ["COM"]
properties('MP2/aug-cc-pvtz', properties = ['dipole'])
--------------------------------------------------------------------------

    Molecular point group: c1
  Charge       = 0
  Multiplicity = 1
  Basis Set: AUG-CC-PVTZ
    Blend: AUG-CC-PVTZ
  Basis Set: (AUG-CC-PVTZ AUX)
    Blend: AUG-CC-PVTZ-JKFIT

    Orbital Energies [Eh]
    ---------------------

    Doubly Occupied:

       1A    -20.603901     2A    -20.603851     3A    -15.841299
       4A    -11.308540     5A    -11.263674     6A    -11.228922
       7A    -11.228906     8A     -1.578570     9A     -1.381529
      10A     -1.141904    11A     -1.033576    12A     -0.948511
      13A     -0.882099    14A     -0.804315    15A     -0.734282
      16A     -0.724965    17A     -0.701360    18A     -0.645532
      19A     -0.628451    20A     -0.611191    21A     -0.557747
      22A     -0.546446    23A     -0.516203    24A     -0.506160
      25A     -0.500456    26A     -0.484928    27A     -0.466625
      28A     -0.446397

  @DF-RHF Final Energy:  -360.89764372538110

   => Energetics <=

    Nuclear Repulsion Energy =            327.8463328463237758
    One-Electron Energy =               -1141.6472733425155184
    Two-Electron Energy =                 452.9032967708106412
    Total Energy =                       -360.8976437253811014
  Basis Set: (AUG-CC-PVTZ AUX)
    Blend: AUG-CC-PVTZ-RI
    Molecular point group: c1

    Geometry (in Angstrom), charge = 0, multiplicity = 1:

       Center              X                  Y                   Z               Mass
    ------------   -----------------  -----------------  -----------------  -----------------
         O            1.529852181583     1.104543780106    -0.350894372728    15.994914619570
         O            1.529861181583    -1.104538219894    -0.350894372728    15.994914619570
         N            1.133262181583     0.000000780106     0.062570627272    14.003074004430
         C           -1.326116818417    -0.000002219894     0.431817627272    12.000000000000
         C            0.020593681583    -0.000002319894     1.125787527272    12.000000000000
         C           -1.568555818417    -1.264214219894    -0.391259372728    12.000000000000
         C           -1.568559818417     1.264211780106    -0.391256372728    12.000000000000
         H           -2.028959818417    -0.000006219894     1.276716627272     1.007825032230
         H            0.214765181583     0.898445780106     1.690867627272     1.007825032230
         H            0.214768181583    -0.898451219894     1.690864627272     1.007825032230
         H           -0.902594818417    -1.304907219894    -1.257076372728     1.007825032230
         H           -2.599999818417    -1.279333219894    -0.754917372728     1.007825032230
         H           -1.401721818417    -2.167738219894     0.202593627272     1.007825032230
         H           -1.401734818417     2.167733780106     0.202602627272     1.007825032230
         H           -0.902594818417     1.304913780106    -1.257070372728     1.007825032230
         H           -2.600001818417     1.279326780106    -0.754919372728     1.007825032230

  Basis Set: AUG-CC-PVTZ
    Blend: AUG-CC-PVTZ
  Basis Set: (AUG-CC-PVTZ AUX)
    Blend: AUG-CC-PVTZ-JKFIT
	 Reference Energy          =    -360.8976437253811014 [Eh]
	 Singles Energy            =      -0.0000000000000000 [Eh]
	 Same-Spin Energy          =      -0.3687728656426119 [Eh]
	 Opposite-Spin Energy      =      -1.1812339317735021 [Eh]
	 Correlation Energy        =      -1.5500067974161140 [Eh]
	 Total Energy              =    -362.4476505227972325 [Eh]

	 ================> DF-SCS-MP2 Energies <==================
	-----------------------------------------------------------
	 SCS Same-Spin Scale       =       0.3333333333333333 [-]
	 SCS Opposite-Spin Scale   =       1.2000000000000000 [-]
	 SCS Same-Spin Energy      =      -0.1229242885475373 [Eh]
	 SCS Opposite-Spin Energy  =      -1.4174807181282025 [Eh]
	 SCS Correlation Energy    =      -1.5404050066757398 [Eh]
	 SCS Total Energy          =    -362.4380487320568136 [Eh]
	-----------------------------------------------------------

  Dipole Moment: [D]
     X:    -3.0255      Y:    -0.0000      Z:     2.1935     Total:     3.7369

*** Psi4 exiting successfully. Buy a developer a beer!
