                               Psi4 1.3.2 release

  ==> Input File <==

--------------------------------------------------------------------------
#psi4
#
memory 32 gb

molecule  {
0 1
  O        1.6278220     1.1039490    -0.3557360
  O        1.6261270    -1.1051420    -0.3568940
  N        1.1938051    -0.0004839     0.0201560
  C       -1.2291370     0.0005950     0.4261400
  C        0.1537920    -0.0002450     1.0856290
  C       -1.4725310    -1.2637550    -0.3963350
  C       -1.4703770     1.2649030    -0.3970360
  H       -1.9318680     0.0014310     1.2711020
  H        0.3121680     0.8980270     1.6854240
  H        0.3113180    -0.8988370     1.6852010
  H       -0.8065590    -1.3055500    -1.2620530
  H       -2.5039820    -1.2782850    -0.7600790
  H       -1.3066080    -2.1670550     0.1981350
  H       -1.3030680     2.1682800     0.1969290
  H       -0.8042250     1.3051620    -1.2627130
  H       -2.5017350     1.2809580    -0.7610030
units angstrom
no_reorient  #important for SAPT in psi4, default
symmetry c1  #important for SAPT in psi4, default
}

set PROPERTIES_ORIGIN ["COM"]
properties('MP2/aug-cc-pvtz', properties = ['dipole'])
--------------------------------------------------------------------------

    Molecular point group: c1
  Charge       = 0
  Multiplicity = 1
  Basis Set: AUG-CC-PVTZ
    Blend: AUG-CC-PVTZ
  Basis Set: (AUG-CC-PVTZ AUX)
    Blend: AUG-CC-PVTZ-JKFIT

    Orbital Energies [Eh]
    ---------------------

    Doubly Occupied:

       1A    -20.605996     2A    -20.605944     3A    -15.845712
       4A    -11.306023     5A    -11.263635     6A    -11.228440
       7A    -11.228423     8A     -1.583883     9A     -1.384496
      10A     -1.144967    11A     -1.040366    12A     -0.948244
      13A     -0.881629    14A     -0.803750    15A     -0.740265
      16A     -0.728225    17A     -0.705380    18A     -0.638281
      19A     -0.627828    20A     -0.608089    21A     -0.557661
      22A     -0.545008    23A     -0.518522    24A     -0.501118
      25A     -0.500181    26A     -0.484543    27A     -0.473006
      28A     -0.447978

  @DF-RHF Final Energy:  -360.89791605131228

   => Energetics <=

    Nuclear Repulsion Energy =            328.8291038316625077
    One-Electron Energy =               -1143.5588515112563073
    Two-Electron Energy =                 453.8318316282815772
    Total Energy =                       -360.8979160513122793
  Basis Set: (AUG-CC-PVTZ AUX)
    Blend: AUG-CC-PVTZ-RI
    Molecular point group: c1

    Geometry (in Angstrom), charge = 0, multiplicity = 1:

       Center              X                  Y                   Z               Mass
    ------------   -----------------  -----------------  -----------------  -----------------
         O            1.531497250245     1.103985081655    -0.341213502948    15.994914619570
         O            1.529802250245    -1.105105918345    -0.342371502948    15.994914619570
         N            1.097480350245    -0.000447818345     0.034678497052    14.003074004430
         C           -1.325461749755     0.000631081655     0.440662497052    12.000000000000
         C            0.057467250245    -0.000208918345     1.100151497052    12.000000000000
         C           -1.568855749755    -1.263718918345    -0.381812502948    12.000000000000
         C           -1.566701749755     1.264939081655    -0.382513502948    12.000000000000
         H           -2.028192749755     0.001467081655     1.285624497052     1.007825032230
         H            0.215843250245     0.898063081655     1.699946497052     1.007825032230
         H            0.214993250245    -0.898800918345     1.699723497052     1.007825032230
         H           -0.902883749755    -1.305513918345    -1.247530502948     1.007825032230
         H           -2.600306749755    -1.278248918345    -0.745556502948     1.007825032230
         H           -1.402932749755    -2.167018918345     0.212657497052     1.007825032230
         H           -1.399392749755     2.168316081655     0.211451497052     1.007825032230
         H           -0.900549749755     1.305198081655    -1.248190502948     1.007825032230
         H           -2.598059749755     1.280994081655    -0.746480502948     1.007825032230

  Basis Set: AUG-CC-PVTZ
    Blend: AUG-CC-PVTZ
  Basis Set: (AUG-CC-PVTZ AUX)
    Blend: AUG-CC-PVTZ-JKFIT
	 Reference Energy          =    -360.8979160513122793 [Eh]
	 Singles Energy            =      -0.0000000000000000 [Eh]
	 Same-Spin Energy          =      -0.3690461269177532 [Eh]
	 Opposite-Spin Energy      =      -1.1815250224129805 [Eh]
	 Correlation Energy        =      -1.5505711493307337 [Eh]
	 Total Energy              =    -362.4484872006430010 [Eh]

	 ================> DF-SCS-MP2 Energies <==================
	-----------------------------------------------------------
	 SCS Same-Spin Scale       =       0.3333333333333333 [-]
	 SCS Opposite-Spin Scale   =       1.2000000000000000 [-]
	 SCS Same-Spin Energy      =      -0.1230153756392511 [Eh]
	 SCS Opposite-Spin Energy  =      -1.4178300268955766 [Eh]
	 SCS Correlation Energy    =      -1.5408454025348277 [Eh]
	 SCS Total Energy          =    -362.4387614538471212 [Eh]
	-----------------------------------------------------------

  Dipole Moment: [D]
     X:    -2.9864      Y:     0.0009      Z:     2.1675     Total:     3.6901

*** Psi4 exiting successfully. Buy a developer a beer!
