                               Psi4 1.3.2 release

  ==> Input File <==

--------------------------------------------------------------------------
#psi4
#
memory 32 gb

molecule  {
0 1
  C       -1.6389990    -0.4351500    -0.0000740
  C       -0.1399543    -0.2521626    -0.0935520
  C       -2.2926970     0.1332000    -1.2628670
  C       -2.2926340     0.1327630     1.2629610
  C        0.7493190    -1.2819130    -0.0001430
  C        0.3844310     1.0964220     0.0000690
  C        2.1305880    -1.0747930    -0.0000870
  C        1.7631970     1.3096170     0.0001230
  C        2.6421050     0.2235770     0.0000260
  H       -1.7988190    -1.5221670    -0.0002560
  H       -2.1859770     1.2220040    -1.2992740
  H       -3.3624420    -0.1008990    -1.2839610
  H       -1.8300540    -0.2824700    -2.1627150
  H       -1.8299510    -0.2832430     2.1626310
  H       -3.3623860    -0.1013120     1.2840290
  H       -2.1858740     1.2215510     1.2997470
  H        0.3566010    -2.2977830    -0.0002310
  H       -0.2855790     1.9543360     0.0001510
  H        2.8058120    -1.9275740    -0.0001650
  H        2.1529870     2.3251740     0.0002100
  H        3.7167440     0.3893290     0.0000760
units angstrom
no_reorient  #important for SAPT in psi4, default
symmetry c1  #important for SAPT in psi4, default
}

set PROPERTIES_ORIGIN ["COM"]
properties('MP2/aug-cc-pvtz', properties = ['dipole'])
--------------------------------------------------------------------------

    Molecular point group: c1
  Charge       = 0
  Multiplicity = 1
  Basis Set: AUG-CC-PVTZ
    Blend: AUG-CC-PVTZ
  Basis Set: (AUG-CC-PVTZ AUX)
    Blend: AUG-CC-PVTZ-JKFIT

    Orbital Energies [Eh]
    ---------------------

    Doubly Occupied:

       1A    -11.237551     2A    -11.234781     3A    -11.233986
       4A    -11.233583     5A    -11.233364     6A    -11.230625
       7A    -11.225884     8A    -11.216379     9A    -11.213467
      10A     -1.152453    11A     -1.081066    12A     -1.011350
      13A     -0.988500    14A     -0.930512    15A     -0.846148
      16A     -0.818566    17A     -0.769086    18A     -0.690503
      19A     -0.645555    20A     -0.627378    21A     -0.596172
      22A     -0.589979    23A     -0.578114    24A     -0.568294
      25A     -0.537851    26A     -0.529361    27A     -0.497589
      28A     -0.496499    29A     -0.475849    30A     -0.466118
      31A     -0.456515    32A     -0.336171    33A     -0.320262

  @DF-RHF Final Energy:  -347.91708336129545

   => Energetics <=

    Nuclear Repulsion Energy =            422.4657423348859879
    One-Electron Energy =               -1306.6266324907803664
    Two-Electron Energy =                 536.2438067945988678
    Total Energy =                       -347.9170833612954539
  Basis Set: (AUG-CC-PVTZ AUX)
    Blend: AUG-CC-PVTZ-RI
    Molecular point group: c1

    Geometry (in Angstrom), charge = 0, multiplicity = 1:

       Center              X                  Y                   Z               Mass
    ------------   -----------------  -----------------  -----------------  -----------------
         C           -1.703900091424    -0.425327202385     0.009271055017    12.000000000000
         C           -0.204855391424    -0.242339802385    -0.084206944983    12.000000000000
         C           -2.357598091424     0.143022797615    -1.253521944983    12.000000000000
         C           -2.357535091424     0.142585797615     1.272306055017    12.000000000000
         C            0.684417908576    -1.272090202385     0.009202055017    12.000000000000
         C            0.319529908576     1.106244797615     0.009414055017    12.000000000000
         C            2.065686908576    -1.064970202385     0.009258055017    12.000000000000
         C            1.698295908576     1.319439797615     0.009468055017    12.000000000000
         C            2.577203908576     0.233399797615     0.009371055017    12.000000000000
         H           -1.863720091424    -1.512344202385     0.009089055017     1.007825032230
         H           -2.250878091424     1.231826797615    -1.289928944983     1.007825032230
         H           -3.427343091424    -0.091076202385    -1.274615944983     1.007825032230
         H           -1.894955091424    -0.272647202385    -2.153369944983     1.007825032230
         H           -1.894852091424    -0.273420202385     2.171976055017     1.007825032230
         H           -3.427287091424    -0.091489202385     1.293374055017     1.007825032230
         H           -2.250775091424     1.231373797615     1.309092055017     1.007825032230
         H            0.291699908576    -2.287960202385     0.009114055017     1.007825032230
         H           -0.350480091424     1.964158797615     0.009496055017     1.007825032230
         H            2.740910908576    -1.917751202385     0.009180055017     1.007825032230
         H            2.088085908576     2.334996797615     0.009555055017     1.007825032230
         H            3.651842908576     0.399151797615     0.009421055017     1.007825032230

  Basis Set: AUG-CC-PVTZ
    Blend: AUG-CC-PVTZ
  Basis Set: (AUG-CC-PVTZ AUX)
    Blend: AUG-CC-PVTZ-JKFIT
	 Reference Energy          =    -347.9170833612954539 [Eh]
	 Singles Energy            =      -0.0000000000000000 [Eh]
	 Same-Spin Energy          =      -0.3873858515189637 [Eh]
	 Opposite-Spin Energy      =      -1.2886053213213549 [Eh]
	 Correlation Energy        =      -1.6759911728403185 [Eh]
	 Total Energy              =    -349.5930745341357806 [Eh]

	 ================> DF-SCS-MP2 Energies <==================
	-----------------------------------------------------------
	 SCS Same-Spin Scale       =       0.3333333333333333 [-]
	 SCS Opposite-Spin Scale   =       1.2000000000000000 [-]
	 SCS Same-Spin Energy      =      -0.1291286171729879 [Eh]
	 SCS Opposite-Spin Energy  =      -1.5463263855856257 [Eh]
	 SCS Correlation Energy    =      -1.6754550027586137 [Eh]
	 SCS Total Energy          =    -349.5925383640540645 [Eh]
	-----------------------------------------------------------

  Dipole Moment: [D]
     X:    -0.3538      Y:    -0.0622      Z:     0.0609     Total:     0.3644

*** Psi4 exiting successfully. Buy a developer a beer!
