                               Psi4 1.3.2 release

  ==> Input File <==

--------------------------------------------------------------------------
#psi4
#
memory 32 gb

molecule  {
0 1
  C       -1.6389990    -0.4351500    -0.0000740
  C       -0.1407609    -0.2769863    -0.1401606
  C       -2.2926970     0.1332000    -1.2628670
  C       -2.2926340     0.1327630     1.2629610
  C        0.7493190    -1.2819130    -0.0001430
  C        0.3844310     1.0964220     0.0000690
  C        2.1305880    -1.0747930    -0.0000870
  C        1.7631970     1.3096170     0.0001230
  C        2.6421050     0.2235770     0.0000260
  H       -1.7988190    -1.5221670    -0.0002560
  H       -2.1859770     1.2220040    -1.2992740
  H       -3.3624420    -0.1008990    -1.2839610
  H       -1.8300540    -0.2824700    -2.1627150
  H       -1.8299510    -0.2832430     2.1626310
  H       -3.3623860    -0.1013120     1.2840290
  H       -2.1858740     1.2215510     1.2997470
  H        0.3566010    -2.2977830    -0.0002310
  H       -0.2855790     1.9543360     0.0001510
  H        2.8058120    -1.9275740    -0.0001650
  H        2.1529870     2.3251740     0.0002100
  H        3.7167440     0.3893290     0.0000760
units angstrom
no_reorient  #important for SAPT in psi4, default
symmetry c1  #important for SAPT in psi4, default
}

set PROPERTIES_ORIGIN ["COM"]
properties('MP2/aug-cc-pvtz', properties = ['dipole'])
--------------------------------------------------------------------------

    Molecular point group: c1
  Charge       = 0
  Multiplicity = 1
  Basis Set: AUG-CC-PVTZ
    Blend: AUG-CC-PVTZ
  Basis Set: (AUG-CC-PVTZ AUX)
    Blend: AUG-CC-PVTZ-JKFIT

    Orbital Energies [Eh]
    ---------------------

    Doubly Occupied:

       1A    -11.238378     2A    -11.237201     3A    -11.233998
       4A    -11.233665     5A    -11.233325     6A    -11.231267
       7A    -11.224826     8A    -11.217295     9A    -11.212841
      10A     -1.152004    11A     -1.081080    12A     -1.012787
      13A     -0.986927    14A     -0.930645    15A     -0.846875
      16A     -0.816904    17A     -0.769050    18A     -0.690286
      19A     -0.645808    20A     -0.627633    21A     -0.596733
      22A     -0.587596    23A     -0.578131    24A     -0.568434
      25A     -0.537785    26A     -0.529425    27A     -0.497589
      28A     -0.496022    29A     -0.477777    30A     -0.466727
      31A     -0.450869    32A     -0.338328    33A     -0.318188

  @DF-RHF Final Energy:  -347.90924911558130

   => Energetics <=

    Nuclear Repulsion Energy =            422.2849998872104038
    One-Electron Energy =               -1306.2557027109201044
    Two-Electron Energy =                 536.0614537081283970
    Total Energy =                       -347.9092491155812468
  Basis Set: (AUG-CC-PVTZ AUX)
    Blend: AUG-CC-PVTZ-RI
    Molecular point group: c1

    Geometry (in Angstrom), charge = 0, multiplicity = 1:

       Center              X                  Y                   Z               Mass
    ------------   -----------------  -----------------  -----------------  -----------------
         C           -1.703819494491    -0.422846773329     0.013928270731    12.000000000000
         C           -0.205581394491    -0.264683073329    -0.126158329269    12.000000000000
         C           -2.357517494491     0.145503226671    -1.248864729269    12.000000000000
         C           -2.357454494491     0.145066226671     1.276963270731    12.000000000000
         C            0.684498505509    -1.269609773329     0.013859270731    12.000000000000
         C            0.319610505509     1.108725226671     0.014071270731    12.000000000000
         C            2.065767505509    -1.062489773329     0.013915270731    12.000000000000
         C            1.698376505509     1.321920226671     0.014125270731    12.000000000000
         C            2.577284505509     0.235880226671     0.014028270731    12.000000000000
         H           -1.863639494491    -1.509863773329     0.013746270731     1.007825032230
         H           -2.250797494491     1.234307226671    -1.285271729269     1.007825032230
         H           -3.427262494491    -0.088595773329    -1.269958729269     1.007825032230
         H           -1.894874494491    -0.270166773329    -2.148712729269     1.007825032230
         H           -1.894771494491    -0.270939773329     2.176633270731     1.007825032230
         H           -3.427206494491    -0.089008773329     1.298031270731     1.007825032230
         H           -2.250694494491     1.233854226671     1.313749270731     1.007825032230
         H            0.291780505509    -2.285479773329     0.013771270731     1.007825032230
         H           -0.350399494491     1.966639226671     0.014153270731     1.007825032230
         H            2.740991505509    -1.915270773329     0.013837270731     1.007825032230
         H            2.088166505509     2.337477226671     0.014212270731     1.007825032230
         H            3.651923505509     0.401632226671     0.014078270731     1.007825032230

  Basis Set: AUG-CC-PVTZ
    Blend: AUG-CC-PVTZ
  Basis Set: (AUG-CC-PVTZ AUX)
    Blend: AUG-CC-PVTZ-JKFIT
	 Reference Energy          =    -347.9092491155813036 [Eh]
	 Singles Energy            =      -0.0000000000000000 [Eh]
	 Same-Spin Energy          =      -0.3875113302907434 [Eh]
	 Opposite-Spin Energy      =      -1.2893368128207983 [Eh]
	 Correlation Energy        =      -1.6768481431115416 [Eh]
	 Total Energy              =    -349.5860972586928597 [Eh]

	 ================> DF-SCS-MP2 Energies <==================
	-----------------------------------------------------------
	 SCS Same-Spin Scale       =       0.3333333333333333 [-]
	 SCS Opposite-Spin Scale   =       1.2000000000000000 [-]
	 SCS Same-Spin Energy      =      -0.1291704434302478 [Eh]
	 SCS Opposite-Spin Energy  =      -1.5472041753849579 [Eh]
	 SCS Correlation Energy    =      -1.6763746188152058 [Eh]
	 SCS Total Energy          =    -349.5856237343965063 [Eh]
	-----------------------------------------------------------

  Dipole Moment: [D]
     X:    -0.3365      Y:    -0.0511      Z:     0.0921     Total:     0.3526

*** Psi4 exiting successfully. Buy a developer a beer!
