                               Psi4 1.3.2 release

  ==> Input File <==

--------------------------------------------------------------------------
#psi4
#
memory 32 gb

molecule  {
0 1
  C       -1.6389990    -0.4351500    -0.0000740
  C       -0.1632586    -0.1319828     0.1400603
  C       -2.2926970     0.1332000    -1.2628670
  C       -2.2926340     0.1327630     1.2629610
  C        0.7493190    -1.2819130    -0.0001430
  C        0.3844310     1.0964220     0.0000690
  C        2.1305880    -1.0747930    -0.0000870
  C        1.7631970     1.3096170     0.0001230
  C        2.6421050     0.2235770     0.0000260
  H       -1.7988190    -1.5221670    -0.0002560
  H       -2.1859770     1.2220040    -1.2992740
  H       -3.3624420    -0.1008990    -1.2839610
  H       -1.8300540    -0.2824700    -2.1627150
  H       -1.8299510    -0.2832430     2.1626310
  H       -3.3623860    -0.1013120     1.2840290
  H       -2.1858740     1.2215510     1.2997470
  H        0.3566010    -2.2977830    -0.0002310
  H       -0.2855790     1.9543360     0.0001510
  H        2.8058120    -1.9275740    -0.0001650
  H        2.1529870     2.3251740     0.0002100
  H        3.7167440     0.3893290     0.0000760
units angstrom
no_reorient  #important for SAPT in psi4, default
symmetry c1  #important for SAPT in psi4, default
}

set PROPERTIES_ORIGIN ["COM"]
properties('MP2/aug-cc-pvtz', properties = ['dipole'])
--------------------------------------------------------------------------

    Molecular point group: c1
  Charge       = 0
  Multiplicity = 1
  Basis Set: AUG-CC-PVTZ
    Blend: AUG-CC-PVTZ
  Basis Set: (AUG-CC-PVTZ AUX)
    Blend: AUG-CC-PVTZ-JKFIT

    Orbital Energies [Eh]
    ---------------------

    Doubly Occupied:

       1A    -11.238633     2A    -11.237126     3A    -11.234500
       4A    -11.233927     5A    -11.233088     6A    -11.230849
       7A    -11.224685     8A    -11.216019     9A    -11.212221
      10A     -1.152374    11A     -1.082164    12A     -1.010432
      13A     -0.987514    14A     -0.930533    15A     -0.842118
      16A     -0.824571    17A     -0.763947    18A     -0.691934
      19A     -0.644312    20A     -0.625948    21A     -0.604177
      22A     -0.585855    23A     -0.576956    24A     -0.568293
      25A     -0.538194    26A     -0.528692    27A     -0.497088
      28A     -0.495785    29A     -0.479841    30A     -0.469289
      31A     -0.447040    32A     -0.336864    33A     -0.318400

  @DF-RHF Final Energy:  -347.90889381174350

   => Energetics <=

    Nuclear Repulsion Energy =            422.5538222305384579
    One-Electron Energy =               -1306.7986937200516877
    Two-Electron Energy =                 536.3359776777697334
    Total Energy =                       -347.9088938117434964
  Basis Set: (AUG-CC-PVTZ AUX)
    Blend: AUG-CC-PVTZ-RI
    Molecular point group: c1

    Geometry (in Angstrom), charge = 0, multiplicity = 1:

       Center              X                  Y                   Z               Mass
    ------------   -----------------  -----------------  -----------------  -----------------
         C           -1.701571483567    -0.437335785630    -0.014071909038    12.000000000000
         C           -0.225831083567    -0.134168585630     0.126062390962    12.000000000000
         C           -2.355269483567     0.131014214370    -1.276864909038    12.000000000000
         C           -2.355206483567     0.130577214370     1.248963090962    12.000000000000
         C            0.686746516433    -1.284098785630    -0.014140909038    12.000000000000
         C            0.321858516433     1.094236214370    -0.013928909038    12.000000000000
         C            2.068015516433    -1.076978785630    -0.014084909038    12.000000000000
         C            1.700624516433     1.307431214370    -0.013874909038    12.000000000000
         C            2.579532516433     0.221391214370    -0.013971909038    12.000000000000
         H           -1.861391483567    -1.524352785630    -0.014253909038     1.007825032230
         H           -2.248549483567     1.219818214370    -1.313271909038     1.007825032230
         H           -3.425014483567    -0.103084785630    -1.297958909038     1.007825032230
         H           -1.892626483567    -0.284655785630    -2.176712909038     1.007825032230
         H           -1.892523483567    -0.285428785630     2.148633090962     1.007825032230
         H           -3.424958483567    -0.103497785630     1.270031090962     1.007825032230
         H           -2.248446483567     1.219365214370     1.285749090962     1.007825032230
         H            0.294028516433    -2.299968785630    -0.014228909038     1.007825032230
         H           -0.348151483567     1.952150214370    -0.013846909038     1.007825032230
         H            2.743239516433    -1.929759785630    -0.014162909038     1.007825032230
         H            2.090414516433     2.322988214370    -0.013787909038     1.007825032230
         H            3.654171516433     0.387143214370    -0.013921909038     1.007825032230

  Basis Set: AUG-CC-PVTZ
    Blend: AUG-CC-PVTZ
  Basis Set: (AUG-CC-PVTZ AUX)
    Blend: AUG-CC-PVTZ-JKFIT
	 Reference Energy          =    -347.9088938117434964 [Eh]
	 Singles Energy            =      -0.0000000000000000 [Eh]
	 Same-Spin Energy          =      -0.3877455343812896 [Eh]
	 Opposite-Spin Energy      =      -1.2894834432473297 [Eh]
	 Correlation Energy        =      -1.6772289776286193 [Eh]
	 Total Energy              =    -349.5861227893720979 [Eh]

	 ================> DF-SCS-MP2 Energies <==================
	-----------------------------------------------------------
	 SCS Same-Spin Scale       =       0.3333333333333333 [-]
	 SCS Opposite-Spin Scale   =       1.2000000000000000 [-]
	 SCS Same-Spin Energy      =      -0.1292485114604298 [Eh]
	 SCS Opposite-Spin Energy  =      -1.5473801318967955 [Eh]
	 SCS Correlation Energy    =      -1.6766286433572253 [Eh]
	 SCS Total Energy          =    -349.5855224551007154 [Eh]
	-----------------------------------------------------------

  Dipole Moment: [D]
     X:    -0.3364      Y:    -0.1031      Z:    -0.0851     Total:     0.3620

*** Psi4 exiting successfully. Buy a developer a beer!
