                               Psi4 1.3.2 release

  ==> Input File <==

--------------------------------------------------------------------------
#psi4
#
memory 32 gb

molecule  {
0 1
  C       -1.6389990    -0.4351500    -0.0000740
  C       -0.1409741    -0.2275618    -0.0468295
  C       -2.2926970     0.1332000    -1.2628670
  C       -2.2926340     0.1327630     1.2629610
  C        0.7493190    -1.2819130    -0.0001430
  C        0.3844310     1.0964220     0.0000690
  C        2.1305880    -1.0747930    -0.0000870
  C        1.7631970     1.3096170     0.0001230
  C        2.6421050     0.2235770     0.0000260
  H       -1.7988190    -1.5221670    -0.0002560
  H       -2.1859770     1.2220040    -1.2992740
  H       -3.3624420    -0.1008990    -1.2839610
  H       -1.8300540    -0.2824700    -2.1627150
  H       -1.8299510    -0.2832430     2.1626310
  H       -3.3623860    -0.1013120     1.2840290
  H       -2.1858740     1.2215510     1.2997470
  H        0.3566010    -2.2977830    -0.0002310
  H       -0.2855790     1.9543360     0.0001510
  H        2.8058120    -1.9275740    -0.0001650
  H        2.1529870     2.3251740     0.0002100
  H        3.7167440     0.3893290     0.0000760
units angstrom
no_reorient  #important for SAPT in psi4, default
symmetry c1  #important for SAPT in psi4, default
}

set PROPERTIES_ORIGIN ["COM"]
properties('MP2/aug-cc-pvtz', properties = ['dipole'])
--------------------------------------------------------------------------

    Molecular point group: c1
  Charge       = 0
  Multiplicity = 1
  Basis Set: AUG-CC-PVTZ
    Blend: AUG-CC-PVTZ
  Basis Set: (AUG-CC-PVTZ AUX)
    Blend: AUG-CC-PVTZ-JKFIT

    Orbital Energies [Eh]
    ---------------------

    Doubly Occupied:

       1A    -11.237114     2A    -11.234168     3A    -11.233912
       4A    -11.233551     5A    -11.231698     6A    -11.230194
       7A    -11.227443     8A    -11.215476     9A    -11.214052
      10A     -1.152748    11A     -1.081128    12A     -1.010144
      13A     -0.989675    14A     -0.930416    15A     -0.845397
      16A     -0.820133    17A     -0.768735    18A     -0.690763
      19A     -0.645206    20A     -0.627162    21A     -0.596667
      22A     -0.591057    23A     -0.578004    24A     -0.568198
      25A     -0.537908    26A     -0.529272    27A     -0.497617
      28A     -0.496746    29A     -0.474372    30A     -0.464478
      31A     -0.461506    32A     -0.334292    33A     -0.322007

  @DF-RHF Final Energy:  -347.92185328693802

   => Energetics <=

    Nuclear Repulsion Energy =            422.5921166566089369
    One-Electron Energy =               -1306.8854659644803178
    Two-Electron Energy =                 536.3714960209333640
    Total Energy =                       -347.9218532869380169
  Basis Set: (AUG-CC-PVTZ AUX)
    Blend: AUG-CC-PVTZ-RI
    Molecular point group: c1

    Geometry (in Angstrom), charge = 0, multiplicity = 1:

       Center              X                  Y                   Z               Mass
    ------------   -----------------  -----------------  -----------------  -----------------
         C           -1.703798191161    -0.427785358870     0.004602458209    12.000000000000
         C           -0.205773291161    -0.220197158870    -0.042153041791    12.000000000000
         C           -2.357496191161     0.140564641130    -1.258190541791    12.000000000000
         C           -2.357433191161     0.140127641130     1.267637458209    12.000000000000
         C            0.684519808839    -1.274548358870     0.004533458209    12.000000000000
         C            0.319631808839     1.103786641130     0.004745458209    12.000000000000
         C            2.065788808839    -1.067428358870     0.004589458209    12.000000000000
         C            1.698397808839     1.316981641130     0.004799458209    12.000000000000
         C            2.577305808839     0.230941641130     0.004702458209    12.000000000000
         H           -1.863618191161    -1.514802358870     0.004420458209     1.007825032230
         H           -2.250776191161     1.229368641130    -1.294597541791     1.007825032230
         H           -3.427241191161    -0.093534358870    -1.279284541791     1.007825032230
         H           -1.894853191161    -0.275105358870    -2.158038541791     1.007825032230
         H           -1.894750191161    -0.275878358870     2.167307458209     1.007825032230
         H           -3.427185191161    -0.093947358870     1.288705458209     1.007825032230
         H           -2.250673191161     1.228915641130     1.304423458209     1.007825032230
         H            0.291801808839    -2.290418358870     0.004445458209     1.007825032230
         H           -0.350378191161     1.961700641130     0.004827458209     1.007825032230
         H            2.741012808839    -1.920209358870     0.004511458209     1.007825032230
         H            2.088187808839     2.332538641130     0.004886458209     1.007825032230
         H            3.651944808839     0.396693641130     0.004752458209     1.007825032230

  Basis Set: AUG-CC-PVTZ
    Blend: AUG-CC-PVTZ
  Basis Set: (AUG-CC-PVTZ AUX)
    Blend: AUG-CC-PVTZ-JKFIT
	 Reference Energy          =    -347.9218532869380169 [Eh]
	 Singles Energy            =      -0.0000000000000000 [Eh]
	 Same-Spin Energy          =      -0.3873316407986132 [Eh]
	 Opposite-Spin Energy      =      -1.2881849467941988 [Eh]
	 Correlation Energy        =      -1.6755165875928120 [Eh]
	 Total Energy              =    -349.5973698745308411 [Eh]

	 ================> DF-SCS-MP2 Energies <==================
	-----------------------------------------------------------
	 SCS Same-Spin Scale       =       0.3333333333333333 [-]
	 SCS Opposite-Spin Scale   =       1.2000000000000000 [-]
	 SCS Same-Spin Energy      =      -0.1291105469328711 [Eh]
	 SCS Opposite-Spin Energy  =      -1.5458219361530385 [Eh]
	 SCS Correlation Energy    =      -1.6749324830859096 [Eh]
	 SCS Total Energy          =    -349.5967857700239279 [Eh]
	-----------------------------------------------------------

  Dipole Moment: [D]
     X:    -0.3639      Y:    -0.0731      Z:     0.0301     Total:     0.3724

*** Psi4 exiting successfully. Buy a developer a beer!
