                               Psi4 1.3.2 release

  ==> Input File <==

--------------------------------------------------------------------------
#psi4
#
memory 32 gb

molecule  {
0 1
  C       -1.6389990    -0.4351500    -0.0000740
  C       -0.1459249    -0.1911442     0.0233433
  C       -2.2926970     0.1332000    -1.2628670
  C       -2.2926340     0.1327630     1.2629610
  C        0.7493190    -1.2819130    -0.0001430
  C        0.3844310     1.0964220     0.0000690
  C        2.1305880    -1.0747930    -0.0000870
  C        1.7631970     1.3096170     0.0001230
  C        2.6421050     0.2235770     0.0000260
  H       -1.7988190    -1.5221670    -0.0002560
  H       -2.1859770     1.2220040    -1.2992740
  H       -3.3624420    -0.1008990    -1.2839610
  H       -1.8300540    -0.2824700    -2.1627150
  H       -1.8299510    -0.2832430     2.1626310
  H       -3.3623860    -0.1013120     1.2840290
  H       -2.1858740     1.2215510     1.2997470
  H        0.3566010    -2.2977830    -0.0002310
  H       -0.2855790     1.9543360     0.0001510
  H        2.8058120    -1.9275740    -0.0001650
  H        2.1529870     2.3251740     0.0002100
  H        3.7167440     0.3893290     0.0000760
units angstrom
no_reorient  #important for SAPT in psi4, default
symmetry c1  #important for SAPT in psi4, default
}

set PROPERTIES_ORIGIN ["COM"]
properties('MP2/aug-cc-pvtz', properties = ['dipole'])
--------------------------------------------------------------------------

    Molecular point group: c1
  Charge       = 0
  Multiplicity = 1
  Basis Set: AUG-CC-PVTZ
    Blend: AUG-CC-PVTZ
  Basis Set: (AUG-CC-PVTZ AUX)
    Blend: AUG-CC-PVTZ-JKFIT

    Orbital Energies [Eh]
    ---------------------

    Doubly Occupied:

       1A    -11.237065     2A    -11.234344     3A    -11.233822
       4A    -11.233604     5A    -11.230531     6A    -11.229986
       7A    -11.228359     8A    -11.214857     9A    -11.214172
      10A     -1.152899    11A     -1.081365    12A     -1.009215
      13A     -0.990229    14A     -0.930357    15A     -0.844206
      16A     -0.822198    17A     -0.767517    18A     -0.691198
      19A     -0.644635    20A     -0.626831    21A     -0.599485
      22A     -0.589892    23A     -0.577754    24A     -0.568148
      25A     -0.537994    26A     -0.529085    27A     -0.497532
      28A     -0.496776    29A     -0.473932    30A     -0.467501
      31A     -0.459523    32A     -0.333239    33A     -0.322769

  @DF-RHF Final Energy:  -347.92300039334469

   => Energetics <=

    Nuclear Repulsion Energy =            422.6792986140638391
    One-Electron Energy =               -1307.0625487037925723
    Two-Electron Energy =                 536.4602496963840395
    Total Energy =                       -347.9230003933447506
  Basis Set: (AUG-CC-PVTZ AUX)
    Blend: AUG-CC-PVTZ-RI
    Molecular point group: c1

    Geometry (in Angstrom), charge = 0, multiplicity = 1:

       Center              X                  Y                   Z               Mass
    ------------   -----------------  -----------------  -----------------  -----------------
         C           -1.703303498260    -0.431424271409    -0.002409335040    12.000000000000
         C           -0.210229398260    -0.187418471409     0.021007964960    12.000000000000
         C           -2.357001498260     0.136925728591    -1.265202335040    12.000000000000
         C           -2.356938498260     0.136488728591     1.260625664960    12.000000000000
         C            0.685014501740    -1.278187271409    -0.002478335040    12.000000000000
         C            0.320126501740     1.100147728591    -0.002266335040    12.000000000000
         C            2.066283501740    -1.071067271409    -0.002422335040    12.000000000000
         C            1.698892501740     1.313342728591    -0.002212335040    12.000000000000
         C            2.577800501740     0.227302728591    -0.002309335040    12.000000000000
         H           -1.863123498260    -1.518441271409    -0.002591335040     1.007825032230
         H           -2.250281498260     1.225729728591    -1.301609335040     1.007825032230
         H           -3.426746498260    -0.097173271409    -1.286296335040     1.007825032230
         H           -1.894358498260    -0.278744271409    -2.165050335040     1.007825032230
         H           -1.894255498260    -0.279517271409     2.160295664960     1.007825032230
         H           -3.426690498260    -0.097586271409     1.281693664960     1.007825032230
         H           -2.250178498260     1.225276728591     1.297411664960     1.007825032230
         H            0.292296501740    -2.294057271409    -0.002566335040     1.007825032230
         H           -0.349883498260     1.958061728591    -0.002184335040     1.007825032230
         H            2.741507501740    -1.923848271409    -0.002500335040     1.007825032230
         H            2.088682501740     2.328899728591    -0.002125335040     1.007825032230
         H            3.652439501740     0.393054728591    -0.002259335040     1.007825032230

  Basis Set: AUG-CC-PVTZ
    Blend: AUG-CC-PVTZ
  Basis Set: (AUG-CC-PVTZ AUX)
    Blend: AUG-CC-PVTZ-JKFIT
	 Reference Energy          =    -347.9230003933446937 [Eh]
	 Singles Energy            =      -0.0000000000000000 [Eh]
	 Same-Spin Energy          =      -0.3873665430435045 [Eh]
	 Opposite-Spin Energy      =      -1.2881110446723705 [Eh]
	 Correlation Energy        =      -1.6754775877158750 [Eh]
	 Total Energy              =    -349.5984779810605687 [Eh]

	 ================> DF-SCS-MP2 Energies <==================
	-----------------------------------------------------------
	 SCS Same-Spin Scale       =       0.3333333333333333 [-]
	 SCS Opposite-Spin Scale   =       1.2000000000000000 [-]
	 SCS Same-Spin Energy      =      -0.1291221810145015 [Eh]
	 SCS Opposite-Spin Energy  =      -1.5457332536068444 [Eh]
	 SCS Correlation Energy    =      -1.6748554346213460 [Eh]
	 SCS Total Energy          =    -349.5978558279660433 [Eh]
	-----------------------------------------------------------

  Dipole Moment: [D]
     X:    -0.3657      Y:    -0.0880      Z:    -0.0148     Total:     0.3765

*** Psi4 exiting successfully. Buy a developer a beer!
