                               Psi4 1.3.2 release

  ==> Input File <==

--------------------------------------------------------------------------
#psi4
#
memory 32 gb

molecule  {
0 1
  C       -1.6389990    -0.4351500    -0.0000740
  C       -0.1549681    -0.1553954     0.0934519
  C       -2.2926970     0.1332000    -1.2628670
  C       -2.2926340     0.1327630     1.2629610
  C        0.7493190    -1.2819130    -0.0001430
  C        0.3844310     1.0964220     0.0000690
  C        2.1305880    -1.0747930    -0.0000870
  C        1.7631970     1.3096170     0.0001230
  C        2.6421050     0.2235770     0.0000260
  H       -1.7988190    -1.5221670    -0.0002560
  H       -2.1859770     1.2220040    -1.2992740
  H       -3.3624420    -0.1008990    -1.2839610
  H       -1.8300540    -0.2824700    -2.1627150
  H       -1.8299510    -0.2832430     2.1626310
  H       -3.3623860    -0.1013120     1.2840290
  H       -2.1858740     1.2215510     1.2997470
  H        0.3566010    -2.2977830    -0.0002310
  H       -0.2855790     1.9543360     0.0001510
  H        2.8058120    -1.9275740    -0.0001650
  H        2.1529870     2.3251740     0.0002100
  H        3.7167440     0.3893290     0.0000760
units angstrom
no_reorient  #important for SAPT in psi4, default
symmetry c1  #important for SAPT in psi4, default
}

set PROPERTIES_ORIGIN ["COM"]
properties('MP2/aug-cc-pvtz', properties = ['dipole'])
--------------------------------------------------------------------------

    Molecular point group: c1
  Charge       = 0
  Multiplicity = 1
  Basis Set: AUG-CC-PVTZ
    Blend: AUG-CC-PVTZ
  Basis Set: (AUG-CC-PVTZ AUX)
    Blend: AUG-CC-PVTZ-JKFIT

    Orbital Energies [Eh]
    ---------------------

    Doubly Occupied:

       1A    -11.237737     2A    -11.234662     3A    -11.234467
       4A    -11.233767     5A    -11.233136     6A    -11.230339
       7A    -11.225794     8A    -11.215581     9A    -11.212962
      10A     -1.152701    11A     -1.081780    12A     -1.009613
      13A     -0.989057    14A     -0.930418    15A     -0.842953
      16A     -0.823804    17A     -0.765570    18A     -0.691646
      19A     -0.644272    20A     -0.626374    21A     -0.602501
      22A     -0.587562    23A     -0.577375    24A     -0.568206
      25A     -0.538101    26A     -0.528851    27A     -0.497243
      28A     -0.496399    29A     -0.476931    30A     -0.469458
      31A     -0.452571    32A     -0.335002    33A     -0.320605

  @DF-RHF Final Energy:  -347.91687917215751

   => Energetics <=

    Nuclear Repulsion Energy =            422.6441956724142983
    One-Electron Energy =               -1306.9872744218264415
    Two-Electron Energy =                 536.4261995772546925
    Total Energy =                       -347.9168791721574507
  Basis Set: (AUG-CC-PVTZ AUX)
    Blend: AUG-CC-PVTZ-RI
    Molecular point group: c1

    Geometry (in Angstrom), charge = 0, multiplicity = 1:

       Center              X                  Y                   Z               Mass
    ------------   -----------------  -----------------  -----------------  -----------------
         C           -1.702399885340    -0.434996356241    -0.009414713309    12.000000000000
         C           -0.218368985340    -0.155241756241     0.084111186691    12.000000000000
         C           -2.356097885340     0.133353643759    -1.272207713309    12.000000000000
         C           -2.356034885340     0.132916643759     1.253620286691    12.000000000000
         C            0.685918114660    -1.281759356241    -0.009483713309    12.000000000000
         C            0.321030114660     1.096575643759    -0.009271713309    12.000000000000
         C            2.067187114660    -1.074639356241    -0.009427713309    12.000000000000
         C            1.699796114660     1.309770643759    -0.009217713309    12.000000000000
         C            2.578704114660     0.223730643759    -0.009314713309    12.000000000000
         H           -1.862219885340    -1.522013356241    -0.009596713309     1.007825032230
         H           -2.249377885340     1.222157643759    -1.308614713309     1.007825032230
         H           -3.425842885340    -0.100745356241    -1.293301713309     1.007825032230
         H           -1.893454885340    -0.282316356241    -2.172055713309     1.007825032230
         H           -1.893351885340    -0.283089356241     2.153290286691     1.007825032230
         H           -3.425786885340    -0.101158356241     1.274688286691     1.007825032230
         H           -2.249274885340     1.221704643759     1.290406286691     1.007825032230
         H            0.293200114660    -2.297629356241    -0.009571713309     1.007825032230
         H           -0.348979885340     1.954489643759    -0.009189713309     1.007825032230
         H            2.742411114660    -1.927420356241    -0.009505713309     1.007825032230
         H            2.089586114660     2.325327643759    -0.009130713309     1.007825032230
         H            3.653343114660     0.389482643759    -0.009264713309     1.007825032230

  Basis Set: AUG-CC-PVTZ
    Blend: AUG-CC-PVTZ
  Basis Set: (AUG-CC-PVTZ AUX)
    Blend: AUG-CC-PVTZ-JKFIT
	 Reference Energy          =    -347.9168791721575076 [Eh]
	 Singles Energy            =      -0.0000000000000000 [Eh]
	 Same-Spin Energy          =      -0.3875398870516713 [Eh]
	 Opposite-Spin Energy      =      -1.2886952427798453 [Eh]
	 Correlation Energy        =      -1.6762351298315166 [Eh]
	 Total Energy              =    -349.5931143019890328 [Eh]

	 ================> DF-SCS-MP2 Energies <==================
	-----------------------------------------------------------
	 SCS Same-Spin Scale       =       0.3333333333333333 [-]
	 SCS Opposite-Spin Scale   =       1.2000000000000000 [-]
	 SCS Same-Spin Energy      =      -0.1291799623505571 [Eh]
	 SCS Opposite-Spin Energy  =      -1.5464342913358142 [Eh]
	 SCS Correlation Energy    =      -1.6756142536863714 [Eh]
	 SCS Total Energy          =    -349.5924934258438839 [Eh]
	-----------------------------------------------------------

  Dipole Moment: [D]
     X:    -0.3527      Y:    -0.0990      Z:    -0.0578     Total:     0.3709

*** Psi4 exiting successfully. Buy a developer a beer!
