                               Psi4 1.3.2 release

  ==> Input File <==

--------------------------------------------------------------------------
#psi4
#
memory 32 gb

molecule  {
0 1
  C       -1.6389990    -0.4351500    -0.0000740
  C       -0.1421686    -0.2153544    -0.0234433
  C       -2.2926970     0.1332000    -1.2628670
  C       -2.2926340     0.1327630     1.2629610
  C        0.7493190    -1.2819130    -0.0001430
  C        0.3844310     1.0964220     0.0000690
  C        2.1305880    -1.0747930    -0.0000870
  C        1.7631970     1.3096170     0.0001230
  C        2.6421050     0.2235770     0.0000260
  H       -1.7988190    -1.5221670    -0.0002560
  H       -2.1859770     1.2220040    -1.2992740
  H       -3.3624420    -0.1008990    -1.2839610
  H       -1.8300540    -0.2824700    -2.1627150
  H       -1.8299510    -0.2832430     2.1626310
  H       -3.3623860    -0.1013120     1.2840290
  H       -2.1858740     1.2215510     1.2997470
  H        0.3566010    -2.2977830    -0.0002310
  H       -0.2855790     1.9543360     0.0001510
  H        2.8058120    -1.9275740    -0.0001650
  H        2.1529870     2.3251740     0.0002100
  H        3.7167440     0.3893290     0.0000760
units angstrom
no_reorient  #important for SAPT in psi4, default
symmetry c1  #important for SAPT in psi4, default
}

set PROPERTIES_ORIGIN ["COM"]
properties('MP2/aug-cc-pvtz', properties = ['dipole'])
--------------------------------------------------------------------------

    Molecular point group: c1
  Charge       = 0
  Multiplicity = 1
  Basis Set: AUG-CC-PVTZ
    Blend: AUG-CC-PVTZ
  Basis Set: (AUG-CC-PVTZ AUX)
    Blend: AUG-CC-PVTZ-JKFIT

    Orbital Energies [Eh]
    ---------------------

    Doubly Occupied:

       1A    -11.237019     2A    -11.234215     3A    -11.233891
       4A    -11.233556     5A    -11.230552     6A    -11.230059
       7A    -11.228381     8A    -11.215033     9A    -11.214329
      10A     -1.152837    11A     -1.081188    12A     -1.009695
      13A     -0.990045    14A     -0.930385    15A     -0.845009
      16A     -0.820865    17A     -0.768418    18A     -0.690904
      19A     -0.645013    20A     -0.627058    21A     -0.597451
      22A     -0.590926    23A     -0.577931    24A     -0.568169
      25A     -0.537935    26A     -0.529217    27A     -0.497616
      28A     -0.496795    29A     -0.473937    30A     -0.464086
      31A     -0.462823    32A     -0.333620    33A     -0.322593

  @DF-RHF Final Energy:  -347.92304550502297

   => Energetics <=

    Nuclear Repulsion Energy =            422.6348277079845843
    One-Electron Energy =               -1306.9726428767814923
    Two-Electron Energy =                 536.4147696637738818
    Total Energy =                       -347.9230455050229693
  Basis Set: (AUG-CC-PVTZ AUX)
    Blend: AUG-CC-PVTZ-RI
    Molecular point group: c1

    Geometry (in Angstrom), charge = 0, multiplicity = 1:

       Center              X                  Y                   Z               Mass
    ------------   -----------------  -----------------  -----------------  -----------------
         C           -1.703678834558    -0.429005144383     0.002265666756    12.000000000000
         C           -0.206848434558    -0.209209544383    -0.021103633244    12.000000000000
         C           -2.357376834558     0.139344855617    -1.260527333244    12.000000000000
         C           -2.357313834558     0.138907855617     1.265300666756    12.000000000000
         C            0.684639165442    -1.275768144383     0.002196666756    12.000000000000
         C            0.319751165442     1.102566855617     0.002408666756    12.000000000000
         C            2.065908165442    -1.068648144383     0.002252666756    12.000000000000
         C            1.698517165442     1.315761855617     0.002462666756    12.000000000000
         C            2.577425165442     0.229721855617     0.002365666756    12.000000000000
         H           -1.863498834558    -1.516022144383     0.002083666756     1.007825032230
         H           -2.250656834558     1.228148855617    -1.296934333244     1.007825032230
         H           -3.427121834558    -0.094754144383    -1.281621333244     1.007825032230
         H           -1.894733834558    -0.276325144383    -2.160375333244     1.007825032230
         H           -1.894630834558    -0.277098144383     2.164970666756     1.007825032230
         H           -3.427065834558    -0.095167144383     1.286368666756     1.007825032230
         H           -2.250553834558     1.227695855617     1.302086666756     1.007825032230
         H            0.291921165442    -2.291638144383     0.002108666756     1.007825032230
         H           -0.350258834558     1.960480855617     0.002490666756     1.007825032230
         H            2.741132165442    -1.921429144383     0.002174666756     1.007825032230
         H            2.088307165442     2.331318855617     0.002549666756     1.007825032230
         H            3.652064165442     0.395473855617     0.002415666756     1.007825032230

  Basis Set: AUG-CC-PVTZ
    Blend: AUG-CC-PVTZ
  Basis Set: (AUG-CC-PVTZ AUX)
    Blend: AUG-CC-PVTZ-JKFIT
	 Reference Energy          =    -347.9230455050229693 [Eh]
	 Singles Energy            =      -0.0000000000000000 [Eh]
	 Same-Spin Energy          =      -0.3873284476893417 [Eh]
	 Opposite-Spin Energy      =      -1.2880897836960561 [Eh]
	 Correlation Energy        =      -1.6754182313853978 [Eh]
	 Total Energy              =    -349.5984637364083483 [Eh]

	 ================> DF-SCS-MP2 Energies <==================
	-----------------------------------------------------------
	 SCS Same-Spin Scale       =       0.3333333333333333 [-]
	 SCS Opposite-Spin Scale   =       1.2000000000000000 [-]
	 SCS Same-Spin Energy      =      -0.1291094825631139 [Eh]
	 SCS Opposite-Spin Energy  =      -1.5457077404352673 [Eh]
	 SCS Correlation Energy    =      -1.6748172229983811 [Eh]
	 SCS Total Energy          =    -349.5978627280213686 [Eh]
	-----------------------------------------------------------

  Dipole Moment: [D]
     X:    -0.3662      Y:    -0.0783      Z:     0.0150     Total:     0.3748

*** Psi4 exiting successfully. Buy a developer a beer!
