                               Psi4 1.3.2 release

  ==> Input File <==

--------------------------------------------------------------------------
#psi4
#
memory 32 gb

molecule  {
0 1
  C       -1.6389990    -0.4351500    -0.0000740
  C       -0.1484856    -0.1791487     0.0467294
  C       -2.2926970     0.1332000    -1.2628670
  C       -2.2926340     0.1327630     1.2629610
  C        0.7493190    -1.2819130    -0.0001430
  C        0.3844310     1.0964220     0.0000690
  C        2.1305880    -1.0747930    -0.0000870
  C        1.7631970     1.3096170     0.0001230
  C        2.6421050     0.2235770     0.0000260
  H       -1.7988190    -1.5221670    -0.0002560
  H       -2.1859770     1.2220040    -1.2992740
  H       -3.3624420    -0.1008990    -1.2839610
  H       -1.8300540    -0.2824700    -2.1627150
  H       -1.8299510    -0.2832430     2.1626310
  H       -3.3623860    -0.1013120     1.2840290
  H       -2.1858740     1.2215510     1.2997470
  H        0.3566010    -2.2977830    -0.0002310
  H       -0.2855790     1.9543360     0.0001510
  H        2.8058120    -1.9275740    -0.0001650
  H        2.1529870     2.3251740     0.0002100
  H        3.7167440     0.3893290     0.0000760
units angstrom
no_reorient  #important for SAPT in psi4, default
symmetry c1  #important for SAPT in psi4, default
}

set PROPERTIES_ORIGIN ["COM"]
properties('MP2/aug-cc-pvtz', properties = ['dipole'])
--------------------------------------------------------------------------

    Molecular point group: c1
  Charge       = 0
  Multiplicity = 1
  Basis Set: AUG-CC-PVTZ
    Blend: AUG-CC-PVTZ
  Basis Set: (AUG-CC-PVTZ AUX)
    Blend: AUG-CC-PVTZ-JKFIT

    Orbital Energies [Eh]
    ---------------------

    Doubly Occupied:

       1A    -11.237207     2A    -11.234398     3A    -11.233806
       4A    -11.233647     5A    -11.231647     6A    -11.230050
       7A    -11.227400     8A    -11.215107     9A    -11.213757
      10A     -1.152872    11A     -1.081483    12A     -1.009206
      13A     -0.990023    14A     -0.930363    15A     -0.843793
      16A     -0.822790    17A     -0.766941    18A     -0.691348
      19A     -0.644474    20A     -0.626699    21A     -0.600537
      22A     -0.589177    23A     -0.577648    24A     -0.568156
      25A     -0.538026    26A     -0.529011    27A     -0.497446
      28A     -0.496708    29A     -0.474539    30A     -0.468631
      31A     -0.457408    32A     -0.333582    33A     -0.322305

  @DF-RHF Final Energy:  -347.92176074106601

   => Energetics <=

    Nuclear Repulsion Energy =            422.6811155223732612
    One-Electron Energy =               -1307.0653803672064441
    Two-Electron Energy =                 536.4625041037671735
    Total Energy =                       -347.9217607410660094
  Basis Set: (AUG-CC-PVTZ AUX)
    Blend: AUG-CC-PVTZ-RI
    Molecular point group: c1

    Geometry (in Angstrom), charge = 0, multiplicity = 1:

       Center              X                  Y                   Z               Mass
    ------------   -----------------  -----------------  -----------------  -----------------
         C           -1.703047628479    -0.432622883491    -0.004746116501    12.000000000000
         C           -0.212534228479    -0.176621583491     0.042057283499    12.000000000000
         C           -2.356745628479     0.135727116509    -1.267539116501    12.000000000000
         C           -2.356682628479     0.135290116509     1.258288883499    12.000000000000
         C            0.685270371521    -1.279385883491    -0.004815116501    12.000000000000
         C            0.320382371521     1.098949116509    -0.004603116501    12.000000000000
         C            2.066539371521    -1.072265883491    -0.004759116501    12.000000000000
         C            1.699148371521     1.312144116509    -0.004549116501    12.000000000000
         C            2.578056371521     0.226104116509    -0.004646116501    12.000000000000
         H           -1.862867628479    -1.519639883491    -0.004928116501     1.007825032230
         H           -2.250025628479     1.224531116509    -1.303946116501     1.007825032230
         H           -3.426490628479    -0.098371883491    -1.288633116501     1.007825032230
         H           -1.894102628479    -0.279942883491    -2.167387116501     1.007825032230
         H           -1.893999628479    -0.280715883491     2.157958883499     1.007825032230
         H           -3.426434628479    -0.098784883491     1.279356883499     1.007825032230
         H           -2.249922628479     1.224078116509     1.295074883499     1.007825032230
         H            0.292552371521    -2.295255883491    -0.004903116501     1.007825032230
         H           -0.349627628479     1.956863116509    -0.004521116501     1.007825032230
         H            2.741763371521    -1.925046883491    -0.004837116501     1.007825032230
         H            2.088938371521     2.327701116509    -0.004462116501     1.007825032230
         H            3.652695371521     0.391856116509    -0.004596116501     1.007825032230

  Basis Set: AUG-CC-PVTZ
    Blend: AUG-CC-PVTZ
  Basis Set: (AUG-CC-PVTZ AUX)
    Blend: AUG-CC-PVTZ-JKFIT
	 Reference Energy          =    -347.9217607410660094 [Eh]
	 Singles Energy            =      -0.0000000000000000 [Eh]
	 Same-Spin Energy          =      -0.3874080108139782 [Eh]
	 Opposite-Spin Energy      =      -1.2882278443217456 [Eh]
	 Correlation Energy        =      -1.6756358551357238 [Eh]
	 Total Energy              =    -349.5973965962017473 [Eh]

	 ================> DF-SCS-MP2 Energies <==================
	-----------------------------------------------------------
	 SCS Same-Spin Scale       =       0.3333333333333333 [-]
	 SCS Opposite-Spin Scale   =       1.2000000000000000 [-]
	 SCS Same-Spin Energy      =      -0.1291360036046594 [Eh]
	 SCS Opposite-Spin Energy  =      -1.5458734131860947 [Eh]
	 SCS Correlation Energy    =      -1.6750094167907541 [Eh]
	 SCS Total Energy          =    -349.5967701578567812 [Eh]
	-----------------------------------------------------------

  Dipole Moment: [D]
     X:    -0.3630      Y:    -0.0922      Z:    -0.0294     Total:     0.3757

*** Psi4 exiting successfully. Buy a developer a beer!
