                               Psi4 1.3.2 release

  ==> Input File <==

--------------------------------------------------------------------------
#psi4
#
memory 32 gb

molecule  {
0 1
  C       -1.6389990    -0.4351500    -0.0000740
  C       -0.1438190    -0.2032140    -0.0000500
  C       -2.2926970     0.1332000    -1.2628670
  C       -2.2926340     0.1327630     1.2629610
  C        0.7493190    -1.2819130    -0.0001430
  C        0.3844310     1.0964220     0.0000690
  C        2.1305880    -1.0747930    -0.0000870
  C        1.7631970     1.3096170     0.0001230
  C        2.6421050     0.2235770     0.0000260
  H       -1.7988190    -1.5221670    -0.0002560
  H       -2.1859770     1.2220040    -1.2992740
  H       -3.3624420    -0.1008990    -1.2839610
  H       -1.8300540    -0.2824700    -2.1627150
  H       -1.8299510    -0.2832430     2.1626310
  H       -3.3623860    -0.1013120     1.2840290
  H       -2.1858740     1.2215510     1.2997470
  H        0.3566010    -2.2977830    -0.0002310
  H       -0.2855790     1.9543360     0.0001510
  H        2.8058120    -1.9275740    -0.0001650
  H        2.1529870     2.3251740     0.0002100
  H        3.7167440     0.3893290     0.0000760
units angstrom
no_reorient  #important for SAPT in psi4, default
symmetry c1  #important for SAPT in psi4, default
}

set PROPERTIES_ORIGIN ["COM"]
properties('MP2/aug-cc-pvtz', properties = ['dipole'])
--------------------------------------------------------------------------

    Molecular point group: c1
  Charge       = 0
  Multiplicity = 1
  Basis Set: AUG-CC-PVTZ
    Blend: AUG-CC-PVTZ
  Basis Set: (AUG-CC-PVTZ AUX)
    Blend: AUG-CC-PVTZ-JKFIT

    Orbital Energies [Eh]
    ---------------------

    Doubly Occupied:

       1A    -11.237003     2A    -11.234280     3A    -11.233860
       4A    -11.233574     5A    -11.230032     6A    -11.229459
       7A    -11.229344     8A    -11.214608     9A    -11.214588
      10A     -1.152888    11A     -1.081267    12A     -1.009380
      13A     -0.990235    14A     -0.930365    15A     -0.844612
      16A     -0.821555    17A     -0.768011    18A     -0.691050
      19A     -0.644819    20A     -0.626949    21A     -0.598433
      22A     -0.590498    23A     -0.577848    24A     -0.568152
      25A     -0.537964    26A     -0.529154    27A     -0.497590
      28A     -0.496804    29A     -0.473765    30A     -0.465892
      31A     -0.461389    32A     -0.333249    33A     -0.322869

  @DF-RHF Final Energy:  -347.92342909048011

   => Energetics <=

    Nuclear Repulsion Energy =            422.6638819935416791
    One-Electron Energy =               -1307.0316567486581789
    Two-Electron Energy =                 536.4443456646363302
    Total Energy =                       -347.9234290904801128
  Basis Set: (AUG-CC-PVTZ AUX)
    Blend: AUG-CC-PVTZ-RI
    Molecular point group: c1

    Geometry (in Angstrom), charge = 0, multiplicity = 1:

       Center              X                  Y                   Z               Mass
    ------------   -----------------  -----------------  -----------------  -----------------
         C           -1.703513923602    -0.430218235136    -0.000071834142    12.000000000000
         C           -0.208333923602    -0.198282235136    -0.000047834142    12.000000000000
         C           -2.357211923602     0.138131764864    -1.262864834142    12.000000000000
         C           -2.357148923602     0.137694764864     1.262963165858    12.000000000000
         C            0.684804076398    -1.276981235136    -0.000140834142    12.000000000000
         C            0.319916076398     1.101353764864     0.000071165858    12.000000000000
         C            2.066073076398    -1.069861235136    -0.000084834142    12.000000000000
         C            1.698682076398     1.314548764864     0.000125165858    12.000000000000
         C            2.577590076398     0.228508764864     0.000028165858    12.000000000000
         H           -1.863333923602    -1.517235235136    -0.000253834142     1.007825032230
         H           -2.250491923602     1.226935764864    -1.299271834142     1.007825032230
         H           -3.426956923602    -0.095967235136    -1.283958834142     1.007825032230
         H           -1.894568923602    -0.277538235136    -2.162712834142     1.007825032230
         H           -1.894465923602    -0.278311235136     2.162633165858     1.007825032230
         H           -3.426900923602    -0.096380235136     1.284031165858     1.007825032230
         H           -2.250388923602     1.226482764864     1.299749165858     1.007825032230
         H            0.292086076398    -2.292851235136    -0.000228834142     1.007825032230
         H           -0.350093923602     1.959267764864     0.000153165858     1.007825032230
         H            2.741297076398    -1.922642235136    -0.000162834142     1.007825032230
         H            2.088472076398     2.330105764864     0.000212165858     1.007825032230
         H            3.652229076398     0.394260764864     0.000078165858     1.007825032230

  Basis Set: AUG-CC-PVTZ
    Blend: AUG-CC-PVTZ
  Basis Set: (AUG-CC-PVTZ AUX)
    Blend: AUG-CC-PVTZ-JKFIT
	 Reference Energy          =    -347.9234290904801128 [Eh]
	 Singles Energy            =      -0.0000000000000000 [Eh]
	 Same-Spin Energy          =      -0.3873401542135064 [Eh]
	 Opposite-Spin Energy      =      -1.2880660132153643 [Eh]
	 Correlation Energy        =      -1.6754061674288707 [Eh]
	 Total Energy              =    -349.5988352579090019 [Eh]

	 ================> DF-SCS-MP2 Energies <==================
	-----------------------------------------------------------
	 SCS Same-Spin Scale       =       0.3333333333333333 [-]
	 SCS Opposite-Spin Scale   =       1.2000000000000000 [-]
	 SCS Same-Spin Energy      =      -0.1291133847378355 [Eh]
	 SCS Opposite-Spin Energy  =      -1.5456792158584371 [Eh]
	 SCS Correlation Energy    =      -1.6747926005962726 [Eh]
	 SCS Total Energy          =    -349.5982216910763896 [Eh]
	-----------------------------------------------------------

  Dipole Moment: [D]
     X:    -0.3668      Y:    -0.0833      Z:     0.0000     Total:     0.3762

*** Psi4 exiting successfully. Buy a developer a beer!
