                               Psi4 1.3.2 release

  ==> Input File <==

--------------------------------------------------------------------------
#psi4
#
memory 32 gb

molecule  {
0 1
  O       -2.8968130    -0.3474360    -0.2563530
  O       -0.5825960    -1.5131530     0.0834280
  N        0.6646380     0.3451110    -0.3514860
  C        1.9521820    -0.3066060    -0.1296730
  C       -1.7875910     0.5207530    -0.3412920
  C        2.3087340    -0.3110910     1.3526080
  C        3.0072020     0.3769410    -0.9846900
  C       -0.4256592    -0.3582861    -0.1707062
  C       -1.8991130     1.5929580     0.7362800
  H        1.8182130    -1.3395260    -0.4626630
  H        0.6508110     1.3528600    -0.4628320
  H       -1.7688680     0.9937940    -1.3356380
  H        2.4085440     0.7136460     1.7243230
  H        1.5276200    -0.8195050     1.9221530
  H        3.2560570    -0.8319740     1.5215790
  H        3.1304270     1.4235350    -0.6835410
  H        2.7315590     0.3479870    -2.0412990
  H        3.9738610    -0.1182480    -0.8633910
  H       -1.8420940     1.1254490     1.7220580
  H       -2.8670940     2.0889060     0.6442650
  H       -1.1140830     2.3514110     0.6543310
  H       -2.4990480    -1.2315890    -0.0938460
units angstrom
no_reorient  #important for SAPT in psi4, default
symmetry c1  #important for SAPT in psi4, default
}

set PROPERTIES_ORIGIN ["COM"]
properties('MP2/aug-cc-pvtz', properties = ['dipole'])
--------------------------------------------------------------------------

    Molecular point group: c1
  Charge       = 0
  Multiplicity = 1
  Basis Set: AUG-CC-PVTZ
    Blend: AUG-CC-PVTZ
  Basis Set: (AUG-CC-PVTZ AUX)
    Blend: AUG-CC-PVTZ-JKFIT

    Orbital Energies [Eh]
    ---------------------

    Doubly Occupied:

       1A    -20.542898     2A    -20.535195     3A    -15.598181
       4A    -11.351469     5A    -11.290002     6A    -11.278997
       7A    -11.234398     8A    -11.225293     9A    -11.223927
      10A     -1.418923    11A     -1.344534    12A     -1.267679
      13A     -1.072195    14A     -1.013884    15A     -0.952953
      16A     -0.878588    17A     -0.821676    18A     -0.809270
      19A     -0.726431    20A     -0.681725    21A     -0.647248
      22A     -0.642018    23A     -0.630480    24A     -0.608285
      25A     -0.578002    26A     -0.562635    27A     -0.558199
      28A     -0.549141    29A     -0.544555    30A     -0.529303
      31A     -0.515761    32A     -0.508016    33A     -0.495603
      34A     -0.439299    35A     -0.413476    36A     -0.408298

  @DF-RHF Final Energy:  -439.13076582029151

   => Energetics <=

    Nuclear Repulsion Energy =            485.7607129725135451
    One-Electron Energy =               -1561.9858890882849209
    Two-Electron Energy =                 637.0944102954797472
    Total Energy =                       -439.1307658202915718
  Basis Set: (AUG-CC-PVTZ AUX)
    Blend: AUG-CC-PVTZ-RI
    Molecular point group: c1

    Geometry (in Angstrom), charge = 0, multiplicity = 1:

       Center              X                  Y                   Z               Mass
    ------------   -----------------  -----------------  -----------------  -----------------
         O           -2.904461592003    -0.342499258516    -0.257310984497    15.994914619570
         O           -0.590244592003    -1.508216258516     0.082470015503    15.994914619570
         N            0.656989407997     0.350047741484    -0.352443984497    14.003074004430
         C            1.944533407997    -0.301669258516    -0.130630984497    12.000000000000
         C           -1.795239592003     0.525689741484    -0.342249984497    12.000000000000
         C            2.301085407997    -0.306154258516     1.351650015503    12.000000000000
         C            2.999553407997     0.381877741484    -0.985647984497    12.000000000000
         C           -0.433307792003    -0.353349358516    -0.171664184497    12.000000000000
         C           -1.906761592003     1.597894741484     0.735322015503    12.000000000000
         H            1.810564407997    -1.334589258516    -0.463620984497     1.007825032230
         H            0.643162407997     1.357796741484    -0.463789984497     1.007825032230
         H           -1.776516592003     0.998730741484    -1.336595984497     1.007825032230
         H            2.400895407997     0.718582741484     1.723365015503     1.007825032230
         H            1.519971407997    -0.814568258516     1.921195015503     1.007825032230
         H            3.248408407997    -0.827037258516     1.520621015503     1.007825032230
         H            3.122778407997     1.428471741484    -0.684498984497     1.007825032230
         H            2.723910407997     0.352923741484    -2.042256984497     1.007825032230
         H            3.966212407997    -0.113311258516    -0.864348984497     1.007825032230
         H           -1.849742592003     1.130385741484     1.721100015503     1.007825032230
         H           -2.874742592003     2.093842741484     0.643307015503     1.007825032230
         H           -1.121731592003     2.356347741484     0.653373015503     1.007825032230
         H           -2.506696592003    -1.226652258516    -0.094803984497     1.007825032230

  Basis Set: AUG-CC-PVTZ
    Blend: AUG-CC-PVTZ
  Basis Set: (AUG-CC-PVTZ AUX)
    Blend: AUG-CC-PVTZ-JKFIT
	 Reference Energy          =    -439.1307658202915150 [Eh]
	 Singles Energy            =      -0.0000000000000000 [Eh]
	 Same-Spin Energy          =      -0.4451342187883658 [Eh]
	 Opposite-Spin Energy      =      -1.4617602496333832 [Eh]
	 Correlation Energy        =      -1.9068944684217490 [Eh]
	 Total Energy              =    -441.0376602887132549 [Eh]

	 ================> DF-SCS-MP2 Energies <==================
	-----------------------------------------------------------
	 SCS Same-Spin Scale       =       0.3333333333333333 [-]
	 SCS Opposite-Spin Scale   =       1.2000000000000000 [-]
	 SCS Same-Spin Energy      =      -0.1483780729294553 [Eh]
	 SCS Opposite-Spin Energy  =      -1.7541122995600598 [Eh]
	 SCS Correlation Energy    =      -1.9024903724895150 [Eh]
	 SCS Total Energy          =    -441.0332561927810389 [Eh]
	-----------------------------------------------------------

  Dipole Moment: [D]
     X:     4.0090      Y:     2.6750      Z:    -0.2116     Total:     4.8241

*** Psi4 exiting successfully. Buy a developer a beer!
