                               Psi4 1.3.2 release

  ==> Input File <==

--------------------------------------------------------------------------
#psi4
#
memory 32 gb

molecule  {
0 1
  O       -2.8968130    -0.3474360    -0.2563530
  O       -0.5825960    -1.5131530     0.0834280
  N        0.6646380     0.3451110    -0.3514860
  C        1.9579569    -0.2952625    -0.1302315
  C       -1.7875910     0.5207530    -0.3412920
  C        2.3087340    -0.3110910     1.3526080
  C        3.0072020     0.3769410    -0.9846900
  C       -0.5092170    -0.3043550    -0.1811720
  C       -1.8991130     1.5929580     0.7362800
  H        1.8182130    -1.3395260    -0.4626630
  H        0.6595998     1.3530532    -0.4618233
  H       -1.7688680     0.9937940    -1.3356380
  H        2.4085440     0.7136460     1.7243230
  H        1.5276200    -0.8195050     1.9221530
  H        3.2560570    -0.8319740     1.5215790
  H        3.1304270     1.4235350    -0.6835410
  H        2.7315590     0.3479870    -2.0412990
  H        3.9738610    -0.1182480    -0.8633910
  H       -1.8420940     1.1254490     1.7220580
  H       -2.8670940     2.0889060     0.6442650
  H       -1.1140830     2.3514110     0.6543310
  H       -2.4990480    -1.2315890    -0.0938460
units angstrom
no_reorient  #important for SAPT in psi4, default
symmetry c1  #important for SAPT in psi4, default
}

set PROPERTIES_ORIGIN ["COM"]
properties('MP2/aug-cc-pvtz', properties = ['dipole'])
--------------------------------------------------------------------------

    Molecular point group: c1
  Charge       = 0
  Multiplicity = 1
  Basis Set: AUG-CC-PVTZ
    Blend: AUG-CC-PVTZ
  Basis Set: (AUG-CC-PVTZ AUX)
    Blend: AUG-CC-PVTZ-JKFIT

    Orbital Energies [Eh]
    ---------------------

    Doubly Occupied:

       1A    -20.547810     2A    -20.532596     3A    -15.595749
       4A    -11.358675     5A    -11.297370     6A    -11.277419
       7A    -11.232288     8A    -11.230683     9A    -11.222309
      10A     -1.397211    11A     -1.345765    12A     -1.248104
      13A     -1.073099    14A     -1.024117    15A     -0.950826
      16A     -0.895190    17A     -0.821146    18A     -0.795237
      19A     -0.736527    20A     -0.678237    21A     -0.649016
      22A     -0.632303    23A     -0.629996    24A     -0.597236
      25A     -0.581969    26A     -0.567644    27A     -0.555160
      28A     -0.548210    29A     -0.539463    30A     -0.529948
      31A     -0.512137    32A     -0.504762    33A     -0.488917
      34A     -0.444897    35A     -0.434488    36A     -0.401462

  @DF-RHF Final Energy:  -439.13741301860887

   => Energetics <=

    Nuclear Repulsion Energy =            485.3145051723782899
    One-Electron Energy =               -1561.1479064871521132
    Two-Electron Energy =                 636.6959882961648418
    Total Energy =                       -439.1374130186088678
  Basis Set: (AUG-CC-PVTZ AUX)
    Blend: AUG-CC-PVTZ-RI
    Molecular point group: c1

    Geometry (in Angstrom), charge = 0, multiplicity = 1:

       Center              X                  Y                   Z               Mass
    ------------   -----------------  -----------------  -----------------  -----------------
         O           -2.897409150291    -0.348475780359    -0.256309608558    15.994914619570
         O           -0.583192150291    -1.514192780359     0.083471391442    15.994914619570
         N            0.664041849709     0.344071219641    -0.351442608558    14.003074004430
         C            1.957360749709    -0.296302280359    -0.130188108558    12.000000000000
         C           -1.788187150291     0.519713219641    -0.341248608558    12.000000000000
         C            2.308137849709    -0.312130780359     1.352651391442    12.000000000000
         C            3.006605849709     0.375901219641    -0.984646608558    12.000000000000
         C           -0.509813150291    -0.305394780359    -0.181128608558    12.000000000000
         C           -1.899709150291     1.591918219641     0.736323391442    12.000000000000
         H            1.817616849709    -1.340565780359    -0.462619608558     1.007825032230
         H            0.659003649709     1.352013419641    -0.461779908558     1.007825032230
         H           -1.769464150291     0.992754219641    -1.335594608558     1.007825032230
         H            2.407947849709     0.712606219641     1.724366391442     1.007825032230
         H            1.527023849709    -0.820544780359     1.922196391442     1.007825032230
         H            3.255460849709    -0.833013780359     1.521622391442     1.007825032230
         H            3.129830849709     1.422495219641    -0.683497608558     1.007825032230
         H            2.730962849709     0.346947219641    -2.041255608558     1.007825032230
         H            3.973264849709    -0.119287780359    -0.863347608558     1.007825032230
         H           -1.842690150291     1.124409219641     1.722101391442     1.007825032230
         H           -2.867690150291     2.087866219641     0.644308391442     1.007825032230
         H           -1.114679150291     2.350371219641     0.654374391442     1.007825032230
         H           -2.499644150291    -1.232628780359    -0.093802608558     1.007825032230

  Basis Set: AUG-CC-PVTZ
    Blend: AUG-CC-PVTZ
  Basis Set: (AUG-CC-PVTZ AUX)
    Blend: AUG-CC-PVTZ-JKFIT
	 Reference Energy          =    -439.1374130186088678 [Eh]
	 Singles Energy            =      -0.0000000000000000 [Eh]
	 Same-Spin Energy          =      -0.4461240172217904 [Eh]
	 Opposite-Spin Energy      =      -1.4637713729690622 [Eh]
	 Correlation Energy        =      -1.9098953901908526 [Eh]
	 Total Energy              =    -441.0473084087997222 [Eh]

	 ================> DF-SCS-MP2 Energies <==================
	-----------------------------------------------------------
	 SCS Same-Spin Scale       =       0.3333333333333333 [-]
	 SCS Opposite-Spin Scale   =       1.2000000000000000 [-]
	 SCS Same-Spin Energy      =      -0.1487080057405968 [Eh]
	 SCS Opposite-Spin Energy  =      -1.7565256475628745 [Eh]
	 SCS Correlation Energy    =      -1.9052336533034713 [Eh]
	 SCS Total Energy          =    -441.0426466719123368 [Eh]
	-----------------------------------------------------------

  Dipole Moment: [D]
     X:     3.5878      Y:     2.9199      Z:    -0.2276     Total:     4.6314

*** Psi4 exiting successfully. Buy a developer a beer!
