                               Psi4 1.3.2 release

  ==> Input File <==

--------------------------------------------------------------------------
#psi4
#
memory 32 gb

molecule  {
0 1
  O       -2.8968130    -0.3474360    -0.2563530
  O       -0.5177530    -1.5155837     0.0823474
  N        0.6981271     0.2839898    -0.3390299
  C        1.9521820    -0.3066060    -0.1296730
  C       -1.7875910     0.5207530    -0.3412920
  C        2.3087340    -0.3110910     1.3526080
  C        3.0072020     0.3769410    -0.9846900
  C       -0.5092170    -0.3043550    -0.1811720
  C       -1.8991130     1.5929580     0.7362800
  H        1.8182130    -1.3395260    -0.4626630
  H        0.6508110     1.3528600    -0.4628320
  H       -1.7688680     0.9937940    -1.3356380
  H        2.4085440     0.7136460     1.7243230
  H        1.5276200    -0.8195050     1.9221530
  H        3.2560570    -0.8319740     1.5215790
  H        3.1304270     1.4235350    -0.6835410
  H        2.7315590     0.3479870    -2.0412990
  H        3.9738610    -0.1182480    -0.8633910
  H       -1.8420940     1.1254490     1.7220580
  H       -2.8670940     2.0889060     0.6442650
  H       -1.1140830     2.3514110     0.6543310
  H       -2.4990480    -1.2315890    -0.0938460
units angstrom
no_reorient  #important for SAPT in psi4, default
symmetry c1  #important for SAPT in psi4, default
}

set PROPERTIES_ORIGIN ["COM"]
properties('MP2/aug-cc-pvtz', properties = ['dipole'])
--------------------------------------------------------------------------

    Molecular point group: c1
  Charge       = 0
  Multiplicity = 1
  Basis Set: AUG-CC-PVTZ
    Blend: AUG-CC-PVTZ
  Basis Set: (AUG-CC-PVTZ AUX)
    Blend: AUG-CC-PVTZ-JKFIT

    Orbital Energies [Eh]
    ---------------------

    Doubly Occupied:

       1A    -20.554471     2A    -20.528643     3A    -15.596003
       4A    -11.358079     5A    -11.304841     6A    -11.269801
       7A    -11.234107     8A    -11.230176     9A    -11.218388
      10A     -1.398652    11A     -1.352645    12A     -1.247743
      13A     -1.070959    14A     -1.025687    15A     -0.947597
      16A     -0.900506    17A     -0.829005    18A     -0.778658
      19A     -0.740893    20A     -0.679904    21A     -0.650732
      22A     -0.630971    23A     -0.630254    24A     -0.590080
      25A     -0.584487    26A     -0.570065    27A     -0.552725
      28A     -0.550109    29A     -0.540960    30A     -0.530330
      31A     -0.516544    32A     -0.501298    33A     -0.486522
      34A     -0.449515    35A     -0.435922    36A     -0.392730

  @DF-RHF Final Energy:  -439.12710683715295

   => Energetics <=

    Nuclear Repulsion Energy =            486.0891220335135472
    One-Electron Energy =               -1562.6724497237742071
    Two-Electron Energy =                 637.4562208531076521
    Total Energy =                       -439.1271068371529509
  Basis Set: (AUG-CC-PVTZ AUX)
    Blend: AUG-CC-PVTZ-RI
    Molecular point group: c1

    Geometry (in Angstrom), charge = 0, multiplicity = 1:

       Center              X                  Y                   Z               Mass
    ------------   -----------------  -----------------  -----------------  -----------------
         O           -2.908301680643    -0.340610620298    -0.257551650234    15.994914619570
         O           -0.529241680643    -1.508758320298     0.081148749766    15.994914619570
         N            0.686638419357     0.290815179702    -0.340228550234    14.003074004430
         C            1.940693319357    -0.299780620298    -0.130871650234    12.000000000000
         C           -1.799079680643     0.527578379702    -0.342490650234    12.000000000000
         C            2.297245319357    -0.304265620298     1.351409349766    12.000000000000
         C            2.995713319357     0.383766379702    -0.985888650234    12.000000000000
         C           -0.520705680643    -0.297529620298    -0.182370650234    12.000000000000
         C           -1.910601680643     1.599783379702     0.735081349766    12.000000000000
         H            1.806724319357    -1.332700620298    -0.463861650234     1.007825032230
         H            0.639322319357     1.359685379702    -0.464030650234     1.007825032230
         H           -1.780356680643     1.000619379702    -1.336836650234     1.007825032230
         H            2.397055319357     0.720471379702     1.723124349766     1.007825032230
         H            1.516131319357    -0.812679620298     1.920954349766     1.007825032230
         H            3.244568319357    -0.825148620298     1.520380349766     1.007825032230
         H            3.118938319357     1.430360379702    -0.684739650234     1.007825032230
         H            2.720070319357     0.354812379702    -2.042497650234     1.007825032230
         H            3.962372319357    -0.111422620298    -0.864589650234     1.007825032230
         H           -1.853582680643     1.132274379702     1.720859349766     1.007825032230
         H           -2.878582680643     2.095731379702     0.643066349766     1.007825032230
         H           -1.125571680643     2.358236379702     0.653132349766     1.007825032230
         H           -2.510536680643    -1.224763620298    -0.095044650234     1.007825032230

  Basis Set: AUG-CC-PVTZ
    Blend: AUG-CC-PVTZ
  Basis Set: (AUG-CC-PVTZ AUX)
    Blend: AUG-CC-PVTZ-JKFIT
	 Reference Energy          =    -439.1271068371529509 [Eh]
	 Singles Energy            =      -0.0000000000000000 [Eh]
	 Same-Spin Energy          =      -0.4470228990232806 [Eh]
	 Opposite-Spin Energy      =      -1.4651640173581315 [Eh]
	 Correlation Energy        =      -1.9121869163814122 [Eh]
	 Total Energy              =    -441.0392937535343663 [Eh]

	 ================> DF-SCS-MP2 Energies <==================
	-----------------------------------------------------------
	 SCS Same-Spin Scale       =       0.3333333333333333 [-]
	 SCS Opposite-Spin Scale   =       1.2000000000000000 [-]
	 SCS Same-Spin Energy      =      -0.1490076330077602 [Eh]
	 SCS Opposite-Spin Energy  =      -1.7581968208297578 [Eh]
	 SCS Correlation Energy    =      -1.9072044538375179 [Eh]
	 SCS Total Energy          =    -441.0343112909904448 [Eh]
	-----------------------------------------------------------

  Dipole Moment: [D]
     X:     3.1938      Y:     3.0177      Z:    -0.2613     Total:     4.4017

*** Psi4 exiting successfully. Buy a developer a beer!
