                               Psi4 1.3.2 release

  ==> Input File <==

--------------------------------------------------------------------------
#psi4
#
memory 32 gb

molecule  {
0 1
  O       -2.8968130    -0.3474360    -0.2563530
  O       -0.5825960    -1.5131530     0.0834280
  N        0.6646380     0.3451110    -0.3514860
  C        1.9521820    -0.3066060    -0.1296730
  C       -1.7875910     0.5207530    -0.3412920
  C        2.3087340    -0.3110910     1.3526080
  C        3.0072020     0.3769410    -0.9846900
  C       -0.5316084    -0.2628937    -0.1839347
  C       -1.8991130     1.5929580     0.7362800
  H        1.8182130    -1.3395260    -0.4626630
  H        0.6155562     1.3520889    -0.4598083
  H       -1.7688680     0.9937940    -1.3356380
  H        2.4085440     0.7136460     1.7243230
  H        1.5276200    -0.8195050     1.9221530
  H        3.2560570    -0.8319740     1.5215790
  H        3.1304270     1.4235350    -0.6835410
  H        2.7315590     0.3479870    -2.0412990
  H        3.9738610    -0.1182480    -0.8633910
  H       -1.8420940     1.1254490     1.7220580
  H       -2.8670940     2.0889060     0.6442650
  H       -1.1140830     2.3514110     0.6543310
  H       -2.4990480    -1.2315890    -0.0938460
units angstrom
no_reorient  #important for SAPT in psi4, default
symmetry c1  #important for SAPT in psi4, default
}

set PROPERTIES_ORIGIN ["COM"]
properties('MP2/aug-cc-pvtz', properties = ['dipole'])
--------------------------------------------------------------------------

    Molecular point group: c1
  Charge       = 0
  Multiplicity = 1
  Basis Set: AUG-CC-PVTZ
    Blend: AUG-CC-PVTZ
  Basis Set: (AUG-CC-PVTZ AUX)
    Blend: AUG-CC-PVTZ-JKFIT

    Orbital Energies [Eh]
    ---------------------

    Doubly Occupied:

       1A    -20.549385     2A    -20.526366     3A    -15.599032
       4A    -11.360607     5A    -11.299442     6A    -11.279224
       7A    -11.233812     8A    -11.232757     9A    -11.222372
      10A     -1.384539    11A     -1.338998    12A     -1.243650
      13A     -1.076974    14A     -1.029043    15A     -0.949929
      16A     -0.903362    17A     -0.826100    18A     -0.790165
      19A     -0.739608    20A     -0.679706    21A     -0.651860
      22A     -0.629483    23A     -0.626031    24A     -0.591355
      25A     -0.581442    26A     -0.569536    27A     -0.555161
      28A     -0.549454    29A     -0.539439    30A     -0.527148
      31A     -0.510557    32A     -0.499949    33A     -0.489906
      34A     -0.446365    35A     -0.436303    36A     -0.398954

  @DF-RHF Final Energy:  -439.13068513329500

   => Energetics <=

    Nuclear Repulsion Energy =            485.1789533170544928
    One-Electron Energy =               -1560.8832467742911376
    Two-Electron Energy =                 636.5736083239416985
    Total Energy =                       -439.1306851332949464
  Basis Set: (AUG-CC-PVTZ AUX)
    Blend: AUG-CC-PVTZ-RI
    Molecular point group: c1

    Geometry (in Angstrom), charge = 0, multiplicity = 1:

       Center              X                  Y                   Z               Mass
    ------------   -----------------  -----------------  -----------------  -----------------
         O           -2.894492296668    -0.351225258030    -0.256123333706    15.994914619570
         O           -0.580275296668    -1.516942258030     0.083657666294    15.994914619570
         N            0.666958703332     0.341321741970    -0.351256333706    14.003074004430
         C            1.954502703332    -0.310395258030    -0.129443333706    12.000000000000
         C           -1.785270296668     0.516963741970    -0.341062333706    12.000000000000
         C            2.311054703332    -0.314880258030     1.352837666294    12.000000000000
         C            3.009522703332     0.373151741970    -0.984460333706    12.000000000000
         C           -0.529287696668    -0.266682958030    -0.183705033706    12.000000000000
         C           -1.896792296668     1.589168741970     0.736509666294    12.000000000000
         H            1.820533703332    -1.343315258030    -0.462433333706     1.007825032230
         H            0.617876903332     1.348299641970    -0.459578633706     1.007825032230
         H           -1.766547296668     0.990004741970    -1.335408333706     1.007825032230
         H            2.410864703332     0.709856741970     1.724552666294     1.007825032230
         H            1.529940703332    -0.823294258030     1.922382666294     1.007825032230
         H            3.258377703332    -0.835763258030     1.521808666294     1.007825032230
         H            3.132747703332     1.419745741970    -0.683311333706     1.007825032230
         H            2.733879703332     0.344197741970    -2.041069333706     1.007825032230
         H            3.976181703332    -0.122037258030    -0.863161333706     1.007825032230
         H           -1.839773296668     1.121659741970     1.722287666294     1.007825032230
         H           -2.864773296668     2.085116741970     0.644494666294     1.007825032230
         H           -1.111762296668     2.347621741970     0.654560666294     1.007825032230
         H           -2.496727296668    -1.235378258030    -0.093616333706     1.007825032230

  Basis Set: AUG-CC-PVTZ
    Blend: AUG-CC-PVTZ
  Basis Set: (AUG-CC-PVTZ AUX)
    Blend: AUG-CC-PVTZ-JKFIT
	 Reference Energy          =    -439.1306851332950032 [Eh]
	 Singles Energy            =      -0.0000000000000000 [Eh]
	 Same-Spin Energy          =      -0.4471220848768450 [Eh]
	 Opposite-Spin Energy      =      -1.4657198067694162 [Eh]
	 Correlation Energy        =      -1.9128418916462611 [Eh]
	 Total Energy              =    -441.0435270249412838 [Eh]

	 ================> DF-SCS-MP2 Energies <==================
	-----------------------------------------------------------
	 SCS Same-Spin Scale       =       0.3333333333333333 [-]
	 SCS Opposite-Spin Scale   =       1.2000000000000000 [-]
	 SCS Same-Spin Energy      =      -0.1490406949589483 [Eh]
	 SCS Opposite-Spin Energy  =      -1.7588637681232993 [Eh]
	 SCS Correlation Energy    =      -1.9079044630822475 [Eh]
	 SCS Total Energy          =    -441.0385895963772782 [Eh]
	-----------------------------------------------------------

  Dipole Moment: [D]
     X:     3.5294      Y:     3.1174      Z:    -0.2386     Total:     4.7150

*** Psi4 exiting successfully. Buy a developer a beer!
