                               Psi4 1.3.2 release

  ==> Input File <==

--------------------------------------------------------------------------
#psi4
#
memory 32 gb

molecule  {
0 1
  O       -2.8968130    -0.3474360    -0.2563530
  O       -0.5825960    -1.5131530     0.0834280
  N        0.6704479     0.3350661    -0.3493386
  C        1.9521820    -0.3066060    -0.1296730
  C       -1.7948722     0.5098689    -0.3386895
  C        2.3087340    -0.3110910     1.3526080
  C        3.0072020     0.3769410    -0.9846900
  C       -0.5092170    -0.3043550    -0.1811720
  C       -1.8991130     1.5929580     0.7362800
  H        1.8182130    -1.3395260    -0.4626630
  H        0.6508110     1.3528600    -0.4628320
  H       -1.7688680     0.9937940    -1.3356380
  H        2.4085440     0.7136460     1.7243230
  H        1.5276200    -0.8195050     1.9221530
  H        3.2560570    -0.8319740     1.5215790
  H        3.1304270     1.4235350    -0.6835410
  H        2.7315590     0.3479870    -2.0412990
  H        3.9738610    -0.1182480    -0.8633910
  H       -1.8420940     1.1254490     1.7220580
  H       -2.8670940     2.0889060     0.6442650
  H       -1.1140830     2.3514110     0.6543310
  H       -2.4990480    -1.2315890    -0.0938460
units angstrom
no_reorient  #important for SAPT in psi4, default
symmetry c1  #important for SAPT in psi4, default
}

set PROPERTIES_ORIGIN ["COM"]
properties('MP2/aug-cc-pvtz', properties = ['dipole'])
--------------------------------------------------------------------------

    Molecular point group: c1
  Charge       = 0
  Multiplicity = 1
  Basis Set: AUG-CC-PVTZ
    Blend: AUG-CC-PVTZ
  Basis Set: (AUG-CC-PVTZ AUX)
    Blend: AUG-CC-PVTZ-JKFIT

    Orbital Energies [Eh]
    ---------------------

    Doubly Occupied:

       1A    -20.549608     2A    -20.531798     3A    -15.596279
       4A    -11.357912     5A    -11.298285     6A    -11.276350
       7A    -11.232167     8A    -11.230734     9A    -11.221805
      10A     -1.398807    11A     -1.350334    12A     -1.248299
      13A     -1.071555    14A     -1.022718    15A     -0.949691
      16A     -0.895055    17A     -0.823295    18A     -0.792470
      19A     -0.738885    20A     -0.679262    21A     -0.649832
      22A     -0.632170    23A     -0.629371    24A     -0.596324
      25A     -0.583197    26A     -0.567733    27A     -0.554984
      28A     -0.548325    29A     -0.540548    30A     -0.530264
      31A     -0.513206    32A     -0.502741    33A     -0.491196
      34A     -0.443639    35A     -0.434231    36A     -0.400330

  @DF-RHF Final Energy:  -439.13742334973369

   => Energetics <=

    Nuclear Repulsion Energy =            485.4904771242815400
    One-Electron Energy =               -1561.4889954986181237
    Two-Electron Energy =                 636.8610950246028324
    Total Energy =                       -439.1374233497336945
  Basis Set: (AUG-CC-PVTZ AUX)
    Blend: AUG-CC-PVTZ-RI
    Molecular point group: c1

    Geometry (in Angstrom), charge = 0, multiplicity = 1:

       Center              X                  Y                   Z               Mass
    ------------   -----------------  -----------------  -----------------  -----------------
         O           -2.896767062100    -0.345366687378    -0.256820579974    15.994914619570
         O           -0.582550062100    -1.511083687378     0.082960420026    15.994914619570
         N            0.670493837900     0.337135412622    -0.349806179974    14.003074004430
         C            1.952227937900    -0.304536687378    -0.130140579974    12.000000000000
         C           -1.794826262100     0.511938212622    -0.339157079974    12.000000000000
         C            2.308779937900    -0.309021687378     1.352140420026    12.000000000000
         C            3.007247937900     0.379010312622    -0.985157579974    12.000000000000
         C           -0.509171062100    -0.302285687378    -0.181639579974    12.000000000000
         C           -1.899067062100     1.595027312622     0.735812420026    12.000000000000
         H            1.818258937900    -1.337456687378    -0.463130579974     1.007825032230
         H            0.650856937900     1.354929312622    -0.463299579974     1.007825032230
         H           -1.768822062100     0.995863312622    -1.336105579974     1.007825032230
         H            2.408589937900     0.715715312622     1.723855420026     1.007825032230
         H            1.527665937900    -0.817435687378     1.921685420026     1.007825032230
         H            3.256102937900    -0.829904687378     1.521111420026     1.007825032230
         H            3.130472937900     1.425604312622    -0.684008579974     1.007825032230
         H            2.731604937900     0.350056312622    -2.041766579974     1.007825032230
         H            3.973906937900    -0.116178687378    -0.863858579974     1.007825032230
         H           -1.842048062100     1.127518312622     1.721590420026     1.007825032230
         H           -2.867048062100     2.090975312622     0.643797420026     1.007825032230
         H           -1.114037062100     2.353480312622     0.653863420026     1.007825032230
         H           -2.499002062100    -1.229519687378    -0.094313579974     1.007825032230

  Basis Set: AUG-CC-PVTZ
    Blend: AUG-CC-PVTZ
  Basis Set: (AUG-CC-PVTZ AUX)
    Blend: AUG-CC-PVTZ-JKFIT
	 Reference Energy          =    -439.1374233497336945 [Eh]
	 Singles Energy            =      -0.0000000000000000 [Eh]
	 Same-Spin Energy          =      -0.4461332519602174 [Eh]
	 Opposite-Spin Energy      =      -1.4635748360008662 [Eh]
	 Correlation Energy        =      -1.9097080879610837 [Eh]
	 Total Energy              =    -441.0471314376947589 [Eh]

	 ================> DF-SCS-MP2 Energies <==================
	-----------------------------------------------------------
	 SCS Same-Spin Scale       =       0.3333333333333333 [-]
	 SCS Opposite-Spin Scale   =       1.2000000000000000 [-]
	 SCS Same-Spin Energy      =      -0.1487110839867391 [Eh]
	 SCS Opposite-Spin Energy  =      -1.7562898032010394 [Eh]
	 SCS Correlation Energy    =      -1.9050008871877786 [Eh]
	 SCS Total Energy          =    -441.0424242369214767 [Eh]
	-----------------------------------------------------------

  Dipole Moment: [D]
     X:     3.5226      Y:     2.8991      Z:    -0.2309     Total:     4.5680

*** Psi4 exiting successfully. Buy a developer a beer!
