                               Psi4 1.4a3.dev225

  ==> Input File <==

--------------------------------------------------------------------------
#psi4
#
memory 32 gb

molecule  {
0 1
  O       -1.7446660    -1.3796590    -0.7880960
  O       -0.4296620     1.7569970     0.2600660
  N        0.4723820    -0.3330750    -0.0012650
  C        1.8394770     0.0732600     0.3013020
  C       -1.9099390    -0.0103690    -0.3967440
  C        2.4958720     0.7244850    -0.9128940
  C        2.6145980    -1.1365250     0.8043010
  C       -0.5461265     0.5395050    -0.0316105
  C       -2.8608870     0.1360220     0.7815810
  H        1.7638430     0.8203410     1.0982830
  H        0.2750420    -1.2730860    -0.3263580
  H       -2.2722210     0.5864250    -1.2458220
  H        2.5570320     0.0100450    -1.7401110
  H        1.9072700     1.5874400    -1.2316560
  H        3.5085800     1.0627310    -0.6705710
  H        2.6773940    -1.9046250     0.0252330
  H        2.1327900    -1.5715010     1.6841320
  H        3.6348850    -0.8497170     1.0733550
  H       -2.5011890    -0.4705790     1.6169940
  H       -3.8694610    -0.1962540     0.5126420
  H       -2.9055320     1.1820880     1.0905810
  H       -2.6295620    -1.7449530    -0.9570530
units angstrom
no_reorient  #important for SAPT in psi4, default
symmetry c1  #important for SAPT in psi4, default
}

set PROPERTIES_ORIGIN ["COM"]
properties('MP2/aug-cc-pvtz', properties = ['dipole'])
--------------------------------------------------------------------------

    Molecular point group: c1
  Charge       = 0
  Multiplicity = 1
  Basis Set: AUG-CC-PVTZ
    Blend: AUG-CC-PVTZ
  Basis Set: (AUG-CC-PVTZ AUX)
    Blend: AUG-CC-PVTZ-JKFIT

    Orbital Energies [Eh]
    ---------------------

    Doubly Occupied:

       1A    -20.581473     2A    -20.504987     3A    -15.578776
       4A    -11.342874     5A    -11.301747     6A    -11.265374
       7A    -11.229300     8A    -11.222300     9A    -11.209894
      10A     -1.387642    11A     -1.348397    12A     -1.229204
      13A     -1.059724    14A     -1.029734    15A     -0.937907
      16A     -0.899480    17A     -0.815961    18A     -0.779401
      19A     -0.713595    20A     -0.689934    21A     -0.645301
      22A     -0.641022    23A     -0.615312    24A     -0.588904
      25A     -0.578018    26A     -0.563104    27A     -0.551272
      28A     -0.543163    29A     -0.526393    30A     -0.519125
      31A     -0.516185    32A     -0.490257    33A     -0.480578
      34A     -0.458825    35A     -0.412837    36A     -0.382062

  @DF-RHF Final Energy:  -439.13594812709670

   => Energetics <=

    Nuclear Repulsion Energy =            485.9392801278612524
    One-Electron Energy =               -1562.8703347941059292
    Two-Electron Energy =                 637.7951065391478096
    Total Energy =                       -439.1359481270967535
  Basis Set: (AUG-CC-PVTZ AUX)
    Blend: AUG-CC-PVTZ-RI
    Molecular point group: c1

    Geometry (in Angstrom), charge = 0, multiplicity = 1:

       Center              X                  Y                   Z               Mass
    ------------   -----------------  -----------------  -----------------  -----------------
         O           -1.712207741790    -1.398765017410    -0.780655884934    15.994914619570
         O           -0.397203741790     1.737890982590     0.267506115066    15.994914619570
         N            0.504840258210    -0.352181017410     0.006175115066    14.003074004430
         C            1.871935258210     0.054153982590     0.308742115066    12.000000000000
         C           -1.877480741790    -0.029475017410    -0.389303884934    12.000000000000
         C            2.528330258210     0.705378982590    -0.905453884934    12.000000000000
         C            2.647056258210    -1.155631017410     0.811741115066    12.000000000000
         C           -0.513668241790     0.520398982590    -0.024170384934    12.000000000000
         C           -2.828428741790     0.116915982590     0.789021115066    12.000000000000
         H            1.796301258210     0.801234982590     1.105723115066     1.007825032230
         H            0.307500258210    -1.292192017410    -0.318917884934     1.007825032230
         H           -2.239762741790     0.567318982590    -1.238381884934     1.007825032230
         H            2.589490258210    -0.009061017410    -1.732670884934     1.007825032230
         H            1.939728258210     1.568333982590    -1.224215884934     1.007825032230
         H            3.541038258210     1.043624982590    -0.663130884934     1.007825032230
         H            2.709852258210    -1.923731017410     0.032673115066     1.007825032230
         H            2.165248258210    -1.590607017410     1.691572115066     1.007825032230
         H            3.667343258210    -0.868823017410     1.080795115066     1.007825032230
         H           -2.468730741790    -0.489685017410     1.624434115066     1.007825032230
         H           -3.837002741790    -0.215360017410     0.520082115066     1.007825032230
         H           -2.873073741790     1.162981982590     1.098021115066     1.007825032230
         H           -2.597103741790    -1.764059017410    -0.949612884934     1.007825032230

  Basis Set: AUG-CC-PVTZ
    Blend: AUG-CC-PVTZ
  Basis Set: (AUG-CC-PVTZ AUX)
    Blend: AUG-CC-PVTZ-JKFIT
	 Reference Energy          =    -439.1359481270966967 [Eh]
	 Singles Energy            =      -0.0000000000000000 [Eh]
	 Same-Spin Energy          =      -0.4458671180740079 [Eh]
	 Opposite-Spin Energy      =      -1.4641854733669628 [Eh]
	 Correlation Energy        =      -1.9100525914409707 [Eh]
	 Total Energy              =    -441.0460007185376412 [Eh]

	 ================> DF-SCS-MP2 Energies <==================
	-----------------------------------------------------------
	 SCS Same-Spin Scale       =       0.3333333333333333 [-]
	 SCS Opposite-Spin Scale   =       1.2000000000000000 [-]
	 SCS Same-Spin Energy      =      -0.1486223726913359 [Eh]
	 SCS Opposite-Spin Energy  =      -1.7570225680403553 [Eh]
	 SCS Correlation Energy    =      -1.9056449407316913 [Eh]
	 SCS Total Energy          =    -441.0415930678283871 [Eh]
	-----------------------------------------------------------

  Dipole Moment: [D]
     X:    -0.6263      Y:    -3.0049      Z:    -0.4818     Total:     3.1070

*** Psi4 exiting successfully. Buy a developer a beer!
