                               Psi4 1.4a3.dev225

  ==> Input File <==

--------------------------------------------------------------------------
#psi4
#
memory 32 gb

molecule  {
0 1
  O       -1.7446660    -1.3796590    -0.7880960
  O       -0.4296620     1.7569970     0.2600660
  N        0.4723820    -0.3330750    -0.0012650
  C        1.8394770     0.0732600     0.3013020
  C       -1.9099390    -0.0103690    -0.3967440
  C        2.4958720     0.7244850    -0.9128940
  C        2.6145980    -1.1365250     0.8043010
  C       -0.4994999     0.5775339    -0.0148478
  C       -2.8608870     0.1360220     0.7815810
  H        1.7638430     0.8203410     1.0982830
  H        0.2750420    -1.2730860    -0.3263580
  H       -2.2722210     0.5864250    -1.2458220
  H        2.5570320     0.0100450    -1.7401110
  H        1.9072700     1.5874400    -1.2316560
  H        3.5085800     1.0627310    -0.6705710
  H        2.6773940    -1.9046250     0.0252330
  H        2.1327900    -1.5715010     1.6841320
  H        3.6348850    -0.8497170     1.0733550
  H       -2.5011890    -0.4705790     1.6169940
  H       -3.8694610    -0.1962540     0.5126420
  H       -2.9055320     1.1820880     1.0905810
  H       -2.6295620    -1.7449530    -0.9570530
units angstrom
no_reorient  #important for SAPT in psi4, default
symmetry c1  #important for SAPT in psi4, default
}

set PROPERTIES_ORIGIN ["COM"]
properties('MP2/aug-cc-pvtz', properties = ['dipole'])
--------------------------------------------------------------------------

    Molecular point group: c1
  Charge       = 0
  Multiplicity = 1
  Basis Set: AUG-CC-PVTZ
    Blend: AUG-CC-PVTZ
  Basis Set: (AUG-CC-PVTZ AUX)
    Blend: AUG-CC-PVTZ-JKFIT

    Orbital Energies [Eh]
    ---------------------

    Doubly Occupied:

       1A    -20.577796     2A    -20.511214     3A    -15.576466
       4A    -11.339999     5A    -11.297331     6A    -11.264813
       7A    -11.225543     8A    -11.222316     9A    -11.210856
      10A     -1.389076    11A     -1.368169    12A     -1.237511
      13A     -1.056319    14A     -1.023451    15A     -0.938703
      16A     -0.887634    17A     -0.813390    18A     -0.785597
      19A     -0.708571    20A     -0.686542    21A     -0.646122
      22A     -0.638982    23A     -0.615362    24A     -0.599638
      25A     -0.582528    26A     -0.561096    27A     -0.550374
      28A     -0.543591    29A     -0.524647    30A     -0.523829
      31A     -0.517909    32A     -0.492995    33A     -0.481634
      34A     -0.457784    35A     -0.407092    36A     -0.387279

  @DF-RHF Final Energy:  -439.13750804893090

   => Energetics <=

    Nuclear Repulsion Energy =            486.1351466849361600
    One-Electron Energy =               -1563.2409953722913087
    Two-Electron Energy =                 637.9683406384242517
    Total Energy =                       -439.1375080489308402
  Basis Set: (AUG-CC-PVTZ AUX)
    Blend: AUG-CC-PVTZ-RI
    Molecular point group: c1

    Geometry (in Angstrom), charge = 0, multiplicity = 1:

       Center              X                  Y                   Z               Mass
    ------------   -----------------  -----------------  -----------------  -----------------
         O           -1.716475797664    -1.402246066211    -0.782190291050    15.994914619570
         O           -0.401471797664     1.734409933789     0.265971708950    15.994914619570
         N            0.500572202336    -0.355662066211     0.004640708950    14.003074004430
         C            1.867667202336     0.050672933789     0.307207708950    12.000000000000
         C           -1.881748797664    -0.032956066211    -0.390838291050    12.000000000000
         C            2.524062202336     0.701897933789    -0.906988291050    12.000000000000
         C            2.642788202336    -1.159112066211     0.810206708950    12.000000000000
         C           -0.471309697664     0.554946833789    -0.008942091050    12.000000000000
         C           -2.832696797664     0.113434933789     0.787486708950    12.000000000000
         H            1.792033202336     0.797753933789     1.104188708950     1.007825032230
         H            0.303232202336    -1.295673066211    -0.320452291050     1.007825032230
         H           -2.244030797664     0.563837933789    -1.239916291050     1.007825032230
         H            2.585222202336    -0.012542066211    -1.734205291050     1.007825032230
         H            1.935460202336     1.564852933789    -1.225750291050     1.007825032230
         H            3.536770202336     1.040143933789    -0.664665291050     1.007825032230
         H            2.705584202336    -1.927212066211     0.031138708950     1.007825032230
         H            2.160980202336    -1.594088066211     1.690037708950     1.007825032230
         H            3.663075202336    -0.872304066211     1.079260708950     1.007825032230
         H           -2.472998797664    -0.493166066211     1.622899708950     1.007825032230
         H           -3.841270797664    -0.218841066211     0.518547708950     1.007825032230
         H           -2.877341797664     1.159500933789     1.096486708950     1.007825032230
         H           -2.601371797664    -1.767540066211    -0.951147291050     1.007825032230

  Basis Set: AUG-CC-PVTZ
    Blend: AUG-CC-PVTZ
  Basis Set: (AUG-CC-PVTZ AUX)
    Blend: AUG-CC-PVTZ-JKFIT
	 Reference Energy          =    -439.1375080489308971 [Eh]
	 Singles Energy            =      -0.0000000000000000 [Eh]
	 Same-Spin Energy          =      -0.4448767249725143 [Eh]
	 Opposite-Spin Energy      =      -1.4622233527127206 [Eh]
	 Correlation Energy        =      -1.9071000776852349 [Eh]
	 Total Energy              =    -441.0446081266161400 [Eh]

	 ================> DF-SCS-MP2 Energies <==================
	-----------------------------------------------------------
	 SCS Same-Spin Scale       =       0.3333333333333333 [-]
	 SCS Opposite-Spin Scale   =       1.2000000000000000 [-]
	 SCS Same-Spin Energy      =      -0.1482922416575048 [Eh]
	 SCS Opposite-Spin Energy  =      -1.7546680232552647 [Eh]
	 SCS Correlation Energy    =      -1.9029602649127695 [Eh]
	 SCS Total Energy          =    -441.0404683138436894 [Eh]
	-----------------------------------------------------------

  Dipole Moment: [D]
     X:    -0.4318      Y:    -2.7954      Z:    -0.4296     Total:     2.8610

*** Psi4 exiting successfully. Buy a developer a beer!
