                               Psi4 1.4a3.dev225

  ==> Input File <==

--------------------------------------------------------------------------
#psi4
#
memory 32 gb

molecule  {
0 1
  O       -1.7446660    -1.3796590    -0.7880960
  O       -0.4296620     1.7569970     0.2600660
  N        0.4723820    -0.3330750    -0.0012650
  C        1.8394770     0.0732600     0.3013020
  C       -1.9099390    -0.0103690    -0.3967440
  C        2.4958720     0.7244850    -0.9128940
  C        2.6145980    -1.1365250     0.8043010
  C       -0.5818526     0.5918399    -0.0279212
  C       -2.8608870     0.1360220     0.7815810
  H        1.7638430     0.8203410     1.0982830
  H        0.2750420    -1.2730860    -0.3263580
  H       -2.2722210     0.5864250    -1.2458220
  H        2.5570320     0.0100450    -1.7401110
  H        1.9072700     1.5874400    -1.2316560
  H        3.5085800     1.0627310    -0.6705710
  H        2.6773940    -1.9046250     0.0252330
  H        2.1327900    -1.5715010     1.6841320
  H        3.6348850    -0.8497170     1.0733550
  H       -2.5011890    -0.4705790     1.6169940
  H       -3.8694610    -0.1962540     0.5126420
  H       -2.9055320     1.1820880     1.0905810
  H       -2.6295620    -1.7449530    -0.9570530
units angstrom
no_reorient  #important for SAPT in psi4, default
symmetry c1  #important for SAPT in psi4, default
}

set PROPERTIES_ORIGIN ["COM"]
properties('MP2/aug-cc-pvtz', properties = ['dipole'])
--------------------------------------------------------------------------

    Molecular point group: c1
  Charge       = 0
  Multiplicity = 1
  Basis Set: AUG-CC-PVTZ
    Blend: AUG-CC-PVTZ
  Basis Set: (AUG-CC-PVTZ AUX)
    Blend: AUG-CC-PVTZ-JKFIT

    Orbital Energies [Eh]
    ---------------------

    Doubly Occupied:

       1A    -20.582692     2A    -20.518998     3A    -15.566603
       4A    -11.346048     5A    -11.302365     6A    -11.259556
       7A    -11.231336     8A    -11.217968     9A    -11.206275
      10A     -1.393871    11A     -1.373480    12A     -1.213560
      13A     -1.056700    14A     -1.026787    15A     -0.933770
      16A     -0.900967    17A     -0.807875    18A     -0.767274
      19A     -0.712984    20A     -0.694647    21A     -0.644937
      22A     -0.639748    23A     -0.610481    24A     -0.603584
      25A     -0.576414    26A     -0.565113    27A     -0.553044
      28A     -0.539181    29A     -0.526380    30A     -0.523332
      31A     -0.518095    32A     -0.490614    33A     -0.477815
      34A     -0.461037    35A     -0.418366    36A     -0.377644

  @DF-RHF Final Energy:  -439.13553927769050

   => Energetics <=

    Nuclear Repulsion Energy =            485.7258036072478262
    One-Electron Energy =               -1562.4436011168609184
    Two-Electron Energy =                 637.5822582319226512
    Total Energy =                       -439.1355392776904409
  Basis Set: (AUG-CC-PVTZ AUX)
    Blend: AUG-CC-PVTZ-RI
    Molecular point group: c1

    Geometry (in Angstrom), charge = 0, multiplicity = 1:

       Center              X                  Y                   Z               Mass
    ------------   -----------------  -----------------  -----------------  -----------------
         O           -1.708937484233    -1.403555593549    -0.780993592134    15.994914619570
         O           -0.393933484233     1.733100406451     0.267168407866    15.994914619570
         N            0.508110515767    -0.356971593549     0.005837407866    14.003074004430
         C            1.875205515767     0.049363406451     0.308404407866    12.000000000000
         C           -1.874210484233    -0.034265593549    -0.389641592134    12.000000000000
         C            2.531600515767     0.700588406451    -0.905791592134    12.000000000000
         C            2.650326515767    -1.160421593549     0.811403407866    12.000000000000
         C           -0.546124084233     0.567943306451    -0.020818792134    12.000000000000
         C           -2.825158484233     0.112125406451     0.788683407866    12.000000000000
         H            1.799571515767     0.796444406451     1.105385407866     1.007825032230
         H            0.310770515767    -1.296982593549    -0.319255592134     1.007825032230
         H           -2.236492484233     0.562528406451    -1.238719592134     1.007825032230
         H            2.592760515767    -0.013851593549    -1.733008592134     1.007825032230
         H            1.942998515767     1.563543406451    -1.224553592134     1.007825032230
         H            3.544308515767     1.038834406451    -0.663468592134     1.007825032230
         H            2.713122515767    -1.928521593549     0.032335407866     1.007825032230
         H            2.168518515767    -1.595397593549     1.691234407866     1.007825032230
         H            3.670613515767    -0.873613593549     1.080457407866     1.007825032230
         H           -2.465460484233    -0.494475593549     1.624096407866     1.007825032230
         H           -3.833732484233    -0.220150593549     0.519744407866     1.007825032230
         H           -2.869803484233     1.158191406451     1.097683407866     1.007825032230
         H           -2.593833484233    -1.768849593549    -0.949950592134     1.007825032230

  Basis Set: AUG-CC-PVTZ
    Blend: AUG-CC-PVTZ
  Basis Set: (AUG-CC-PVTZ AUX)
    Blend: AUG-CC-PVTZ-JKFIT
	 Reference Energy          =    -439.1355392776904978 [Eh]
	 Singles Energy            =      -0.0000000000000000 [Eh]
	 Same-Spin Energy          =      -0.4453266977228303 [Eh]
	 Opposite-Spin Energy      =      -1.4631624414903550 [Eh]
	 Correlation Energy        =      -1.9084891392131853 [Eh]
	 Total Energy              =    -441.0440284169037000 [Eh]

	 ================> DF-SCS-MP2 Energies <==================
	-----------------------------------------------------------
	 SCS Same-Spin Scale       =       0.3333333333333333 [-]
	 SCS Opposite-Spin Scale   =       1.2000000000000000 [-]
	 SCS Same-Spin Energy      =      -0.1484422325742768 [Eh]
	 SCS Opposite-Spin Energy  =      -1.7557949297884259 [Eh]
	 SCS Correlation Energy    =      -1.9042371623627026 [Eh]
	 SCS Total Energy          =    -441.0397764400531742 [Eh]
	-----------------------------------------------------------

  Dipole Moment: [D]
     X:    -1.0114      Y:    -2.6040      Z:    -0.4462     Total:     2.8289

*** Psi4 exiting successfully. Buy a developer a beer!
