                               Psi4 1.3.2 release

  ==> Input File <==

--------------------------------------------------------------------------
#psi4
#
memory 32 gb

molecule  {
0 1
  O       -2.8968130    -0.3474360    -0.2563530
  O       -0.5825960    -1.5131530     0.0834280
  N        0.6646380     0.3451110    -0.3514860
  C        1.9521820    -0.3066060    -0.1296730
  C       -1.7875910     0.5207530    -0.3412920
  C        2.3087340    -0.3110910     1.3526080
  C        3.0072020     0.3769410    -0.9846900
  C       -0.4973778    -0.1093235    -0.2238634
  C       -1.8991130     1.5929580     0.7362800
  H        1.8182130    -1.3395260    -0.4626630
  H        0.6508110     1.3528600    -0.4628320
  H       -1.7688680     0.9937940    -1.3356380
  H        2.4085440     0.7136460     1.7243230
  H        1.5276200    -0.8195050     1.9221530
  H        3.2560570    -0.8319740     1.5215790
  H        3.1304270     1.4235350    -0.6835410
  H        2.7315590     0.3479870    -2.0412990
  H        3.9738610    -0.1182480    -0.8633910
  H       -1.8420940     1.1254490     1.7220580
  H       -2.8670940     2.0889060     0.6442650
  H       -1.1140830     2.3514110     0.6543310
  H       -2.4990480    -1.2315890    -0.0938460
units angstrom
no_reorient  #important for SAPT in psi4, default
symmetry c1  #important for SAPT in psi4, default
}

set PROPERTIES_ORIGIN ["COM"]
properties('MP2/aug-cc-pvtz', properties = ['dipole'])
--------------------------------------------------------------------------

    Molecular point group: c1
  Charge       = 0
  Multiplicity = 1
  Basis Set: AUG-CC-PVTZ
    Blend: AUG-CC-PVTZ
  Basis Set: (AUG-CC-PVTZ AUX)
    Blend: AUG-CC-PVTZ-JKFIT

    Orbital Energies [Eh]
    ---------------------

    Doubly Occupied:

       1A    -20.547844     2A    -20.492386     3A    -15.624956
       4A    -11.357263     5A    -11.301950     6A    -11.290786
       7A    -11.241339     8A    -11.236196     9A    -11.228944
      10A     -1.369262    11A     -1.335373    12A     -1.208628
      13A     -1.095307    14A     -1.043208    15A     -0.957489
      16A     -0.914876    17A     -0.846707    18A     -0.809967
      19A     -0.741497    20A     -0.685583    21A     -0.659832
      22A     -0.639080    23A     -0.618959    24A     -0.589912
      25A     -0.574252    26A     -0.563343    27A     -0.558330
      28A     -0.553041    29A     -0.543227    30A     -0.531356
      31A     -0.504042    32A     -0.488145    33A     -0.478749
      34A     -0.442505    35A     -0.407409    36A     -0.386402

  @DF-RHF Final Energy:  -439.07328239042420

   => Energetics <=

    Nuclear Repulsion Energy =            485.1223874146816684
    One-Electron Energy =               -1560.6550484491795032
    Two-Electron Energy =                 636.4593786440735812
    Total Energy =                       -439.0732823904241968
  Basis Set: (AUG-CC-PVTZ AUX)
    Blend: AUG-CC-PVTZ-RI
    Molecular point group: c1

    Geometry (in Angstrom), charge = 0, multiplicity = 1:

       Center              X                  Y                   Z               Mass
    ------------   -----------------  -----------------  -----------------  -----------------
         O           -2.897896691451    -0.365288530894    -0.252445137540    15.994914619570
         O           -0.583679691451    -1.531005530894     0.087335862460    15.994914619570
         N            0.663554308549     0.327258469106    -0.347578137540    14.003074004430
         C            1.951098308549    -0.324458530894    -0.125765137540    12.000000000000
         C           -1.788674691451     0.502900469106    -0.337384137540    12.000000000000
         C            2.307650308549    -0.328943530894     1.356515862460    12.000000000000
         C            3.006118308549     0.359088469106    -0.980782137540    12.000000000000
         C           -0.498461491451    -0.127176030894    -0.219955537540    12.000000000000
         C           -1.900196691451     1.575105469106     0.740187862460    12.000000000000
         H            1.817129308549    -1.357378530894    -0.458755137540     1.007825032230
         H            0.649727308549     1.335007469106    -0.458924137540     1.007825032230
         H           -1.769951691451     0.975941469106    -1.331730137540     1.007825032230
         H            2.407460308549     0.695793469106     1.728230862460     1.007825032230
         H            1.526536308549    -0.837357530894     1.926060862460     1.007825032230
         H            3.254973308549    -0.849826530894     1.525486862460     1.007825032230
         H            3.129343308549     1.405682469106    -0.679633137540     1.007825032230
         H            2.730475308549     0.330134469106    -2.037391137540     1.007825032230
         H            3.972777308549    -0.136100530894    -0.859483137540     1.007825032230
         H           -1.843177691451     1.107596469106     1.725965862460     1.007825032230
         H           -2.868177691451     2.071053469106     0.648172862460     1.007825032230
         H           -1.115166691451     2.333558469106     0.658238862460     1.007825032230
         H           -2.500131691451    -1.249441530894    -0.089938137540     1.007825032230

  Basis Set: AUG-CC-PVTZ
    Blend: AUG-CC-PVTZ
  Basis Set: (AUG-CC-PVTZ AUX)
    Blend: AUG-CC-PVTZ-JKFIT
	 Reference Energy          =    -439.0732823904241968 [Eh]
	 Singles Energy            =      -0.0000000000000000 [Eh]
	 Same-Spin Energy          =      -0.4501462988031801 [Eh]
	 Opposite-Spin Energy      =      -1.4716926226458140 [Eh]
	 Correlation Energy        =      -1.9218389214489942 [Eh]
	 Total Energy              =    -440.9951213118731630 [Eh]

	 ================> DF-SCS-MP2 Energies <==================
	-----------------------------------------------------------
	 SCS Same-Spin Scale       =       0.3333333333333333 [-]
	 SCS Opposite-Spin Scale   =       1.2000000000000000 [-]
	 SCS Same-Spin Energy      =      -0.1500487662677267 [Eh]
	 SCS Opposite-Spin Energy  =      -1.7660311471749768 [Eh]
	 SCS Correlation Energy    =      -1.9160799134427036 [Eh]
	 SCS Total Energy          =    -440.9893623038669261 [Eh]
	-----------------------------------------------------------

  Dipole Moment: [D]
     X:     4.2385      Y:     3.9667      Z:    -0.3850     Total:     5.8179

*** Psi4 exiting successfully. Buy a developer a beer!
