                               Psi4 1.3.2 release

  ==> Input File <==

--------------------------------------------------------------------------
#psi4
#
memory 32 gb

molecule  {
0 1
  O       -2.8968130    -0.3474360    -0.2563530
  O       -0.5825960    -1.5131530     0.0834280
  N        0.6646380     0.3451110    -0.3514860
  C        1.9521820    -0.3066060    -0.1296730
  C       -1.7800448     0.5112118    -0.3393764
  C        2.3087340    -0.3110910     1.3526080
  C        3.0072020     0.3769410    -0.9846900
  C       -0.5092170    -0.3043550    -0.1811720
  C       -1.8991130     1.5929580     0.7362800
  H        1.8182130    -1.3395260    -0.4626630
  H        0.6508110     1.3528600    -0.4628320
  H       -1.7688680     0.9937940    -1.3356380
  H        2.4085440     0.7136460     1.7243230
  H        1.5276200    -0.8195050     1.9221530
  H        3.2560570    -0.8319740     1.5215790
  H        3.1304270     1.4235350    -0.6835410
  H        2.7315590     0.3479870    -2.0412990
  H        3.9738610    -0.1182480    -0.8633910
  H       -1.8420940     1.1254490     1.7220580
  H       -2.8670940     2.0889060     0.6442650
  H       -1.1140830     2.3514110     0.6543310
  H       -2.4912296    -1.2280631    -0.0940261
units angstrom
no_reorient  #important for SAPT in psi4, default
symmetry c1  #important for SAPT in psi4, default
}

set PROPERTIES_ORIGIN ["COM"]
properties('MP2/aug-cc-pvtz', properties = ['dipole'])
--------------------------------------------------------------------------

    Molecular point group: c1
  Charge       = 0
  Multiplicity = 1
  Basis Set: AUG-CC-PVTZ
    Blend: AUG-CC-PVTZ
  Basis Set: (AUG-CC-PVTZ AUX)
    Blend: AUG-CC-PVTZ-JKFIT

    Orbital Energies [Eh]
    ---------------------

    Doubly Occupied:

       1A    -20.548226     2A    -20.532826     3A    -15.595977
       4A    -11.358476     5A    -11.297261     6A    -11.277448
       7A    -11.232457     8A    -11.231096     9A    -11.222383
      10A     -1.398311    11A     -1.346281    12A     -1.248393
      13A     -1.072702    14A     -1.023034    15A     -0.949999
      16A     -0.896723    17A     -0.822247    18A     -0.794976
      19A     -0.737656    20A     -0.678763    21A     -0.648905
      22A     -0.632597    23A     -0.629010    24A     -0.597238
      25A     -0.581323    26A     -0.566661    27A     -0.555279
      28A     -0.548536    29A     -0.539491    30A     -0.529744
      31A     -0.513950    32A     -0.502952    33A     -0.491802
      34A     -0.443601    35A     -0.436276    36A     -0.401646

  @DF-RHF Final Energy:  -439.13751332140970

   => Energetics <=

    Nuclear Repulsion Energy =            485.4822711417297683
    One-Electron Energy =               -1561.4710726216324019
    Two-Electron Energy =                 636.8512881584928209
    Total Energy =                       -439.1375133214097559
  Basis Set: (AUG-CC-PVTZ AUX)
    Blend: AUG-CC-PVTZ-RI
    Molecular point group: c1

    Geometry (in Angstrom), charge = 0, multiplicity = 1:

       Center              X                  Y                   Z               Mass
    ------------   -----------------  -----------------  -----------------  -----------------
         O           -2.897563829447    -0.346589680036    -0.256526940862    15.994914619570
         O           -0.583346829447    -1.512306680036     0.083254059138    15.994914619570
         N            0.663887170553     0.345957319964    -0.351659940862    14.003074004430
         C            1.951431170553    -0.305759680036    -0.129846940862    12.000000000000
         C           -1.780795629447     0.512058119964    -0.339550340862    12.000000000000
         C            2.307983170553    -0.310244680036     1.352434059138    12.000000000000
         C            3.006451170553     0.377787319964    -0.984863940862    12.000000000000
         C           -0.509967829447    -0.303508680036    -0.181345940862    12.000000000000
         C           -1.899863829447     1.593804319964     0.736106059138    12.000000000000
         H            1.817462170553    -1.338679680036    -0.462836940862     1.007825032230
         H            0.650060170553     1.353706319964    -0.463005940862     1.007825032230
         H           -1.769618829447     0.994640319964    -1.335811940862     1.007825032230
         H            2.407793170553     0.714492319964     1.724149059138     1.007825032230
         H            1.526869170553    -0.818658680036     1.921979059138     1.007825032230
         H            3.255306170553    -0.831127680036     1.521405059138     1.007825032230
         H            3.129676170553     1.424381319964    -0.683714940862     1.007825032230
         H            2.730808170553     0.348833319964    -2.041472940862     1.007825032230
         H            3.973110170553    -0.117401680036    -0.863564940862     1.007825032230
         H           -1.842844829447     1.126295319964     1.721884059138     1.007825032230
         H           -2.867844829447     2.089752319964     0.644091059138     1.007825032230
         H           -1.114833829447     2.352257319964     0.654157059138     1.007825032230
         H           -2.491980429447    -1.227216780036    -0.094200040862     1.007825032230

  Basis Set: AUG-CC-PVTZ
    Blend: AUG-CC-PVTZ
  Basis Set: (AUG-CC-PVTZ AUX)
    Blend: AUG-CC-PVTZ-JKFIT
	 Reference Energy          =    -439.1375133214096991 [Eh]
	 Singles Energy            =      -0.0000000000000000 [Eh]
	 Same-Spin Energy          =      -0.4461017149699782 [Eh]
	 Opposite-Spin Energy      =      -1.4637628142051331 [Eh]
	 Correlation Energy        =      -1.9098645291751113 [Eh]
	 Total Energy              =    -441.0473778505848372 [Eh]

	 ================> DF-SCS-MP2 Energies <==================
	-----------------------------------------------------------
	 SCS Same-Spin Scale       =       0.3333333333333333 [-]
	 SCS Opposite-Spin Scale   =       1.2000000000000000 [-]
	 SCS Same-Spin Energy      =      -0.1487005716566594 [Eh]
	 SCS Opposite-Spin Energy  =      -1.7565153770461597 [Eh]
	 SCS Correlation Energy    =      -1.9052159487028191 [Eh]
	 SCS Total Energy          =    -441.0427292701125452 [Eh]
	-----------------------------------------------------------

  Dipole Moment: [D]
     X:     3.5884      Y:     2.9160      Z:    -0.2252     Total:     4.6292

*** Psi4 exiting successfully. Buy a developer a beer!
