                               Psi4 1.3.2 release

  ==> Input File <==

--------------------------------------------------------------------------
#psi4
#
memory 32 gb

molecule  {
0 1
  O       -2.8968130    -0.3474360    -0.2563530
  O       -0.5825960    -1.5131530     0.0834280
  N        0.6646380     0.3451110    -0.3514860
  C        1.9521820    -0.3066060    -0.1296730
  C       -1.7942209     0.5782469    -0.3962310
  C        2.3087340    -0.3110910     1.3526080
  C        3.0072020     0.3769410    -0.9846900
  C       -0.5092170    -0.3043550    -0.1811720
  C       -1.8991130     1.5929580     0.7362800
  H        1.8182130    -1.3395260    -0.4626630
  H        0.6508110     1.3528600    -0.4628320
  H       -1.7688680     0.9937940    -1.3356380
  H        2.4085440     0.7136460     1.7243230
  H        1.5276200    -0.8195050     1.9221530
  H        3.2560570    -0.8319740     1.5215790
  H        3.1304270     1.4235350    -0.6835410
  H        2.7315590     0.3479870    -2.0412990
  H        3.9738610    -0.1182480    -0.8633910
  H       -1.8476631     1.1773894     1.7453537
  H       -2.8670940     2.0889060     0.6442650
  H       -1.1140830     2.3514110     0.6543310
  H       -2.4990480    -1.2315890    -0.0938460
units angstrom
no_reorient  #important for SAPT in psi4, default
symmetry c1  #important for SAPT in psi4, default
}

set PROPERTIES_ORIGIN ["COM"]
properties('MP2/aug-cc-pvtz', properties = ['dipole'])
--------------------------------------------------------------------------

    Molecular point group: c1
  Charge       = 0
  Multiplicity = 1
  Basis Set: AUG-CC-PVTZ
    Blend: AUG-CC-PVTZ
  Basis Set: (AUG-CC-PVTZ AUX)
    Blend: AUG-CC-PVTZ-JKFIT

    Orbital Energies [Eh]
    ---------------------

    Doubly Occupied:

       1A    -20.542748     2A    -20.533010     3A    -15.595371
       4A    -11.359465     5A    -11.297397     6A    -11.276651
       7A    -11.232254     8A    -11.231718     9A    -11.222034
      10A     -1.392194    11A     -1.332646    12A     -1.247610
      13A     -1.071498    14A     -1.024813    15A     -0.949698
      16A     -0.892943    17A     -0.825734    18A     -0.797174
      19A     -0.728377    20A     -0.679559    21A     -0.652349
      22A     -0.630771    23A     -0.627697    24A     -0.597163
      25A     -0.580298    26A     -0.568399    27A     -0.554731
      28A     -0.546871    29A     -0.536270    30A     -0.532868
      31A     -0.505443    32A     -0.502418    33A     -0.490059
      34A     -0.450937    35A     -0.428871    36A     -0.401728

  @DF-RHF Final Energy:  -439.12931037346459

   => Energetics <=

    Nuclear Repulsion Energy =            484.1746866059596641
    One-Electron Energy =               -1558.9284586677304105
    Two-Electron Energy =                 635.6244616883060417
    Total Energy =                       -439.1293103734645911
  Basis Set: (AUG-CC-PVTZ AUX)
    Blend: AUG-CC-PVTZ-RI
    Molecular point group: c1

    Geometry (in Angstrom), charge = 0, multiplicity = 1:

       Center              X                  Y                   Z               Mass
    ------------   -----------------  -----------------  -----------------  -----------------
         O           -2.896163272769    -0.353098066792    -0.251503121748    15.994914619570
         O           -0.581946272769    -1.518815066792     0.088277878252    15.994914619570
         N            0.665287727231     0.339448933208    -0.346636121748    14.003074004430
         C            1.952831727231    -0.312268066792    -0.124823121748    12.000000000000
         C           -1.793571172769     0.572584833208    -0.391381121748    12.000000000000
         C            2.309383727231    -0.316753066792     1.357457878252    12.000000000000
         C            3.007851727231     0.371278933208    -0.979840121748    12.000000000000
         C           -0.508567272769    -0.310017066792    -0.176322121748    12.000000000000
         C           -1.898463272769     1.587295933208     0.741129878252    12.000000000000
         H            1.818862727231    -1.345188066792    -0.457813121748     1.007825032230
         H            0.651460727231     1.347197933208    -0.457982121748     1.007825032230
         H           -1.768218272769     0.988131933208    -1.330788121748     1.007825032230
         H            2.409193727231     0.707983933208     1.729172878252     1.007825032230
         H            1.528269727231    -0.825167066792     1.927002878252     1.007825032230
         H            3.256706727231    -0.837636066792     1.526428878252     1.007825032230
         H            3.131076727231     1.417872933208    -0.678691121748     1.007825032230
         H            2.732208727231     0.342324933208    -2.036449121748     1.007825032230
         H            3.974510727231    -0.123910066792    -0.858541121748     1.007825032230
         H           -1.847013372769     1.171727333208     1.750203578252     1.007825032230
         H           -2.866444272769     2.083243933208     0.649114878252     1.007825032230
         H           -1.113433272769     2.345748933208     0.659180878252     1.007825032230
         H           -2.498398272769    -1.237251066792    -0.088996121748     1.007825032230

  Basis Set: AUG-CC-PVTZ
    Blend: AUG-CC-PVTZ
  Basis Set: (AUG-CC-PVTZ AUX)
    Blend: AUG-CC-PVTZ-JKFIT
	 Reference Energy          =    -439.1293103734645911 [Eh]
	 Singles Energy            =      -0.0000000000000000 [Eh]
	 Same-Spin Energy          =      -0.4459875233449511 [Eh]
	 Opposite-Spin Energy      =      -1.4643621807935205 [Eh]
	 Correlation Energy        =      -1.9103497041384716 [Eh]
	 Total Energy              =    -441.0396600776030596 [Eh]

	 ================> DF-SCS-MP2 Energies <==================
	-----------------------------------------------------------
	 SCS Same-Spin Scale       =       0.3333333333333333 [-]
	 SCS Opposite-Spin Scale   =       1.2000000000000000 [-]
	 SCS Same-Spin Energy      =      -0.1486625077816504 [Eh]
	 SCS Opposite-Spin Energy  =      -1.7572346169522246 [Eh]
	 SCS Correlation Energy    =      -1.9058971247338750 [Eh]
	 SCS Total Energy          =    -441.0352074981984742 [Eh]
	-----------------------------------------------------------

  Dipole Moment: [D]
     X:     3.6662      Y:     3.0070      Z:    -0.2712     Total:     4.7493

*** Psi4 exiting successfully. Buy a developer a beer!
