                               Psi4 1.3.2 release

  ==> Input File <==

--------------------------------------------------------------------------
#psi4
#
memory 32 gb

molecule  {
0 1
  O       -2.8968130    -0.3474360    -0.2563530
  O       -0.5825960    -1.5131530     0.0834280
  N        0.6646380     0.3451110    -0.3514860
  C        1.9521820    -0.3066060    -0.1296730
  C       -1.7875910     0.5207530    -0.3412920
  C        2.3087340    -0.3110910     1.3526080
  C        3.0072020     0.3769410    -0.9846900
  C       -0.5205932    -0.2837201    -0.1825276
  C       -1.8991130     1.5929580     0.7362800
  H        1.8182130    -1.3395260    -0.4626630
  H        0.6331788     1.3526279    -0.4613369
  H       -1.7688680     0.9937940    -1.3356380
  H        2.4085440     0.7136460     1.7243230
  H        1.5276200    -0.8195050     1.9221530
  H        3.2560570    -0.8319740     1.5215790
  H        3.1304270     1.4235350    -0.6835410
  H        2.7315590     0.3479870    -2.0412990
  H        3.9738610    -0.1182480    -0.8633910
  H       -1.8420940     1.1254490     1.7220580
  H       -2.8670940     2.0889060     0.6442650
  H       -1.1140830     2.3514110     0.6543310
  H       -2.4990480    -1.2315890    -0.0938460
units angstrom
no_reorient  #important for SAPT in psi4, default
symmetry c1  #important for SAPT in psi4, default
}

set PROPERTIES_ORIGIN ["COM"]
properties('MP2/aug-cc-pvtz', properties = ['dipole'])
--------------------------------------------------------------------------

    Molecular point group: c1
  Charge       = 0
  Multiplicity = 1
  Basis Set: AUG-CC-PVTZ
    Blend: AUG-CC-PVTZ
  Basis Set: (AUG-CC-PVTZ AUX)
    Blend: AUG-CC-PVTZ-JKFIT

    Orbital Energies [Eh]
    ---------------------

    Doubly Occupied:

       1A    -20.548604     2A    -20.529441     3A    -15.597333
       4A    -11.359433     5A    -11.298490     6A    -11.278207
       7A    -11.232527     8A    -11.232290     9A    -11.222297
      10A     -1.389909    11A     -1.342967    12A     -1.246029
      13A     -1.074517    14A     -1.026440    15A     -0.949877
      16A     -0.899158    17A     -0.824196    18A     -0.792570
      19A     -0.738012    20A     -0.679071    21A     -0.650596
      22A     -0.629729    23A     -0.628429    24A     -0.594157
      25A     -0.581833    26A     -0.568590    27A     -0.555088
      28A     -0.548772    29A     -0.539234    30A     -0.528653
      31A     -0.511244    32A     -0.501306    33A     -0.490805
      34A     -0.445710    35A     -0.435935    36A     -0.400274

  @DF-RHF Final Energy:  -439.13517017169772

   => Energetics <=

    Nuclear Repulsion Energy =            485.2374161416419156
    One-Electron Energy =               -1561.0017234797292076
    Two-Electron Energy =                 636.6291371663895688
    Total Energy =                       -439.1351701716977232
  Basis Set: (AUG-CC-PVTZ AUX)
    Blend: AUG-CC-PVTZ-RI
    Molecular point group: c1

    Geometry (in Angstrom), charge = 0, multiplicity = 1:

       Center              X                  Y                   Z               Mass
    ------------   -----------------  -----------------  -----------------  -----------------
         O           -2.895636072724    -0.349323016994    -0.256240383800    15.994914619570
         O           -0.581419072724    -1.515040016994     0.083540616200    15.994914619570
         N            0.665814927276     0.343223983006    -0.351373383800    14.003074004430
         C            1.953358927276    -0.308493016994    -0.129560383800    12.000000000000
         C           -1.786414072724     0.518865983006    -0.341179383800    12.000000000000
         C            2.309910927276    -0.312978016994     1.352720616200    12.000000000000
         C            3.008378927276     0.375053983006    -0.984577383800    12.000000000000
         C           -0.519416272724    -0.285607116994    -0.182414983800    12.000000000000
         C           -1.897936072724     1.591070983006     0.736392616200    12.000000000000
         H            1.819389927276    -1.341413016994    -0.462550383800     1.007825032230
         H            0.634355727276     1.350740883006    -0.461224283800     1.007825032230
         H           -1.767691072724     0.991906983006    -1.335525383800     1.007825032230
         H            2.409720927276     0.711758983006     1.724435616200     1.007825032230
         H            1.528796927276    -0.821392016994     1.922265616200     1.007825032230
         H            3.257233927276    -0.833861016994     1.521691616200     1.007825032230
         H            3.131603927276     1.421647983006    -0.683428383800     1.007825032230
         H            2.732735927276     0.346099983006    -2.041186383800     1.007825032230
         H            3.975037927276    -0.120135016994    -0.863278383800     1.007825032230
         H           -1.840917072724     1.123561983006     1.722170616200     1.007825032230
         H           -2.865917072724     2.087018983006     0.644377616200     1.007825032230
         H           -1.112906072724     2.349523983006     0.654443616200     1.007825032230
         H           -2.497871072724    -1.233476016994    -0.093733383800     1.007825032230

  Basis Set: AUG-CC-PVTZ
    Blend: AUG-CC-PVTZ
  Basis Set: (AUG-CC-PVTZ AUX)
    Blend: AUG-CC-PVTZ-JKFIT
	 Reference Energy          =    -439.1351701716977232 [Eh]
	 Singles Energy            =      -0.0000000000000000 [Eh]
	 Same-Spin Energy          =      -0.4465438199842638 [Eh]
	 Opposite-Spin Energy      =      -1.4646261774739531 [Eh]
	 Correlation Energy        =      -1.9111699974582170 [Eh]
	 Total Energy              =    -441.0463401691559397 [Eh]

	 ================> DF-SCS-MP2 Energies <==================
	-----------------------------------------------------------
	 SCS Same-Spin Scale       =       0.3333333333333333 [-]
	 SCS Opposite-Spin Scale   =       1.2000000000000000 [-]
	 SCS Same-Spin Energy      =      -0.1488479399947546 [Eh]
	 SCS Opposite-Spin Energy  =      -1.7575514129687437 [Eh]
	 SCS Correlation Energy    =      -1.9063993529634984 [Eh]
	 SCS Total Energy          =    -441.0415695246612131 [Eh]
	-----------------------------------------------------------

  Dipole Moment: [D]
     X:     3.5511      Y:     3.0184      Z:    -0.2319     Total:     4.6664

*** Psi4 exiting successfully. Buy a developer a beer!
