                               Psi4 1.3.2 release

  ==> Input File <==

--------------------------------------------------------------------------
#psi4
#
memory 32 gb

molecule  {
0 1
  O       -2.8968130    -0.3474360    -0.2563530
  O       -0.5825960    -1.5131530     0.0834280
  N        0.6646380     0.3451110    -0.3514860
  C        1.9521820    -0.3066060    -0.1296730
  C       -1.7875910     0.5207530    -0.3412920
  C        2.3087340    -0.3110910     1.3526080
  C        3.0072020     0.3769410    -0.9846900
  C       -0.5092170    -0.3043550    -0.1811720
  C       -1.8991130     1.5929580     0.7362800
  H        1.8182130    -1.3395260    -0.4626630
  H        0.6508110     1.3528600    -0.4628320
  H       -1.7688680     0.9937940    -1.3356380
  H        2.4085440     0.7136460     1.7243230
  H        1.5276200    -0.8195050     1.9221530
  H        3.2560570    -0.8319740     1.5215790
  H        3.1304270     1.4235350    -0.6835410
  H        2.7315590     0.3479870    -2.0412990
  H        3.9738610    -0.1182480    -0.8633910
  H       -1.8420940     1.1254490     1.7220580
  H       -2.8670940     2.0889060     0.6442650
  H       -1.1140830     2.3514110     0.6543310
  H       -2.4585849    -1.3215304    -0.0773148
units angstrom
no_reorient  #important for SAPT in psi4, default
symmetry c1  #important for SAPT in psi4, default
}

set PROPERTIES_ORIGIN ["COM"]
properties('MP2/aug-cc-pvtz', properties = ['dipole'])
--------------------------------------------------------------------------

    Molecular point group: c1
  Charge       = 0
  Multiplicity = 1
  Basis Set: AUG-CC-PVTZ
    Blend: AUG-CC-PVTZ
  Basis Set: (AUG-CC-PVTZ AUX)
    Blend: AUG-CC-PVTZ-JKFIT

    Orbital Energies [Eh]
    ---------------------

    Doubly Occupied:

       1A    -20.549501     2A    -20.535267     3A    -15.596577
       4A    -11.359033     5A    -11.295298     6A    -11.277756
       7A    -11.232700     8A    -11.229586     9A    -11.222738
      10A     -1.395920    11A     -1.328501    12A     -1.248982
      13A     -1.071603    14A     -1.019902    15A     -0.950312
      16A     -0.893880    17A     -0.820482    18A     -0.794564
      19A     -0.726828    20A     -0.677079    21A     -0.645619
      22A     -0.631192    23A     -0.628850    24A     -0.597678
      25A     -0.579271    26A     -0.562756    27A     -0.555413
      28A     -0.547423    29A     -0.537974    30A     -0.529064
      31A     -0.504182    32A     -0.501461    33A     -0.491333
      34A     -0.440000    35A     -0.436604    36A     -0.402415

  @DF-RHF Final Energy:  -439.12502821077459

   => Energetics <=

    Nuclear Repulsion Energy =            484.8736582167489360
    One-Electron Energy =               -1560.3618819579462524
    Two-Electron Energy =                 636.3631955304226722
    Total Energy =                       -439.1250282107746443
  Basis Set: (AUG-CC-PVTZ AUX)
    Blend: AUG-CC-PVTZ-RI
    Molecular point group: c1

    Geometry (in Angstrom), charge = 0, multiplicity = 1:

       Center              X                  Y                   Z               Mass
    ------------   -----------------  -----------------  -----------------  -----------------
         O           -2.897124038323    -0.346744497328    -0.256480065306    15.994914619570
         O           -0.582907038323    -1.512461497328     0.083300934694    15.994914619570
         N            0.664326961677     0.345802502672    -0.351613065306    14.003074004430
         C            1.951870961677    -0.305914497328    -0.129800065306    12.000000000000
         C           -1.787902038323     0.521444502672    -0.341419065306    12.000000000000
         C            2.308422961677    -0.310399497328     1.352480934694    12.000000000000
         C            3.006890961677     0.377632502672    -0.984817065306    12.000000000000
         C           -0.509528038323    -0.303663497328    -0.181299065306    12.000000000000
         C           -1.899424038323     1.593649502672     0.736152934694    12.000000000000
         H            1.817901961677    -1.338834497328    -0.462790065306     1.007825032230
         H            0.650499961677     1.353551502672    -0.462959065306     1.007825032230
         H           -1.769179038323     0.994485502672    -1.335765065306     1.007825032230
         H            2.408232961677     0.714337502672     1.724195934694     1.007825032230
         H            1.527308961677    -0.818813497328     1.922025934694     1.007825032230
         H            3.255745961677    -0.831282497328     1.521451934694     1.007825032230
         H            3.130115961677     1.424226502672    -0.683668065306     1.007825032230
         H            2.731247961677     0.348678502672    -2.041426065306     1.007825032230
         H            3.973549961677    -0.117556497328    -0.863518065306     1.007825032230
         H           -1.842405038323     1.126140502672     1.721930934694     1.007825032230
         H           -2.867405038323     2.089597502672     0.644137934694     1.007825032230
         H           -1.114394038323     2.352102502672     0.654203934694     1.007825032230
         H           -2.458895938323    -1.320838897328    -0.077441865306     1.007825032230

  Basis Set: AUG-CC-PVTZ
    Blend: AUG-CC-PVTZ
  Basis Set: (AUG-CC-PVTZ AUX)
    Blend: AUG-CC-PVTZ-JKFIT
	 Reference Energy          =    -439.1250282107745875 [Eh]
	 Singles Energy            =      -0.0000000000000000 [Eh]
	 Same-Spin Energy          =      -0.4476176084621623 [Eh]
	 Opposite-Spin Energy      =      -1.4668801493452035 [Eh]
	 Correlation Energy        =      -1.9144977578073659 [Eh]
	 Total Energy              =    -441.0395259685819269 [Eh]

	 ================> DF-SCS-MP2 Energies <==================
	-----------------------------------------------------------
	 SCS Same-Spin Scale       =       0.3333333333333333 [-]
	 SCS Opposite-Spin Scale   =       1.2000000000000000 [-]
	 SCS Same-Spin Energy      =      -0.1492058694873874 [Eh]
	 SCS Opposite-Spin Energy  =      -1.7602561792142442 [Eh]
	 SCS Correlation Energy    =      -1.9094620487016316 [Eh]
	 SCS Total Energy          =    -441.0344902594762289 [Eh]
	-----------------------------------------------------------

  Dipole Moment: [D]
     X:     3.7233      Y:     2.7982      Z:    -0.2022     Total:     4.6620

*** Psi4 exiting successfully. Buy a developer a beer!
