                               Psi4 1.3.2 release

  ==> Input File <==

--------------------------------------------------------------------------
#psi4
#
memory 32 gb

molecule  {
0 1
  O       -2.8968130    -0.3474360    -0.2563530
  O       -0.5825960    -1.5131530     0.0834280
  N        0.6646380     0.3451110    -0.3514860
  C        1.9853457    -0.2378307    -0.1332758
  C       -1.7875910     0.5207530    -0.3412920
  C        2.3087340    -0.3110910     1.3526080
  C        3.0072020     0.3769410    -0.9846900
  C       -0.5092170    -0.3043550    -0.1811720
  C       -1.8991130     1.5929580     0.7362800
  H        1.8182130    -1.3395260    -0.4626630
  H        0.7035360     1.3528677    -0.4566554
  H       -1.7688680     0.9937940    -1.3356380
  H        2.4085440     0.7136460     1.7243230
  H        1.5276200    -0.8195050     1.9221530
  H        3.2560570    -0.8319740     1.5215790
  H        3.1304270     1.4235350    -0.6835410
  H        2.7315590     0.3479870    -2.0412990
  H        3.9738610    -0.1182480    -0.8633910
  H       -1.8420940     1.1254490     1.7220580
  H       -2.8670940     2.0889060     0.6442650
  H       -1.1140830     2.3514110     0.6543310
  H       -2.4990480    -1.2315890    -0.0938460
units angstrom
no_reorient  #important for SAPT in psi4, default
symmetry c1  #important for SAPT in psi4, default
}

set PROPERTIES_ORIGIN ["COM"]
properties('MP2/aug-cc-pvtz', properties = ['dipole'])
--------------------------------------------------------------------------

    Molecular point group: c1
  Charge       = 0
  Multiplicity = 1
  Basis Set: AUG-CC-PVTZ
    Blend: AUG-CC-PVTZ
  Basis Set: (AUG-CC-PVTZ AUX)
    Blend: AUG-CC-PVTZ-JKFIT

    Orbital Energies [Eh]
    ---------------------

    Doubly Occupied:

       1A    -20.547890     2A    -20.533259     3A    -15.596137
       4A    -11.360721     5A    -11.297580     6A    -11.279061
       7A    -11.232169     8A    -11.230316     9A    -11.223037
      10A     -1.397285    11A     -1.345807    12A     -1.249074
      13A     -1.077998    14A     -1.025452    15A     -0.955495
      16A     -0.896442    17A     -0.817365    18A     -0.794726
      19A     -0.737014    20A     -0.675933    21A     -0.647505
      22A     -0.636198    23A     -0.631629    24A     -0.598343
      25A     -0.584249    26A     -0.568213    27A     -0.555408
      28A     -0.548452    29A     -0.539977    30A     -0.529368
      31A     -0.515303    32A     -0.510512    33A     -0.473201
      34A     -0.444779    35A     -0.434941    36A     -0.400618

  @DF-RHF Final Energy:  -439.12882037443762

   => Energetics <=

    Nuclear Repulsion Energy =            485.3689282044272204
    One-Electron Energy =               -1561.2125795814383764
    Two-Electron Energy =                 636.7148310025735327
    Total Energy =                       -439.1288203744376233
  Basis Set: (AUG-CC-PVTZ AUX)
    Blend: AUG-CC-PVTZ-RI
    Molecular point group: c1

    Geometry (in Angstrom), charge = 0, multiplicity = 1:

       Center              X                  Y                   Z               Mass
    ------------   -----------------  -----------------  -----------------  -----------------
         O           -2.900254008284    -0.353731485002    -0.256070672293    15.994914619570
         O           -0.586037008284    -1.519448485002     0.083710327707    15.994914619570
         N            0.661196991716     0.338815514998    -0.351203672293    14.003074004430
         C            1.981904691716    -0.244126185002    -0.132993472293    12.000000000000
         C           -1.791032008284     0.514457514998    -0.341009672293    12.000000000000
         C            2.305292991716    -0.317386485002     1.352890327707    12.000000000000
         C            3.003760991716     0.370645514998    -0.984407672293    12.000000000000
         C           -0.512658008284    -0.310650485002    -0.180889672293    12.000000000000
         C           -1.902554008284     1.586662514998     0.736562327707    12.000000000000
         H            1.814771991716    -1.345821485002    -0.462380672293     1.007825032230
         H            0.700094991716     1.346572214998    -0.456373072293     1.007825032230
         H           -1.772309008284     0.987498514998    -1.335355672293     1.007825032230
         H            2.405102991716     0.707350514998     1.724605327707     1.007825032230
         H            1.524178991716    -0.825800485002     1.922435327707     1.007825032230
         H            3.252615991716    -0.838269485002     1.521861327707     1.007825032230
         H            3.126985991716     1.417239514998    -0.683258672293     1.007825032230
         H            2.728117991716     0.341691514998    -2.041016672293     1.007825032230
         H            3.970419991716    -0.124543485002    -0.863108672293     1.007825032230
         H           -1.845535008284     1.119153514998     1.722340327707     1.007825032230
         H           -2.870535008284     2.082610514998     0.644547327707     1.007825032230
         H           -1.117524008284     2.345115514998     0.654613327707     1.007825032230
         H           -2.502489008284    -1.237884485002    -0.093563672293     1.007825032230

  Basis Set: AUG-CC-PVTZ
    Blend: AUG-CC-PVTZ
  Basis Set: (AUG-CC-PVTZ AUX)
    Blend: AUG-CC-PVTZ-JKFIT
	 Reference Energy          =    -439.1288203744376233 [Eh]
	 Singles Energy            =      -0.0000000000000000 [Eh]
	 Same-Spin Energy          =      -0.4468014946854585 [Eh]
	 Opposite-Spin Energy      =      -1.4648428491166103 [Eh]
	 Correlation Energy        =      -1.9116443438020689 [Eh]
	 Total Energy              =    -441.0404647182397184 [Eh]

	 ================> DF-SCS-MP2 Energies <==================
	-----------------------------------------------------------
	 SCS Same-Spin Scale       =       0.3333333333333333 [-]
	 SCS Opposite-Spin Scale   =       1.2000000000000000 [-]
	 SCS Same-Spin Energy      =      -0.1489338315618195 [Eh]
	 SCS Opposite-Spin Energy  =      -1.7578114189399323 [Eh]
	 SCS Correlation Energy    =      -1.9067452505017517 [Eh]
	 SCS Total Energy          =    -441.0355656249393519 [Eh]
	-----------------------------------------------------------

  Dipole Moment: [D]
     X:     3.6372      Y:     2.9380      Z:    -0.2395     Total:     4.6817

*** Psi4 exiting successfully. Buy a developer a beer!
