                               Psi4 1.3.2 release

  ==> Input File <==

--------------------------------------------------------------------------
#psi4
#
memory 32 gb

molecule  {
0 1
  O       -2.8968130    -0.3474360    -0.2563530
  O       -0.5825960    -1.5131530     0.0834280
  N        0.6646380     0.3451110    -0.3514860
  C        1.9521820    -0.3066060    -0.1296730
  C       -1.7952217     0.5302280    -0.3432011
  C        2.3087340    -0.3110910     1.3526080
  C        3.0072020     0.3769410    -0.9846900
  C       -0.5092170    -0.3043550    -0.1811720
  C       -1.8991130     1.5929580     0.7362800
  H        1.8182130    -1.3395260    -0.4626630
  H        0.6508110     1.3528600    -0.4628320
  H       -1.7688680     0.9937940    -1.3356380
  H        2.4085440     0.7136460     1.7243230
  H        1.5276200    -0.8195050     1.9221530
  H        3.2560570    -0.8319740     1.5215790
  H        3.1304270     1.4235350    -0.6835410
  H        2.7315590     0.3479870    -2.0412990
  H        3.9738610    -0.1182480    -0.8633910
  H       -1.8420940     1.1254490     1.7220580
  H       -2.8670940     2.0889060     0.6442650
  H       -1.1140830     2.3514110     0.6543310
  H       -2.5068967    -1.2350475    -0.0936783
units angstrom
no_reorient  #important for SAPT in psi4, default
symmetry c1  #important for SAPT in psi4, default
}

set PROPERTIES_ORIGIN ["COM"]
properties('MP2/aug-cc-pvtz', properties = ['dipole'])
--------------------------------------------------------------------------

    Molecular point group: c1
  Charge       = 0
  Multiplicity = 1
  Basis Set: AUG-CC-PVTZ
    Blend: AUG-CC-PVTZ
  Basis Set: (AUG-CC-PVTZ AUX)
    Blend: AUG-CC-PVTZ-JKFIT

    Orbital Energies [Eh]
    ---------------------

    Doubly Occupied:

       1A    -20.547392     2A    -20.532125     3A    -15.595456
       4A    -11.358053     5A    -11.297468     6A    -11.277002
       7A    -11.232189     8A    -11.230472     9A    -11.222113
      10A     -1.396142    11A     -1.345273    12A     -1.247554
      13A     -1.071820    14A     -1.024725    15A     -0.949716
      16A     -0.893319    17A     -0.822517    18A     -0.794950
      19A     -0.735202    20A     -0.679051    21A     -0.650106
      22A     -0.632191    23A     -0.628583    24A     -0.596911
      25A     -0.582092    26A     -0.568271    27A     -0.554943
      28A     -0.547756    29A     -0.539216    30A     -0.530518
      31A     -0.510893    32A     -0.502589    33A     -0.491198
      34A     -0.446200    35A     -0.432376    36A     -0.401213

  @DF-RHF Final Energy:  -439.13782965208122

   => Energetics <=

    Nuclear Repulsion Energy =            485.1291004959951465
    One-Electron Energy =               -1560.7986711390065011
    Two-Electron Energy =                 636.5317409909301887
    Total Energy =                       -439.1378296520812228
  Basis Set: (AUG-CC-PVTZ AUX)
    Blend: AUG-CC-PVTZ-RI
    Molecular point group: c1

    Geometry (in Angstrom), charge = 0, multiplicity = 1:

       Center              X                  Y                   Z               Mass
    ------------   -----------------  -----------------  -----------------  -----------------
         O           -2.896054137574    -0.348276670183    -0.256179513366    15.994914619570
         O           -0.581837137574    -1.513993670183     0.083601486634    15.994914619570
         N            0.665396862426     0.344270329817    -0.351312513366    14.003074004430
         C            1.952940862426    -0.307446670183    -0.129499513366    12.000000000000
         C           -1.794462837574     0.529387329817    -0.343027613366    12.000000000000
         C            2.309492862426    -0.311931670183     1.352781486634    12.000000000000
         C            3.007960862426     0.376100329817    -0.984516513366    12.000000000000
         C           -0.508458137574    -0.305195670183    -0.180998513366    12.000000000000
         C           -1.898354137574     1.592117329817     0.736453486634    12.000000000000
         H            1.818971862426    -1.340366670183    -0.462489513366     1.007825032230
         H            0.651569862426     1.352019329817    -0.462658513366     1.007825032230
         H           -1.768109137574     0.992953329817    -1.335464513366     1.007825032230
         H            2.409302862426     0.712805329817     1.724496486634     1.007825032230
         H            1.528378862426    -0.820345670183     1.922326486634     1.007825032230
         H            3.256815862426    -0.832814670183     1.521752486634     1.007825032230
         H            3.131185862426     1.422694329817    -0.683367513366     1.007825032230
         H            2.732317862426     0.347146329817    -2.041125513366     1.007825032230
         H            3.974619862426    -0.119088670183    -0.863217513366     1.007825032230
         H           -1.841335137574     1.124608329817     1.722231486634     1.007825032230
         H           -2.866335137574     2.088065329817     0.644438486634     1.007825032230
         H           -1.113324137574     2.350570329817     0.654504486634     1.007825032230
         H           -2.506137837574    -1.235888170183    -0.093504813366     1.007825032230

  Basis Set: AUG-CC-PVTZ
    Blend: AUG-CC-PVTZ
  Basis Set: (AUG-CC-PVTZ AUX)
    Blend: AUG-CC-PVTZ-JKFIT
	 Reference Energy          =    -439.1378296520812228 [Eh]
	 Singles Energy            =      -0.0000000000000000 [Eh]
	 Same-Spin Energy          =      -0.4459702813173526 [Eh]
	 Opposite-Spin Energy      =      -1.4635523964560375 [Eh]
	 Correlation Energy        =      -1.9095226777733902 [Eh]
	 Total Energy              =    -441.0473523298546183 [Eh]

	 ================> DF-SCS-MP2 Energies <==================
	-----------------------------------------------------------
	 SCS Same-Spin Scale       =       0.3333333333333333 [-]
	 SCS Opposite-Spin Scale   =       1.2000000000000000 [-]
	 SCS Same-Spin Energy      =      -0.1486567604391175 [Eh]
	 SCS Opposite-Spin Energy  =      -1.7562628757472449 [Eh]
	 SCS Correlation Energy    =      -1.9049196361863625 [Eh]
	 SCS Total Energy          =    -441.0427492882676006 [Eh]
	-----------------------------------------------------------

  Dipole Moment: [D]
     X:     3.5645      Y:     2.9176      Z:    -0.2246     Total:     4.6118

*** Psi4 exiting successfully. Buy a developer a beer!
