                               Psi4 1.4a3.dev225

  ==> Input File <==

--------------------------------------------------------------------------
#psi4
#
memory 32 gb

molecule  {
0 1
  O       -1.7446660    -1.3796590    -0.7880960
  O       -0.4296620     1.7569970     0.2600660
  N        0.4723820    -0.3330750    -0.0012650
  C        1.8394770     0.0732600     0.3013020
  C       -1.9157030     0.0373855    -0.3830954
  C        2.4958720     0.7244850    -0.9128940
  C        2.6145980    -1.1365250     0.8043010
  C       -0.5442740     0.5588710    -0.0269710
  C       -2.8608870     0.1360220     0.7815810
  H        1.7638430     0.8203410     1.0982830
  H        0.2750420    -1.2730860    -0.3263580
  H       -2.2722210     0.5864250    -1.2458220
  H        2.5570320     0.0100450    -1.7401110
  H        1.9072700     1.5874400    -1.2316560
  H        3.5085800     1.0627310    -0.6705710
  H        2.6773940    -1.9046250     0.0252330
  H        2.1327900    -1.5715010     1.6841320
  H        3.6348850    -0.8497170     1.0733550
  H       -2.5011890    -0.4705790     1.6169940
  H       -3.8694610    -0.1962540     0.5126420
  H       -2.9055320     1.1820880     1.0905810
  H       -2.6295620    -1.7449530    -0.9570530
units angstrom
no_reorient  #important for SAPT in psi4, default
symmetry c1  #important for SAPT in psi4, default
}

set PROPERTIES_ORIGIN ["COM"]
properties('MP2/aug-cc-pvtz', properties = ['dipole'])
--------------------------------------------------------------------------

    Molecular point group: c1
  Charge       = 0
  Multiplicity = 1
  Basis Set: AUG-CC-PVTZ
    Blend: AUG-CC-PVTZ
  Basis Set: (AUG-CC-PVTZ AUX)
    Blend: AUG-CC-PVTZ-JKFIT

    Orbital Energies [Eh]
    ---------------------

    Doubly Occupied:

       1A    -20.574398     2A    -20.509834     3A    -15.576543
       4A    -11.343712     5A    -11.301683     6A    -11.264546
       7A    -11.230125     8A    -11.221580     9A    -11.209579
      10A     -1.376887    11A     -1.352392    12A     -1.228194
      13A     -1.060068    14A     -1.033215    15A     -0.937419
      16A     -0.899136    17A     -0.814452    18A     -0.778064
      19A     -0.708144    20A     -0.685247    21A     -0.643282
      22A     -0.638087    23A     -0.613627    24A     -0.594762
      25A     -0.578786    26A     -0.566340    27A     -0.549411
      28A     -0.542615    29A     -0.523308    30A     -0.519678
      31A     -0.516018    32A     -0.491148    33A     -0.480403
      34A     -0.464257    35A     -0.416581    36A     -0.382912

  @DF-RHF Final Energy:  -439.13500241989425

   => Energetics <=

    Nuclear Repulsion Energy =            485.7333055898483849
    One-Electron Energy =               -1562.4837536118202479
    Two-Electron Energy =                 637.6154456020775569
    Total Energy =                       -439.1350024198942492
  Basis Set: (AUG-CC-PVTZ AUX)
    Blend: AUG-CC-PVTZ-RI
    Molecular point group: c1

    Geometry (in Angstrom), charge = 0, multiplicity = 1:

       Center              X                  Y                   Z               Mass
    ------------   -----------------  -----------------  -----------------  -----------------
         O           -1.711849695084    -1.404909021998    -0.782329921485    15.994914619570
         O           -0.396845695084     1.731746978002     0.265832078515    15.994914619570
         N            0.505198304916    -0.358325021998     0.004501078515    14.003074004430
         C            1.872293304916     0.048009978002     0.307068078515    12.000000000000
         C           -1.882886695084     0.012135478002    -0.377329321485    12.000000000000
         C            2.528688304916     0.699234978002    -0.907127921485    12.000000000000
         C            2.647414304916    -1.161775021998     0.810067078515    12.000000000000
         C           -0.511457695084     0.533620978002    -0.021204921485    12.000000000000
         C           -2.828070695084     0.110771978002     0.787347078515    12.000000000000
         H            1.796659304916     0.795090978002     1.104049078515     1.007825032230
         H            0.307858304916    -1.298336021998    -0.320591921485     1.007825032230
         H           -2.239404695084     0.561174978002    -1.240055921485     1.007825032230
         H            2.589848304916    -0.015205021998    -1.734344921485     1.007825032230
         H            1.940086304916     1.562189978002    -1.225889921485     1.007825032230
         H            3.541396304916     1.037480978002    -0.664804921485     1.007825032230
         H            2.710210304916    -1.929875021998     0.030999078515     1.007825032230
         H            2.165606304916    -1.596751021998     1.689898078515     1.007825032230
         H            3.667701304916    -0.874967021998     1.079121078515     1.007825032230
         H           -2.468372695084    -0.495829021998     1.622760078515     1.007825032230
         H           -3.836644695084    -0.221504021998     0.518408078515     1.007825032230
         H           -2.872715695084     1.156837978002     1.096347078515     1.007825032230
         H           -2.596745695084    -1.770203021998    -0.951286921485     1.007825032230

  Basis Set: AUG-CC-PVTZ
    Blend: AUG-CC-PVTZ
  Basis Set: (AUG-CC-PVTZ AUX)
    Blend: AUG-CC-PVTZ-JKFIT
	 Reference Energy          =    -439.1350024198942492 [Eh]
	 Singles Energy            =      -0.0000000000000000 [Eh]
	 Same-Spin Energy          =      -0.4456691206528458 [Eh]
	 Opposite-Spin Energy      =      -1.4643176787141523 [Eh]
	 Correlation Energy        =      -1.9099867993669981 [Eh]
	 Total Energy              =    -441.0449892192612538 [Eh]

	 ================> DF-SCS-MP2 Energies <==================
	-----------------------------------------------------------
	 SCS Same-Spin Scale       =       0.3333333333333333 [-]
	 SCS Opposite-Spin Scale   =       1.2000000000000000 [-]
	 SCS Same-Spin Energy      =      -0.1485563735509486 [Eh]
	 SCS Opposite-Spin Energy  =      -1.7571812144569827 [Eh]
	 SCS Correlation Energy    =      -1.9057375880079312 [Eh]
	 SCS Total Energy          =    -441.0407400079021727 [Eh]
	-----------------------------------------------------------

  Dipole Moment: [D]
     X:    -0.6730      Y:    -2.7147      Z:    -0.3930     Total:     2.8244

*** Psi4 exiting successfully. Buy a developer a beer!
