                               Psi4 1.3.2 release

  ==> Input File <==

--------------------------------------------------------------------------
#psi4
#
memory 32 gb

molecule  {
0 1
  O       -2.8968130    -0.3474360    -0.2563530
  O       -0.5825960    -1.5131530     0.0834280
  N        0.6646380     0.3451110    -0.3514860
  C        1.9521820    -0.3066060    -0.1296730
  C       -1.8029362     0.5396362    -0.3451036
  C        2.3087340    -0.3110910     1.3526080
  C        3.0072020     0.3769410    -0.9846900
  C       -0.5092170    -0.3043550    -0.1811720
  C       -1.8991130     1.5929580     0.7362800
  H        1.8182130    -1.3395260    -0.4626630
  H        0.6508110     1.3528600    -0.4628320
  H       -1.7688680     0.9937940    -1.3356380
  H        2.4085440     0.7136460     1.7243230
  H        1.5276200    -0.8195050     1.9221530
  H        3.2560570    -0.8319740     1.5215790
  H        3.1304270     1.4235350    -0.6835410
  H        2.7315590     0.3479870    -2.0412990
  H        3.9738610    -0.1182480    -0.8633910
  H       -1.8420940     1.1254490     1.7220580
  H       -2.8670940     2.0889060     0.6442650
  H       -1.1140830     2.3514110     0.6543310
  H       -2.5147751    -1.2384385    -0.0935230
units angstrom
no_reorient  #important for SAPT in psi4, default
symmetry c1  #important for SAPT in psi4, default
}

set PROPERTIES_ORIGIN ["COM"]
properties('MP2/aug-cc-pvtz', properties = ['dipole'])
--------------------------------------------------------------------------

    Molecular point group: c1
  Charge       = 0
  Multiplicity = 1
  Basis Set: AUG-CC-PVTZ
    Blend: AUG-CC-PVTZ
  Basis Set: (AUG-CC-PVTZ AUX)
    Blend: AUG-CC-PVTZ-JKFIT

    Orbital Energies [Eh]
    ---------------------

    Doubly Occupied:

       1A    -20.546986     2A    -20.531757     3A    -15.595174
       4A    -11.357777     5A    -11.297642     6A    -11.276766
       7A    -11.232045     8A    -11.230210     9A    -11.221969
      10A     -1.395078    11A     -1.344784    12A     -1.247117
      13A     -1.071405    14A     -1.025618    15A     -0.949565
      16A     -0.891703    17A     -0.822686    18A     -0.794917
      19A     -0.733902    20A     -0.679260    21A     -0.650734
      22A     -0.631955    23A     -0.628345    24A     -0.596713
      25A     -0.582754    26A     -0.568847    27A     -0.554771
      28A     -0.547404    29A     -0.539117    30A     -0.530861
      31A     -0.509360    32A     -0.502394    33A     -0.490863
      34A     -0.447435    35A     -0.430267    36A     -0.400968

  @DF-RHF Final Energy:  -439.13744489848841

   => Energetics <=

    Nuclear Repulsion Energy =            484.9535381607873319
    One-Electron Energy =               -1560.4636680335629535
    Two-Electron Energy =                 636.3726849742872673
    Total Energy =                       -439.1374448984884111
  Basis Set: (AUG-CC-PVTZ AUX)
    Blend: AUG-CC-PVTZ-RI
    Molecular point group: c1

    Geometry (in Angstrom), charge = 0, multiplicity = 1:

       Center              X                  Y                   Z               Mass
    ------------   -----------------  -----------------  -----------------  -----------------
         O           -2.895287408611    -0.349111798719    -0.256006558265    15.994914619570
         O           -0.581070408611    -1.514828798719     0.083774441735    15.994914619570
         N            0.666163591389     0.343435201281    -0.351139558265    14.003074004430
         C            1.953707591389    -0.308281798719    -0.129326558265    12.000000000000
         C           -1.801410608611     0.537960401281    -0.344757158265    12.000000000000
         C            2.310259591389    -0.312766798719     1.352954441735    12.000000000000
         C            3.008727591389     0.375265201281    -0.984343558265    12.000000000000
         C           -0.507691408611    -0.306030798719    -0.180825558265    12.000000000000
         C           -1.897587408611     1.591282201281     0.736626441735    12.000000000000
         H            1.819738591389    -1.341201798719    -0.462316558265     1.007825032230
         H            0.652336591389     1.351184201281    -0.462485558265     1.007825032230
         H           -1.767342408611     0.992118201281    -1.335291558265     1.007825032230
         H            2.410069591389     0.711970201281     1.724669441735     1.007825032230
         H            1.529145591389    -0.821180798719     1.922499441735     1.007825032230
         H            3.257582591389    -0.833649798719     1.521925441735     1.007825032230
         H            3.131952591389     1.421859201281    -0.683194558265     1.007825032230
         H            2.733084591389     0.346311201281    -2.040952558265     1.007825032230
         H            3.975386591389    -0.119923798719    -0.863044558265     1.007825032230
         H           -1.840568408611     1.123773201281     1.722404441735     1.007825032230
         H           -2.865568408611     2.087230201281     0.644611441735     1.007825032230
         H           -1.112557408611     2.349735201281     0.654677441735     1.007825032230
         H           -2.513249508611    -1.240114298719    -0.093176558265     1.007825032230

  Basis Set: AUG-CC-PVTZ
    Blend: AUG-CC-PVTZ
  Basis Set: (AUG-CC-PVTZ AUX)
    Blend: AUG-CC-PVTZ-JKFIT
	 Reference Energy          =    -439.1374448984884111 [Eh]
	 Singles Energy            =      -0.0000000000000000 [Eh]
	 Same-Spin Energy          =      -0.4459304814771765 [Eh]
	 Opposite-Spin Energy      =      -1.4634911183562429 [Eh]
	 Correlation Energy        =      -1.9094215998334194 [Eh]
	 Total Energy              =    -441.0468664983218332 [Eh]

	 ================> DF-SCS-MP2 Energies <==================
	-----------------------------------------------------------
	 SCS Same-Spin Scale       =       0.3333333333333333 [-]
	 SCS Opposite-Spin Scale   =       1.2000000000000000 [-]
	 SCS Same-Spin Energy      =      -0.1486434938257255 [Eh]
	 SCS Opposite-Spin Energy  =      -1.7561893420274914 [Eh]
	 SCS Correlation Energy    =      -1.9048328358532169 [Eh]
	 SCS Total Energy          =    -441.0422777343416101 [Eh]
	-----------------------------------------------------------

  Dipole Moment: [D]
     X:     3.5513      Y:     2.9188      Z:    -0.2241     Total:     4.6023

*** Psi4 exiting successfully. Buy a developer a beer!
