                               Psi4 1.3.2 release

  ==> Input File <==

--------------------------------------------------------------------------
#psi4
#
memory 32 gb

molecule  {
0 1
  O       -2.8968130    -0.3474360    -0.2563530
  O       -0.5825960    -1.5131530     0.0834280
  N        0.6646380     0.3451110    -0.3514860
  C        1.9521820    -0.3066060    -0.1296730
  C       -1.7875910     0.5207530    -0.3412920
  C        2.3087340    -0.3110910     1.3526080
  C        3.0072020     0.3769410    -0.9846900
  C       -0.5092170    -0.3043550    -0.1811720
  C       -1.8844796     1.4522683     0.5948860
  H        1.8182130    -1.3395260    -0.4626630
  H        0.6508110     1.3528600    -0.4628320
  H       -1.7688680     0.9937940    -1.3356380
  H        2.4085440     0.7136460     1.7243230
  H        1.5276200    -0.8195050     1.9221530
  H        3.2560570    -0.8319740     1.5215790
  H        3.1304270     1.4235350    -0.6835410
  H        2.7315590     0.3479870    -2.0412990
  H        3.9738610    -0.1182480    -0.8633910
  H       -1.8420940     1.1254490     1.7220580
  H       -2.8670940     2.0889060     0.6442650
  H       -1.1140830     2.3514110     0.6543310
  H       -2.4990480    -1.2315890    -0.0938460
units angstrom
no_reorient  #important for SAPT in psi4, default
symmetry c1  #important for SAPT in psi4, default
}

set PROPERTIES_ORIGIN ["COM"]
properties('MP2/aug-cc-pvtz', properties = ['dipole'])
--------------------------------------------------------------------------

    Molecular point group: c1
  Charge       = 0
  Multiplicity = 1
  Basis Set: AUG-CC-PVTZ
    Blend: AUG-CC-PVTZ
  Basis Set: (AUG-CC-PVTZ AUX)
    Blend: AUG-CC-PVTZ-JKFIT

    Orbital Energies [Eh]
    ---------------------

    Doubly Occupied:

       1A    -20.548003     2A    -20.534001     3A    -15.596311
       4A    -11.359995     5A    -11.287266     6A    -11.277532
       7A    -11.242709     8A    -11.232511     9A    -11.222314
      10A     -1.400472    11A     -1.350345    12A     -1.249253
      13A     -1.091125    14A     -1.048281    15A     -0.949978
      16A     -0.884310    17A     -0.820214    18A     -0.794420
      19A     -0.744422    20A     -0.686372    21A     -0.660855
      22A     -0.644698    23A     -0.629520    24A     -0.605466
      25A     -0.596239    26A     -0.564647    27A     -0.555159
      28A     -0.536711    29A     -0.530080    30A     -0.511847
      31A     -0.503025    32A     -0.491886    33A     -0.487337
      34A     -0.459225    35A     -0.425675    36A     -0.402224

  @DF-RHF Final Energy:  -439.08707569608430

   => Energetics <=

    Nuclear Repulsion Energy =            488.9867578707154507
    One-Electron Energy =               -1568.2988084127928232
    Two-Electron Energy =                 640.2249748459931880
    Total Energy =                       -439.0870756960842982
  Basis Set: (AUG-CC-PVTZ AUX)
    Blend: AUG-CC-PVTZ-RI
    Molecular point group: c1

    Geometry (in Angstrom), charge = 0, multiplicity = 1:

       Center              X                  Y                   Z               Mass
    ------------   -----------------  -----------------  -----------------  -----------------
         O           -2.898152463944    -0.334557642519    -0.243410204438    15.994914619570
         O           -0.583935463944    -1.500274642519     0.096370795562    15.994914619570
         N            0.663298536056     0.357989357481    -0.338543204438    14.003074004430
         C            1.950842536056    -0.293727642519    -0.116730204438    12.000000000000
         C           -1.788930463944     0.533631357481    -0.328349204438    12.000000000000
         C            2.307394536056    -0.298212642519     1.365550795562    12.000000000000
         C            3.005862536056     0.389819357481    -0.971747204438    12.000000000000
         C           -0.510556463944    -0.291476642519    -0.168229204438    12.000000000000
         C           -1.885819063944     1.465146657481     0.607828795562    12.000000000000
         H            1.816873536056    -1.326647642519    -0.449720204438     1.007825032230
         H            0.649471536056     1.365738357481    -0.449889204438     1.007825032230
         H           -1.770207463944     1.006672357481    -1.322695204438     1.007825032230
         H            2.407204536056     0.726524357481     1.737265795562     1.007825032230
         H            1.526280536056    -0.806626642519     1.935095795562     1.007825032230
         H            3.254717536056    -0.819095642519     1.534521795562     1.007825032230
         H            3.129087536056     1.436413357481    -0.670598204438     1.007825032230
         H            2.730219536056     0.360865357481    -2.028356204438     1.007825032230
         H            3.972521536056    -0.105369642519    -0.850448204438     1.007825032230
         H           -1.843433463944     1.138327357481     1.735000795562     1.007825032230
         H           -2.868433463944     2.101784357481     0.657207795562     1.007825032230
         H           -1.115422463944     2.364289357481     0.667273795562     1.007825032230
         H           -2.500387463944    -1.218710642519    -0.080903204438     1.007825032230

  Basis Set: AUG-CC-PVTZ
    Blend: AUG-CC-PVTZ
  Basis Set: (AUG-CC-PVTZ AUX)
    Blend: AUG-CC-PVTZ-JKFIT
	 Reference Energy          =    -439.0870756960842982 [Eh]
	 Singles Energy            =      -0.0000000000000000 [Eh]
	 Same-Spin Energy          =      -0.4490881924918423 [Eh]
	 Opposite-Spin Energy      =      -1.4677564540594417 [Eh]
	 Correlation Energy        =      -1.9168446465512841 [Eh]
	 Total Energy              =    -441.0039203426355812 [Eh]

	 ================> DF-SCS-MP2 Energies <==================
	-----------------------------------------------------------
	 SCS Same-Spin Scale       =       0.3333333333333333 [-]
	 SCS Opposite-Spin Scale   =       1.2000000000000000 [-]
	 SCS Same-Spin Energy      =      -0.1496960641639474 [Eh]
	 SCS Opposite-Spin Energy  =      -1.7613077448713299 [Eh]
	 SCS Correlation Energy    =      -1.9110038090352774 [Eh]
	 SCS Total Energy          =    -440.9980795051195628 [Eh]
	-----------------------------------------------------------

  Dipole Moment: [D]
     X:     3.6275      Y:     2.9399      Z:    -0.1931     Total:     4.6733

*** Psi4 exiting successfully. Buy a developer a beer!
