                               Psi4 1.3.2 release

  ==> Input File <==

--------------------------------------------------------------------------
#psi4
#
memory 32 gb

molecule  {
0 1
  O       -2.8968130    -0.3474360    -0.2563530
  O       -0.5825960    -1.5131530     0.0834280
  N        0.6646380     0.3451110    -0.3514860
  C        1.9521820    -0.3066060    -0.1296730
  C       -1.7725836     0.5016053    -0.3374545
  C        2.3087340    -0.3110910     1.3526080
  C        3.0072020     0.3769410    -0.9846900
  C       -0.5092170    -0.3043550    -0.1811720
  C       -1.8991130     1.5929580     0.7362800
  H        1.8182130    -1.3395260    -0.4626630
  H        0.6508110     1.3528600    -0.4628320
  H       -1.7688680     0.9937940    -1.3356380
  H        2.4085440     0.7136460     1.7243230
  H        1.5276200    -0.8195050     1.9221530
  H        3.2560570    -0.8319740     1.5215790
  H        3.1304270     1.4235350    -0.6835410
  H        2.7315590     0.3479870    -2.0412990
  H        3.9738610    -0.1182480    -0.8633910
  H       -1.8420940     1.1254490     1.7220580
  H       -2.8670940     2.0889060     0.6442650
  H       -1.1140830     2.3514110     0.6543310
  H       -2.4834421    -1.2244702    -0.0942185
units angstrom
no_reorient  #important for SAPT in psi4, default
symmetry c1  #important for SAPT in psi4, default
}

set PROPERTIES_ORIGIN ["COM"]
properties('MP2/aug-cc-pvtz', properties = ['dipole'])
--------------------------------------------------------------------------

    Molecular point group: c1
  Charge       = 0
  Multiplicity = 1
  Basis Set: AUG-CC-PVTZ
    Blend: AUG-CC-PVTZ
  Basis Set: (AUG-CC-PVTZ AUX)
    Blend: AUG-CC-PVTZ-JKFIT

    Orbital Energies [Eh]
    ---------------------

    Doubly Occupied:

       1A    -20.548652     2A    -20.533158     3A    -15.596215
       4A    -11.358623     5A    -11.297227     6A    -11.277657
       7A    -11.232582     8A    -11.231459     9A    -11.222508
      10A     -1.399417    11A     -1.346800    12A     -1.248794
      13A     -1.073168    14A     -1.022245    15A     -0.950130
      16A     -0.898504    17A     -0.822147    18A     -0.794976
      19A     -0.738793    20A     -0.678676    21A     -0.648365
      22A     -0.632758    23A     -0.629194    24A     -0.597366
      25A     -0.581191    26A     -0.565667    27A     -0.555445
      28A     -0.548972    29A     -0.539647    30A     -0.529337
      31A     -0.515438    32A     -0.503120    33A     -0.492075
      34A     -0.442260    35A     -0.438050    36A     -0.401830

  @DF-RHF Final Energy:  -439.13679362810984

   => Energetics <=

    Nuclear Repulsion Energy =            485.6599600406304944
    One-Electron Energy =               -1561.8086151997561046
    Two-Electron Energy =                 637.0118615310158248
    Total Energy =                       -439.1367936281097855
  Basis Set: (AUG-CC-PVTZ AUX)
    Blend: AUG-CC-PVTZ-RI
    Molecular point group: c1

    Geometry (in Angstrom), charge = 0, multiplicity = 1:

       Center              X                  Y                   Z               Mass
    ------------   -----------------  -----------------  -----------------  -----------------
         O           -2.898306673288    -0.345737951887    -0.256701386563    15.994914619570
         O           -0.584089673288    -1.511454951887     0.083079613437    15.994914619570
         N            0.663144326712     0.346809048113    -0.351834386563    14.003074004430
         C            1.950688326712    -0.304907951887    -0.130021386563    12.000000000000
         C           -1.774077273288     0.503303348113    -0.337802886563    12.000000000000
         C            2.307240326712    -0.309392951887     1.352259613437    12.000000000000
         C            3.005708326712     0.378639048113    -0.985038386563    12.000000000000
         C           -0.510710673288    -0.302656951887    -0.181520386563    12.000000000000
         C           -1.900606673288     1.594656048113     0.735931613437    12.000000000000
         H            1.816719326712    -1.337827951887    -0.463011386563     1.007825032230
         H            0.649317326712     1.354558048113    -0.463180386563     1.007825032230
         H           -1.770361673288     0.995492048113    -1.335986386563     1.007825032230
         H            2.407050326712     0.715344048113     1.723974613437     1.007825032230
         H            1.526126326712    -0.817806951887     1.921804613437     1.007825032230
         H            3.254563326712    -0.830275951887     1.521230613437     1.007825032230
         H            3.128933326712     1.425233048113    -0.683889386563     1.007825032230
         H            2.730065326712     0.349685048113    -2.041647386563     1.007825032230
         H            3.972367326712    -0.116549951887    -0.863739386563     1.007825032230
         H           -1.843587673288     1.127147048113     1.721709613437     1.007825032230
         H           -2.868587673288     2.090604048113     0.643916613437     1.007825032230
         H           -1.115576673288     2.353109048113     0.653982613437     1.007825032230
         H           -2.484935773288    -1.222772151887    -0.094566886563     1.007825032230

  Basis Set: AUG-CC-PVTZ
    Blend: AUG-CC-PVTZ
  Basis Set: (AUG-CC-PVTZ AUX)
    Blend: AUG-CC-PVTZ-JKFIT
	 Reference Energy          =    -439.1367936281098423 [Eh]
	 Singles Energy            =      -0.0000000000000000 [Eh]
	 Same-Spin Energy          =      -0.4461938479185961 [Eh]
	 Opposite-Spin Energy      =      -1.4639126212525535 [Eh]
	 Correlation Energy        =      -1.9101064691711496 [Eh]
	 Total Energy              =    -441.0469000972809681 [Eh]

	 ================> DF-SCS-MP2 Energies <==================
	-----------------------------------------------------------
	 SCS Same-Spin Scale       =       0.3333333333333333 [-]
	 SCS Opposite-Spin Scale   =       1.2000000000000000 [-]
	 SCS Same-Spin Energy      =      -0.1487312826395320 [Eh]
	 SCS Opposite-Spin Energy  =      -1.7566951455030642 [Eh]
	 SCS Correlation Energy    =      -1.9054264281425961 [Eh]
	 SCS Total Energy          =    -441.0422200562524608 [Eh]
	-----------------------------------------------------------

  Dipole Moment: [D]
     X:     3.5990      Y:     2.9156      Z:    -0.2252     Total:     4.6372

*** Psi4 exiting successfully. Buy a developer a beer!
