                               Psi4 1.3.2 release

  ==> Input File <==

--------------------------------------------------------------------------
#psi4
#
memory 32 gb

molecule  {
0 1
  O       -2.8814423    -0.3664111    -0.2531482
  O       -0.5825960    -1.5131530     0.0834280
  N        0.6646380     0.3451110    -0.3514860
  C        1.9521820    -0.3066060    -0.1296730
  C       -1.7875910     0.5207530    -0.3412920
  C        2.3087340    -0.3110910     1.3526080
  C        3.0072020     0.3769410    -0.9846900
  C       -0.5240529    -0.3264021    -0.1785612
  C       -1.8991130     1.5929580     0.7362800
  H        1.8182130    -1.3395260    -0.4626630
  H        0.6508110     1.3528600    -0.4628320
  H       -1.7688680     0.9937940    -1.3356380
  H        2.4085440     0.7136460     1.7243230
  H        1.5276200    -0.8195050     1.9221530
  H        3.2560570    -0.8319740     1.5215790
  H        3.1304270     1.4235350    -0.6835410
  H        2.7315590     0.3479870    -2.0412990
  H        3.9738610    -0.1182480    -0.8633910
  H       -1.8420940     1.1254490     1.7220580
  H       -2.8670940     2.0889060     0.6442650
  H       -1.1140830     2.3514110     0.6543310
  H       -2.4990480    -1.2315890    -0.0938460
units angstrom
no_reorient  #important for SAPT in psi4, default
symmetry c1  #important for SAPT in psi4, default
}

set PROPERTIES_ORIGIN ["COM"]
properties('MP2/aug-cc-pvtz', properties = ['dipole'])
--------------------------------------------------------------------------

    Molecular point group: c1
  Charge       = 0
  Multiplicity = 1
  Basis Set: AUG-CC-PVTZ
    Blend: AUG-CC-PVTZ
  Basis Set: (AUG-CC-PVTZ AUX)
    Blend: AUG-CC-PVTZ-JKFIT

    Orbital Energies [Eh]
    ---------------------

    Doubly Occupied:

       1A    -20.546228     2A    -20.537548     3A    -15.590092
       4A    -11.358120     5A    -11.297924     6A    -11.274479
       7A    -11.231516     8A    -11.230307     9A    -11.220516
      10A     -1.410100    11A     -1.352719    12A     -1.241386
      13A     -1.068951    14A     -1.023623    15A     -0.947930
      16A     -0.894712    17A     -0.820134    18A     -0.790147
      19A     -0.739765    20A     -0.681432    21A     -0.650545
      22A     -0.635860    23A     -0.627002    24A     -0.597957
      25A     -0.583029    26A     -0.569202    27A     -0.553397
      28A     -0.546429    29A     -0.540372    30A     -0.531718
      31A     -0.515543    32A     -0.503049    33A     -0.490458
      34A     -0.446959    35A     -0.435459    36A     -0.398911

  @DF-RHF Final Energy:  -439.13928456223914

   => Energetics <=

    Nuclear Repulsion Energy =            485.6300196281770241
    One-Electron Energy =               -1561.7715742877569483
    Two-Electron Energy =                 637.0022700973407836
    Total Energy =                       -439.1392845622391405
  Basis Set: (AUG-CC-PVTZ AUX)
    Blend: AUG-CC-PVTZ-RI
    Molecular point group: c1

    Geometry (in Angstrom), charge = 0, multiplicity = 1:

       Center              X                  Y                   Z               Mass
    ------------   -----------------  -----------------  -----------------  -----------------
         O           -2.881959620681    -0.362077761541    -0.253778180993    15.994914619570
         O           -0.583113320681    -1.508819661541     0.082798019007    15.994914619570
         N            0.664120679319     0.349444338459    -0.352115980993    14.003074004430
         C            1.951664679319    -0.302272661541    -0.130302980993    12.000000000000
         C           -1.788108320681     0.525086338459    -0.341921980993    12.000000000000
         C            2.308216679319    -0.306757661541     1.351978019007    12.000000000000
         C            3.006684679319     0.381274338459    -0.985319980993    12.000000000000
         C           -0.524570220681    -0.322068761541    -0.179191180993    12.000000000000
         C           -1.899630320681     1.597291338459     0.735650019007    12.000000000000
         H            1.817695679319    -1.335192661541    -0.463292980993     1.007825032230
         H            0.650293679319     1.357193338459    -0.463461980993     1.007825032230
         H           -1.769385320681     0.998127338459    -1.336267980993     1.007825032230
         H            2.408026679319     0.717979338459     1.723693019007     1.007825032230
         H            1.527102679319    -0.815171661541     1.921523019007     1.007825032230
         H            3.255539679319    -0.827640661541     1.520949019007     1.007825032230
         H            3.129909679319     1.427868338459    -0.684170980993     1.007825032230
         H            2.731041679319     0.352320338459    -2.041928980993     1.007825032230
         H            3.973343679319    -0.113914661541    -0.864020980993     1.007825032230
         H           -1.842611320681     1.129782338459     1.721428019007     1.007825032230
         H           -2.867611320681     2.093239338459     0.643635019007     1.007825032230
         H           -1.114600320681     2.355744338459     0.653701019007     1.007825032230
         H           -2.499565320681    -1.227255661541    -0.094475980993     1.007825032230

  Basis Set: AUG-CC-PVTZ
    Blend: AUG-CC-PVTZ
  Basis Set: (AUG-CC-PVTZ AUX)
    Blend: AUG-CC-PVTZ-JKFIT
	 Reference Energy          =    -439.1392845622391405 [Eh]
	 Singles Energy            =      -0.0000000000000000 [Eh]
	 Same-Spin Energy          =      -0.4452366381026522 [Eh]
	 Opposite-Spin Energy      =      -1.4620893271045585 [Eh]
	 Correlation Energy        =      -1.9073259652072108 [Eh]
	 Total Energy              =    -441.0466105274463757 [Eh]

	 ================> DF-SCS-MP2 Energies <==================
	-----------------------------------------------------------
	 SCS Same-Spin Scale       =       0.3333333333333333 [-]
	 SCS Opposite-Spin Scale   =       1.2000000000000000 [-]
	 SCS Same-Spin Energy      =      -0.1484122127008841 [Eh]
	 SCS Opposite-Spin Energy  =      -1.7545071925254703 [Eh]
	 SCS Correlation Energy    =      -1.9029194052263543 [Eh]
	 SCS Total Energy          =    -441.0422039674654684 [Eh]
	-----------------------------------------------------------

  Dipole Moment: [D]
     X:     3.3538      Y:     2.8158      Z:    -0.2014     Total:     4.3837

*** Psi4 exiting successfully. Buy a developer a beer!
