                               Psi4 1.3.2 release

  ==> Input File <==

--------------------------------------------------------------------------
#psi4
#
memory 32 gb

molecule  {
0 1
  O       -2.8968130    -0.3474360    -0.2563530
  O       -0.5825960    -1.5131530     0.0834280
  N        0.6646380     0.3451110    -0.3514860
  C        1.9521820    -0.3066060    -0.1296730
  C       -1.7875910     0.5207530    -0.3412920
  C        2.3087340    -0.3110910     1.3526080
  C        3.0072020     0.3769410    -0.9846900
  C       -0.5092170    -0.3043550    -0.1811720
  C       -1.8983088     1.5349769     0.7911009
  H        1.8182130    -1.3395260    -0.4626630
  H        0.6508110     1.3528600    -0.4628320
  H       -1.7647650     0.9412017    -1.3589089
  H        2.4085440     0.7136460     1.7243230
  H        1.5276200    -0.8195050     1.9221530
  H        3.2560570    -0.8319740     1.5215790
  H        3.1304270     1.4235350    -0.6835410
  H        2.7315590     0.3479870    -2.0412990
  H        3.9738610    -0.1182480    -0.8633910
  H       -1.8420940     1.1254490     1.7220580
  H       -2.8670940     2.0889060     0.6442650
  H       -1.1140830     2.3514110     0.6543310
  H       -2.4990480    -1.2315890    -0.0938460
units angstrom
no_reorient  #important for SAPT in psi4, default
symmetry c1  #important for SAPT in psi4, default
}

set PROPERTIES_ORIGIN ["COM"]
properties('MP2/aug-cc-pvtz', properties = ['dipole'])
--------------------------------------------------------------------------

    Molecular point group: c1
  Charge       = 0
  Multiplicity = 1
  Basis Set: AUG-CC-PVTZ
    Blend: AUG-CC-PVTZ
  Basis Set: (AUG-CC-PVTZ AUX)
    Blend: AUG-CC-PVTZ-JKFIT

    Orbital Energies [Eh]
    ---------------------

    Doubly Occupied:

       1A    -20.545987     2A    -20.531749     3A    -15.595159
       4A    -11.356888     5A    -11.297636     6A    -11.276987
       7A    -11.232740     8A    -11.232144     9A    -11.222132
      10A     -1.396829    11A     -1.345393    12A     -1.247507
      13A     -1.072024    14A     -1.023418    15A     -0.949706
      16A     -0.896578    17A     -0.822838    18A     -0.795090
      19A     -0.736261    20A     -0.678438    21A     -0.649166
      22A     -0.631547    23A     -0.628926    24A     -0.600029
      25A     -0.587867    26A     -0.567375    27A     -0.554840
      28A     -0.543650    29A     -0.537186    30A     -0.527626
      31A     -0.511293    32A     -0.502440    33A     -0.490787
      34A     -0.446620    35A     -0.431712    36A     -0.401278

  @DF-RHF Final Energy:  -439.12946535196068

   => Energetics <=

    Nuclear Repulsion Energy =            485.6438297981791266
    One-Electron Energy =               -1561.8108996586736339
    Two-Electron Energy =                 637.0376045085337182
    Total Energy =                       -439.1294653519606754
  Basis Set: (AUG-CC-PVTZ AUX)
    Blend: AUG-CC-PVTZ-RI
    Molecular point group: c1

    Geometry (in Angstrom), charge = 0, multiplicity = 1:

       Center              X                  Y                   Z               Mass
    ------------   -----------------  -----------------  -----------------  -----------------
         O           -2.896918124326    -0.341724216567    -0.261192212963    15.994914619570
         O           -0.582701124326    -1.507441216567     0.078588787037    15.994914619570
         N            0.664532875674     0.350822783433    -0.356325212963    14.003074004430
         C            1.952076875674    -0.300894216567    -0.134512212963    12.000000000000
         C           -1.787696124326     0.526464783433    -0.346131212963    12.000000000000
         C            2.308628875674    -0.305379216567     1.347768787037    12.000000000000
         C            3.007096875674     0.382652783433    -0.989529212963    12.000000000000
         C           -0.509322124326    -0.298643216567    -0.186011212963    12.000000000000
         C           -1.898413924326     1.540688683433     0.786261687037    12.000000000000
         H            1.818107875674    -1.333814216567    -0.467502212963     1.007825032230
         H            0.650705875674     1.358571783433    -0.467671212963     1.007825032230
         H           -1.764870124326     0.946913483433    -1.363748112963     1.007825032230
         H            2.408438875674     0.719357783433     1.719483787037     1.007825032230
         H            1.527514875674    -0.813793216567     1.917313787037     1.007825032230
         H            3.255951875674    -0.826262216567     1.516739787037     1.007825032230
         H            3.130321875674     1.429246783433    -0.688380212963     1.007825032230
         H            2.731453875674     0.353698783433    -2.046138212963     1.007825032230
         H            3.973755875674    -0.112536216567    -0.868230212963     1.007825032230
         H           -1.842199124326     1.131160783433     1.717218787037     1.007825032230
         H           -2.867199124326     2.094617783433     0.639425787037     1.007825032230
         H           -1.114188124326     2.357122783433     0.649491787037     1.007825032230
         H           -2.499153124326    -1.225877216567    -0.098685212963     1.007825032230

  Basis Set: AUG-CC-PVTZ
    Blend: AUG-CC-PVTZ
  Basis Set: (AUG-CC-PVTZ AUX)
    Blend: AUG-CC-PVTZ-JKFIT
	 Reference Energy          =    -439.1294653519606754 [Eh]
	 Singles Energy            =      -0.0000000000000000 [Eh]
	 Same-Spin Energy          =      -0.4461872801817299 [Eh]
	 Opposite-Spin Energy      =      -1.4640409584214815 [Eh]
	 Correlation Energy        =      -1.9102282386032114 [Eh]
	 Total Energy              =    -441.0396935905638998 [Eh]

	 ================> DF-SCS-MP2 Energies <==================
	-----------------------------------------------------------
	 SCS Same-Spin Scale       =       0.3333333333333333 [-]
	 SCS Opposite-Spin Scale   =       1.2000000000000000 [-]
	 SCS Same-Spin Energy      =      -0.1487290933939099 [Eh]
	 SCS Opposite-Spin Energy  =      -1.7568491501057777 [Eh]
	 SCS Correlation Energy    =      -1.9055782434996877 [Eh]
	 SCS Total Energy          =    -441.0350435954603654 [Eh]
	-----------------------------------------------------------

  Dipole Moment: [D]
     X:     3.5621      Y:     2.8960      Z:    -0.2161     Total:     4.5959

*** Psi4 exiting successfully. Buy a developer a beer!
