                               Psi4 1.3.2 release

  ==> Input File <==

--------------------------------------------------------------------------
#psi4
#
memory 32 gb

molecule  {
0 1
  O       -2.9088734    -0.3351449    -0.3025008
  O       -0.5825960    -1.5131530     0.0834280
  N        0.6646380     0.3451110    -0.3514860
  C        1.9521820    -0.3066060    -0.1296730
  C       -1.7875910     0.5207530    -0.3412920
  C        2.3087340    -0.3110910     1.3526080
  C        3.0072020     0.3769410    -0.9846900
  C       -0.5092170    -0.3043550    -0.1811720
  C       -1.8991130     1.5929580     0.7362800
  H        1.8182130    -1.3395260    -0.4626630
  H        0.6508110     1.3528600    -0.4628320
  H       -1.8006769     0.9742479    -1.3447926
  H        2.4085440     0.7136460     1.7243230
  H        1.5276200    -0.8195050     1.9221530
  H        3.2560570    -0.8319740     1.5215790
  H        3.1304270     1.4235350    -0.6835410
  H        2.7315590     0.3479870    -2.0412990
  H        3.9738610    -0.1182480    -0.8633910
  H       -1.8420940     1.1254490     1.7220580
  H       -2.8670940     2.0889060     0.6442650
  H       -1.1140830     2.3514110     0.6543310
  H       -2.4990480    -1.2315890    -0.0938460
units angstrom
no_reorient  #important for SAPT in psi4, default
symmetry c1  #important for SAPT in psi4, default
}

set PROPERTIES_ORIGIN ["COM"]
properties('MP2/aug-cc-pvtz', properties = ['dipole'])
--------------------------------------------------------------------------

    Molecular point group: c1
  Charge       = 0
  Multiplicity = 1
  Basis Set: AUG-CC-PVTZ
    Blend: AUG-CC-PVTZ
  Basis Set: (AUG-CC-PVTZ AUX)
    Blend: AUG-CC-PVTZ-JKFIT

    Orbital Energies [Eh]
    ---------------------

    Doubly Occupied:

       1A    -20.548878     2A    -20.533577     3A    -15.596270
       4A    -11.359200     5A    -11.296265     6A    -11.277557
       7A    -11.232527     8A    -11.231218     9A    -11.222563
      10A     -1.396572    11A     -1.342646    12A     -1.248452
      13A     -1.072059    14A     -1.022806    15A     -0.950123
      16A     -0.894756    17A     -0.822080    18A     -0.795153
      19A     -0.735759    20A     -0.676537    21A     -0.646400
      22A     -0.632074    23A     -0.629097    24A     -0.597549
      25A     -0.581715    26A     -0.567796    27A     -0.555329
      28A     -0.548340    29A     -0.538656    30A     -0.530016
      31A     -0.512233    32A     -0.503123    33A     -0.491971
      34A     -0.442961    35A     -0.435270    36A     -0.401980

  @DF-RHF Final Energy:  -439.13514525629012

   => Energetics <=

    Nuclear Repulsion Energy =            484.8668236798508246
    One-Electron Energy =               -1560.2649271290060824
    Two-Electron Energy =                 636.2629581928651987
    Total Energy =                       -439.1351452562901159
  Basis Set: (AUG-CC-PVTZ AUX)
    Blend: AUG-CC-PVTZ-RI
    Molecular point group: c1

    Geometry (in Angstrom), charge = 0, multiplicity = 1:

       Center              X                  Y                   Z               Mass
    ------------   -----------------  -----------------  -----------------  -----------------
         O           -2.907157333157    -0.336494222671    -0.296799885007    15.994914619570
         O           -0.580879933157    -1.514502322671     0.089128914993    15.994914619570
         N            0.666354066843     0.343761677329    -0.345785085007    14.003074004430
         C            1.953898066843    -0.307955322671    -0.123972085007    12.000000000000
         C           -1.785874933157     0.519403677329    -0.335591085007    12.000000000000
         C            2.310450066843    -0.312440322671     1.358308914993    12.000000000000
         C            3.008918066843     0.375591677329    -0.978989085007    12.000000000000
         C           -0.507500933157    -0.305704322671    -0.175471085007    12.000000000000
         C           -1.897396933157     1.591608677329     0.741980914993    12.000000000000
         H            1.819929066843    -1.340875322671    -0.456962085007     1.007825032230
         H            0.652527066843     1.351510677329    -0.457131085007     1.007825032230
         H           -1.798960833157     0.972898577329    -1.339091685007     1.007825032230
         H            2.410260066843     0.712296677329     1.730023914993     1.007825032230
         H            1.529336066843    -0.820854322671     1.927853914993     1.007825032230
         H            3.257773066843    -0.833323322671     1.527279914993     1.007825032230
         H            3.132143066843     1.422185677329    -0.677840085007     1.007825032230
         H            2.733275066843     0.346637677329    -2.035598085007     1.007825032230
         H            3.975577066843    -0.119597322671    -0.857690085007     1.007825032230
         H           -1.840377933157     1.124099677329     1.727758914993     1.007825032230
         H           -2.865377933157     2.087556677329     0.649965914993     1.007825032230
         H           -1.112366933157     2.350061677329     0.660031914993     1.007825032230
         H           -2.497331933157    -1.232938322671    -0.088145085007     1.007825032230

  Basis Set: AUG-CC-PVTZ
    Blend: AUG-CC-PVTZ
  Basis Set: (AUG-CC-PVTZ AUX)
    Blend: AUG-CC-PVTZ-JKFIT
	 Reference Energy          =    -439.1351452562901159 [Eh]
	 Singles Energy            =      -0.0000000000000000 [Eh]
	 Same-Spin Energy          =      -0.4464032973510802 [Eh]
	 Opposite-Spin Energy      =      -1.4645409449892415 [Eh]
	 Correlation Energy        =      -1.9109442423403218 [Eh]
	 Total Energy              =    -441.0460894986304652 [Eh]

	 ================> DF-SCS-MP2 Energies <==================
	-----------------------------------------------------------
	 SCS Same-Spin Scale       =       0.3333333333333333 [-]
	 SCS Opposite-Spin Scale   =       1.2000000000000000 [-]
	 SCS Same-Spin Energy      =      -0.1488010991170267 [Eh]
	 SCS Opposite-Spin Energy  =      -1.7574491339870897 [Eh]
	 SCS Correlation Energy    =      -1.9062502331041165 [Eh]
	 SCS Total Energy          =    -441.0413954893942332 [Eh]
	-----------------------------------------------------------

  Dipole Moment: [D]
     X:     3.6228      Y:     2.9038      Z:    -0.1344     Total:     4.6449

*** Psi4 exiting successfully. Buy a developer a beer!
