                               Psi4 1.3.2 release

  ==> Input File <==

--------------------------------------------------------------------------
#psi4
#
memory 32 gb

molecule  {
0 1
  O       -2.8968130    -0.3474360    -0.2563530
  O       -0.5825960    -1.5131530     0.0834280
  N        0.6636045     0.3472076    -0.3389611
  C        1.9521820    -0.3066060    -0.1296730
  C       -1.7875910     0.5207530    -0.3412920
  C        2.2973518    -0.3047527     1.3553054
  C        3.0072020     0.3769410    -0.9846900
  C       -0.5092170    -0.3043550    -0.1811720
  C       -1.8991130     1.5929580     0.7362800
  H        1.8182130    -1.3395260    -0.4626630
  H        0.6508110     1.3528600    -0.4628320
  H       -1.7688680     0.9937940    -1.3356380
  H        2.4085440     0.7136460     1.7243230
  H        1.5276200    -0.8195050     1.9221530
  H        3.2560570    -0.8319740     1.5215790
  H        3.1304270     1.4235350    -0.6835410
  H        2.7315590     0.3479870    -2.0412990
  H        3.9738610    -0.1182480    -0.8633910
  H       -1.8420940     1.1254490     1.7220580
  H       -2.8670940     2.0889060     0.6442650
  H       -1.1140830     2.3514110     0.6543310
  H       -2.4990480    -1.2315890    -0.0938460
units angstrom
no_reorient  #important for SAPT in psi4, default
symmetry c1  #important for SAPT in psi4, default
}

set PROPERTIES_ORIGIN ["COM"]
properties('MP2/aug-cc-pvtz', properties = ['dipole'])
--------------------------------------------------------------------------

    Molecular point group: c1
  Charge       = 0
  Multiplicity = 1
  Basis Set: AUG-CC-PVTZ
    Blend: AUG-CC-PVTZ
  Basis Set: (AUG-CC-PVTZ AUX)
    Blend: AUG-CC-PVTZ-JKFIT

    Orbital Energies [Eh]
    ---------------------

    Doubly Occupied:

       1A    -20.547646     2A    -20.531999     3A    -15.595419
       4A    -11.357918     5A    -11.297173     6A    -11.277405
       7A    -11.232864     8A    -11.230588     9A    -11.222027
      10A     -1.397035    11A     -1.345617    12A     -1.248250
      13A     -1.072340    14A     -1.023636    15A     -0.950204
      16A     -0.894774    17A     -0.822425    18A     -0.795493
      19A     -0.736337    20A     -0.678925    21A     -0.649573
      22A     -0.632299    23A     -0.628950    24A     -0.597470
      25A     -0.581737    26A     -0.567426    27A     -0.556125
      28A     -0.546611    29A     -0.538987    30A     -0.528757
      31A     -0.512015    32A     -0.504109    33A     -0.492633
      34A     -0.444796    35A     -0.434008    36A     -0.400857

  @DF-RHF Final Energy:  -439.13766497020629

   => Energetics <=

    Nuclear Repulsion Energy =            485.4518315572194638
    One-Electron Energy =               -1561.4301382436419772
    Two-Electron Energy =                 636.8406417162161688
    Total Energy =                       -439.1376649702062878
  Basis Set: (AUG-CC-PVTZ AUX)
    Blend: AUG-CC-PVTZ-RI
    Molecular point group: c1

    Geometry (in Angstrom), charge = 0, multiplicity = 1:

       Center              X                  Y                   Z               Mass
    ------------   -----------------  -----------------  -----------------  -----------------
         O           -2.895660680869    -0.348240085982    -0.257937755422    15.994914619570
         O           -0.581443680869    -1.513957085982     0.081843244578    15.994914619570
         N            0.664756819131     0.346403514018    -0.340545855422    14.003074004430
         C            1.953334319131    -0.307410085982    -0.131257755422    12.000000000000
         C           -1.786438680869     0.519948914018    -0.342876755422    12.000000000000
         C            2.298504119131    -0.305556785982     1.353720644578    12.000000000000
         C            3.008354319131     0.376136914018    -0.986274755422    12.000000000000
         C           -0.508064680869    -0.305159085982    -0.182756755422    12.000000000000
         C           -1.897960680869     1.592153914018     0.734695244578    12.000000000000
         H            1.819365319131    -1.340330085982    -0.464247755422     1.007825032230
         H            0.651963319131     1.352055914018    -0.464416755422     1.007825032230
         H           -1.767715680869     0.992989914018    -1.337222755422     1.007825032230
         H            2.409696319131     0.712841914018     1.722738244578     1.007825032230
         H            1.528772319131    -0.820309085982     1.920568244578     1.007825032230
         H            3.257209319131    -0.832778085982     1.519994244578     1.007825032230
         H            3.131579319131     1.422730914018    -0.685125755422     1.007825032230
         H            2.732711319131     0.347182914018    -2.042883755422     1.007825032230
         H            3.975013319131    -0.119052085982    -0.864975755422     1.007825032230
         H           -1.840941680869     1.124644914018     1.720473244578     1.007825032230
         H           -2.865941680869     2.088101914018     0.642680244578     1.007825032230
         H           -1.112930680869     2.350606914018     0.652746244578     1.007825032230
         H           -2.497895680869    -1.232393085982    -0.095430755422     1.007825032230

  Basis Set: AUG-CC-PVTZ
    Blend: AUG-CC-PVTZ
  Basis Set: (AUG-CC-PVTZ AUX)
    Blend: AUG-CC-PVTZ-JKFIT
	 Reference Energy          =    -439.1376649702062878 [Eh]
	 Singles Energy            =      -0.0000000000000000 [Eh]
	 Same-Spin Energy          =      -0.4460425780125614 [Eh]
	 Opposite-Spin Energy      =      -1.4636505625349885 [Eh]
	 Correlation Energy        =      -1.9096931405475499 [Eh]
	 Total Energy              =    -441.0473581107538621 [Eh]

	 ================> DF-SCS-MP2 Energies <==================
	-----------------------------------------------------------
	 SCS Same-Spin Scale       =       0.3333333333333333 [-]
	 SCS Opposite-Spin Scale   =       1.2000000000000000 [-]
	 SCS Same-Spin Energy      =      -0.1486808593375205 [Eh]
	 SCS Opposite-Spin Energy  =      -1.7563806750419861 [Eh]
	 SCS Correlation Energy    =      -1.9050615343795065 [Eh]
	 SCS Total Energy          =    -441.0427265045858007 [Eh]
	-----------------------------------------------------------

  Dipole Moment: [D]
     X:     3.5950      Y:     2.9286      Z:    -0.2541     Total:     4.6439

*** Psi4 exiting successfully. Buy a developer a beer!
