                               Psi4 1.3.2 release

  ==> Input File <==

--------------------------------------------------------------------------
#psi4
#
memory 32 gb

molecule  {
0 1
  O       -2.8968130    -0.3474360    -0.2563530
  O       -0.5825960    -1.5131530     0.0834280
  N        0.6843672     0.3883533    -0.3331006
  C        1.9521820    -0.3066060    -0.1296730
  C       -1.7875910     0.5207530    -0.3412920
  C        2.3087340    -0.3110910     1.3526080
  C        3.0072020     0.3769410    -0.9846900
  C       -0.5092170    -0.3043550    -0.1811720
  C       -1.8991130     1.5929580     0.7362800
  H        1.8545171    -1.3465739    -0.4532192
  H        0.6508110     1.3528600    -0.4628320
  H       -1.7688680     0.9937940    -1.3356380
  H        2.4085440     0.7136460     1.7243230
  H        1.5276200    -0.8195050     1.9221530
  H        3.2560570    -0.8319740     1.5215790
  H        3.1304270     1.4235350    -0.6835410
  H        2.7315590     0.3479870    -2.0412990
  H        3.9738610    -0.1182480    -0.8633910
  H       -1.8420940     1.1254490     1.7220580
  H       -2.8670940     2.0889060     0.6442650
  H       -1.1140830     2.3514110     0.6543310
  H       -2.4990480    -1.2315890    -0.0938460
units angstrom
no_reorient  #important for SAPT in psi4, default
symmetry c1  #important for SAPT in psi4, default
}

set PROPERTIES_ORIGIN ["COM"]
properties('MP2/aug-cc-pvtz', properties = ['dipole'])
--------------------------------------------------------------------------

    Molecular point group: c1
  Charge       = 0
  Multiplicity = 1
  Basis Set: AUG-CC-PVTZ
    Blend: AUG-CC-PVTZ
  Basis Set: (AUG-CC-PVTZ AUX)
    Blend: AUG-CC-PVTZ-JKFIT

    Orbital Energies [Eh]
    ---------------------

    Doubly Occupied:

       1A    -20.548933     2A    -20.539403     3A    -15.591716
       4A    -11.364176     5A    -11.298249     6A    -11.276176
       7A    -11.231191     8A    -11.230297     9A    -11.220210
      10A     -1.398212    11A     -1.346681    12A     -1.246042
      13A     -1.069714    14A     -1.023865    15A     -0.948413
      16A     -0.894493    17A     -0.822466    18A     -0.795716
      19A     -0.735651    20A     -0.681448    21A     -0.652828
      22A     -0.637097    23A     -0.625413    24A     -0.596314
      25A     -0.582003    26A     -0.567818    27A     -0.553916
      28A     -0.545862    29A     -0.538909    30A     -0.529322
      31A     -0.516256    32A     -0.502454    33A     -0.488985
      34A     -0.445922    35A     -0.436083    36A     -0.400792

  @DF-RHF Final Energy:  -439.13443959050807

   => Energetics <=

    Nuclear Repulsion Energy =            484.7464672084742574
    One-Electron Energy =               -1559.9957603961929635
    Two-Electron Energy =                 636.1148535972105265
    Total Energy =                       -439.1344395905081228
  Basis Set: (AUG-CC-PVTZ AUX)
    Blend: AUG-CC-PVTZ-RI
    Molecular point group: c1

    Geometry (in Angstrom), charge = 0, multiplicity = 1:

       Center              X                  Y                   Z               Mass
    ------------   -----------------  -----------------  -----------------  -----------------
         O           -2.899199469682    -0.352000755943    -0.258389443747    15.994914619570
         O           -0.584982469682    -1.517717755943     0.081391556253    15.994914619570
         N            0.681980730318     0.383788544057    -0.335137043747    14.003074004430
         C            1.949795530318    -0.311170755943    -0.131709443747    12.000000000000
         C           -1.789977469682     0.516188244057    -0.343328443747    12.000000000000
         C            2.306347530318    -0.315655755943     1.350571556253    12.000000000000
         C            3.004815530318     0.372376244057    -0.986726443747    12.000000000000
         C           -0.511603469682    -0.308919755943    -0.183208443747    12.000000000000
         C           -1.901499469682     1.588393244057     0.734243556253    12.000000000000
         H            1.852130630318    -1.351138655943    -0.455255643747     1.007825032230
         H            0.648424530318     1.348295244057    -0.464868443747     1.007825032230
         H           -1.771254469682     0.989229244057    -1.337674443747     1.007825032230
         H            2.406157530318     0.709081244057     1.722286556253     1.007825032230
         H            1.525233530318    -0.824069755943     1.920116556253     1.007825032230
         H            3.253670530318    -0.836538755943     1.519542556253     1.007825032230
         H            3.128040530318     1.418970244057    -0.685577443747     1.007825032230
         H            2.729172530318     0.343422244057    -2.043335443747     1.007825032230
         H            3.971474530318    -0.122812755943    -0.865427443747     1.007825032230
         H           -1.844480469682     1.120884244057     1.720021556253     1.007825032230
         H           -2.869480469682     2.084341244057     0.642228556253     1.007825032230
         H           -1.116469469682     2.346846244057     0.652294556253     1.007825032230
         H           -2.501434469682    -1.236153755943    -0.095882443747     1.007825032230

  Basis Set: AUG-CC-PVTZ
    Blend: AUG-CC-PVTZ
  Basis Set: (AUG-CC-PVTZ AUX)
    Blend: AUG-CC-PVTZ-JKFIT
	 Reference Energy          =    -439.1344395905080660 [Eh]
	 Singles Energy            =      -0.0000000000000000 [Eh]
	 Same-Spin Energy          =      -0.4459199255732014 [Eh]
	 Opposite-Spin Energy      =      -1.4637987902352190 [Eh]
	 Correlation Energy        =      -1.9097187158084203 [Eh]
	 Total Energy              =    -441.0441583063164899 [Eh]

	 ================> DF-SCS-MP2 Energies <==================
	-----------------------------------------------------------
	 SCS Same-Spin Scale       =       0.3333333333333333 [-]
	 SCS Opposite-Spin Scale   =       1.2000000000000000 [-]
	 SCS Same-Spin Energy      =      -0.1486399751910671 [Eh]
	 SCS Opposite-Spin Energy  =      -1.7565585482822628 [Eh]
	 SCS Correlation Energy    =      -1.9051985234733300 [Eh]
	 SCS Total Energy          =    -441.0396381139813684 [Eh]
	-----------------------------------------------------------

  Dipole Moment: [D]
     X:     3.4082      Y:     2.7945      Z:    -0.2467     Total:     4.4142

*** Psi4 exiting successfully. Buy a developer a beer!
