                               Psi4 1.3.2 release

  ==> Input File <==

--------------------------------------------------------------------------
#psi4
#
memory 32 gb

molecule  {
0 1
  O       -2.8968130    -0.3474360    -0.2563530
  O       -0.5825960    -1.5131530     0.0834280
  N        0.6646380     0.3451110    -0.3514860
  C        1.9521820    -0.3066060    -0.1296730
  C       -1.7875910     0.5207530    -0.3412920
  C        2.3087340    -0.3110910     1.3526080
  C        3.0072020     0.3769410    -0.9846900
  C       -0.5027224    -0.2897145    -0.1598069
  C       -1.8759729     1.5847469     0.7465167
  H        1.8182130    -1.3395260    -0.4626630
  H        0.6508110     1.3528600    -0.4628320
  H       -1.7688680     0.9937940    -1.3356380
  H        2.4085440     0.7136460     1.7243230
  H        1.5276200    -0.8195050     1.9221530
  H        3.2560570    -0.8319740     1.5215790
  H        3.1304270     1.4235350    -0.6835410
  H        2.7315590     0.3479870    -2.0412990
  H        3.9738610    -0.1182480    -0.8633910
  H       -1.8420940     1.1254490     1.7220580
  H       -2.8670940     2.0889060     0.6442650
  H       -1.1140830     2.3514110     0.6543310
  H       -2.4990480    -1.2315890    -0.0938460
units angstrom
no_reorient  #important for SAPT in psi4, default
symmetry c1  #important for SAPT in psi4, default
}

set PROPERTIES_ORIGIN ["COM"]
properties('MP2/aug-cc-pvtz', properties = ['dipole'])
--------------------------------------------------------------------------

    Molecular point group: c1
  Charge       = 0
  Multiplicity = 1
  Basis Set: AUG-CC-PVTZ
    Blend: AUG-CC-PVTZ
  Basis Set: (AUG-CC-PVTZ AUX)
    Blend: AUG-CC-PVTZ-JKFIT

    Orbital Energies [Eh]
    ---------------------

    Doubly Occupied:

       1A    -20.547974     2A    -20.529596     3A    -15.597746
       4A    -11.357452     5A    -11.297673     6A    -11.278147
       7A    -11.233109     8A    -11.230624     9A    -11.222970
      10A     -1.392355    11A     -1.344010    12A     -1.250053
      13A     -1.074051    14A     -1.024981    15A     -0.950651
      16A     -0.894181    17A     -0.823787    18A     -0.796808
      19A     -0.736294    20A     -0.679182    21A     -0.650162
      22A     -0.631079    23A     -0.628942    24A     -0.597106
      25A     -0.581860    26A     -0.565523    27A     -0.555882
      28A     -0.546428    29A     -0.541408    30A     -0.531090
      31A     -0.510270    32A     -0.502312    33A     -0.491207
      34A     -0.445624    35A     -0.431799    36A     -0.402190

  @DF-RHF Final Energy:  -439.13571965681024

   => Energetics <=

    Nuclear Repulsion Energy =            485.5217615409517862
    One-Electron Energy =               -1561.5659122548497635
    Two-Electron Energy =                 636.9084310570877960
    Total Energy =                       -439.1357196568102381
  Basis Set: (AUG-CC-PVTZ AUX)
    Blend: AUG-CC-PVTZ-RI
    Molecular point group: c1

    Geometry (in Angstrom), charge = 0, multiplicity = 1:

       Center              X                  Y                   Z               Mass
    ------------   -----------------  -----------------  -----------------  -----------------
         O           -2.899525636910    -0.348024473449    -0.259245709074    15.994914619570
         O           -0.585308636910    -1.513741473449     0.080535290926    15.994914619570
         N            0.661925363090     0.344522526551    -0.354378709074    14.003074004430
         C            1.949469363090    -0.307194473449    -0.132565709074    12.000000000000
         C           -1.790303636910     0.520164526551    -0.344184709074    12.000000000000
         C            2.306021363090    -0.311679473449     1.349715290926    12.000000000000
         C            3.004489363090     0.376352526551    -0.987582709074    12.000000000000
         C           -0.505435036910    -0.290302973449    -0.162699609074    12.000000000000
         C           -1.878685536910     1.584158426551     0.743623990926    12.000000000000
         H            1.815500363090    -1.340114473449    -0.465555709074     1.007825032230
         H            0.648098363090     1.352271526551    -0.465724709074     1.007825032230
         H           -1.771580636910     0.993205526551    -1.338530709074     1.007825032230
         H            2.405831363090     0.713057526551     1.721430290926     1.007825032230
         H            1.524907363090    -0.820093473449     1.919260290926     1.007825032230
         H            3.253344363090    -0.832562473449     1.518686290926     1.007825032230
         H            3.127714363090     1.422946526551    -0.686433709074     1.007825032230
         H            2.728846363090     0.347398526551    -2.044191709074     1.007825032230
         H            3.971148363090    -0.118836473449    -0.866283709074     1.007825032230
         H           -1.844806636910     1.124860526551     1.719165290926     1.007825032230
         H           -2.869806636910     2.088317526551     0.641372290926     1.007825032230
         H           -1.116795636910     2.350822526551     0.651438290926     1.007825032230
         H           -2.501760636910    -1.232177473449    -0.096738709074     1.007825032230

  Basis Set: AUG-CC-PVTZ
    Blend: AUG-CC-PVTZ
  Basis Set: (AUG-CC-PVTZ AUX)
    Blend: AUG-CC-PVTZ-JKFIT
	 Reference Energy          =    -439.1357196568102381 [Eh]
	 Singles Energy            =      -0.0000000000000000 [Eh]
	 Same-Spin Energy          =      -0.4463205436394856 [Eh]
	 Opposite-Spin Energy      =      -1.4641509110884541 [Eh]
	 Correlation Energy        =      -1.9104714547279396 [Eh]
	 Total Energy              =    -441.0461911115381781 [Eh]

	 ================> DF-SCS-MP2 Energies <==================
	-----------------------------------------------------------
	 SCS Same-Spin Scale       =       0.3333333333333333 [-]
	 SCS Opposite-Spin Scale   =       1.2000000000000000 [-]
	 SCS Same-Spin Energy      =      -0.1487735145464952 [Eh]
	 SCS Opposite-Spin Energy  =      -1.7569810933061449 [Eh]
	 SCS Correlation Energy    =      -1.9057546078526402 [Eh]
	 SCS Total Energy          =    -441.0414742646628952 [Eh]
	-----------------------------------------------------------

  Dipole Moment: [D]
     X:     3.6524      Y:     2.9806      Z:    -0.2251     Total:     4.7196

*** Psi4 exiting successfully. Buy a developer a beer!
