                               Psi4 1.4a3.dev225

  ==> Input File <==

--------------------------------------------------------------------------
#psi4
#
memory 32 gb

molecule  {
0 1
  O       -1.7446660    -1.3796590    -0.7880960
  O       -0.4296620     1.7569970     0.2600660
  N        0.4723820    -0.3330750    -0.0012650
  C        1.8863613     0.0871952     0.3116785
  C       -1.9099390    -0.0103690    -0.3967440
  C        2.4958720     0.7244850    -0.9128940
  C        2.6145980    -1.1365250     0.8043010
  C       -0.5442740     0.5588710    -0.0269710
  C       -2.8608870     0.1360220     0.7815810
  H        1.7638430     0.8203410     1.0982830
  H        0.2750420    -1.2730860    -0.3263580
  H       -2.2722210     0.5864250    -1.2458220
  H        2.5570320     0.0100450    -1.7401110
  H        1.9072700     1.5874400    -1.2316560
  H        3.5085800     1.0627310    -0.6705710
  H        2.6773940    -1.9046250     0.0252330
  H        2.1327900    -1.5715010     1.6841320
  H        3.6348850    -0.8497170     1.0733550
  H       -2.5011890    -0.4705790     1.6169940
  H       -3.8694610    -0.1962540     0.5126420
  H       -2.9055320     1.1820880     1.0905810
  H       -2.6295620    -1.7449530    -0.9570530
units angstrom
no_reorient  #important for SAPT in psi4, default
symmetry c1  #important for SAPT in psi4, default
}

set PROPERTIES_ORIGIN ["COM"]
properties('MP2/aug-cc-pvtz', properties = ['dipole'])
--------------------------------------------------------------------------

    Molecular point group: c1
  Charge       = 0
  Multiplicity = 1
  Basis Set: AUG-CC-PVTZ
    Blend: AUG-CC-PVTZ
  Basis Set: (AUG-CC-PVTZ AUX)
    Blend: AUG-CC-PVTZ-JKFIT

    Orbital Energies [Eh]
    ---------------------

    Doubly Occupied:

       1A    -20.579443     2A    -20.506652     3A    -15.572381
       4A    -11.340307     5A    -11.299313     6A    -11.266436
       7A    -11.227691     8A    -11.222342     9A    -11.210815
      10A     -1.385779    11A     -1.355834    12A     -1.217227
      13A     -1.061006    14A     -1.028981    15A     -0.941432
      16A     -0.893711    17A     -0.810465    18A     -0.773126
      19A     -0.711171    20A     -0.688449    21A     -0.642330
      22A     -0.638540    23A     -0.616932    24A     -0.592499
      25A     -0.578216    26A     -0.562322    27A     -0.550724
      28A     -0.544659    29A     -0.523378    30A     -0.520013
      31A     -0.508641    32A     -0.497305    33A     -0.486091
      34A     -0.458961    35A     -0.410583    36A     -0.382461

  @DF-RHF Final Energy:  -439.13567612900522

   => Energetics <=

    Nuclear Repulsion Energy =            485.3140491832254497
    One-Electron Energy =               -1561.6870222799361727
    Two-Electron Energy =                 637.2372969677054471
    Total Energy =                       -439.1356761290052191
  Basis Set: (AUG-CC-PVTZ AUX)
    Blend: AUG-CC-PVTZ-RI
    Molecular point group: c1

    Geometry (in Angstrom), charge = 0, multiplicity = 1:

       Center              X                  Y                   Z               Mass
    ------------   -----------------  -----------------  -----------------  -----------------
         O           -1.716668958897    -1.401813307062    -0.782030403492    15.994914619570
         O           -0.401664958897     1.734842692938     0.266131596508    15.994914619570
         N            0.500379041103    -0.355229307062     0.004800596508    14.003074004430
         C            1.914358341103     0.065040892938     0.317744096508    12.000000000000
         C           -1.881941958897    -0.032523307062    -0.390678403492    12.000000000000
         C            2.523869041103     0.702330692938    -0.906828403492    12.000000000000
         C            2.642595041103    -1.158679307062     0.810366596508    12.000000000000
         C           -0.516276958897     0.536716692938    -0.020905403492    12.000000000000
         C           -2.832889958897     0.113867692938     0.787646596508    12.000000000000
         H            1.791840041103     0.798186692938     1.104348596508     1.007825032230
         H            0.303039041103    -1.295240307062    -0.320292403492     1.007825032230
         H           -2.244223958897     0.564270692938    -1.239756403492     1.007825032230
         H            2.585029041103    -0.012109307062    -1.734045403492     1.007825032230
         H            1.935267041103     1.565285692938    -1.225590403492     1.007825032230
         H            3.536577041103     1.040576692938    -0.664505403492     1.007825032230
         H            2.705391041103    -1.926779307062     0.031298596508     1.007825032230
         H            2.160787041103    -1.593655307062     1.690197596508     1.007825032230
         H            3.662882041103    -0.871871307062     1.079420596508     1.007825032230
         H           -2.473191958897    -0.492733307062     1.623059596508     1.007825032230
         H           -3.841463958897    -0.218408307062     0.518707596508     1.007825032230
         H           -2.877534958897     1.159933692938     1.096646596508     1.007825032230
         H           -2.601564958897    -1.767107307062    -0.950987403492     1.007825032230

  Basis Set: AUG-CC-PVTZ
    Blend: AUG-CC-PVTZ
  Basis Set: (AUG-CC-PVTZ AUX)
    Blend: AUG-CC-PVTZ-JKFIT
	 Reference Energy          =    -439.1356761290052191 [Eh]
	 Singles Energy            =      -0.0000000000000000 [Eh]
	 Same-Spin Energy          =      -0.4454970229914492 [Eh]
	 Opposite-Spin Energy      =      -1.4636873642456805 [Eh]
	 Correlation Energy        =      -1.9091843872371297 [Eh]
	 Total Energy              =    -441.0448605162423519 [Eh]

	 ================> DF-SCS-MP2 Energies <==================
	-----------------------------------------------------------
	 SCS Same-Spin Scale       =       0.3333333333333333 [-]
	 SCS Opposite-Spin Scale   =       1.2000000000000000 [-]
	 SCS Same-Spin Energy      =      -0.1484990076638164 [Eh]
	 SCS Opposite-Spin Energy  =      -1.7564248370948166 [Eh]
	 SCS Correlation Energy    =      -1.9049238447586330 [Eh]
	 SCS Total Energy          =    -441.0405999737638467 [Eh]
	-----------------------------------------------------------

  Dipole Moment: [D]
     X:    -0.4848      Y:    -2.8815      Z:    -0.4595     Total:     2.9579

*** Psi4 exiting successfully. Buy a developer a beer!
