                               Psi4 1.3.2 release

  ==> Input File <==

--------------------------------------------------------------------------
#psi4
#
memory 32 gb

molecule  {
0 1
  O       -2.8497062    -0.4035448    -0.2468201
  O       -0.5825960    -1.5131530     0.0834280
  N        0.6646380     0.3451110    -0.3514860
  C        1.9521820    -0.3066060    -0.1296730
  C       -1.7875910     0.5207530    -0.3412920
  C        2.3087340    -0.3110910     1.3526080
  C        3.0072020     0.3769410    -0.9846900
  C       -0.5548746    -0.3697156    -0.1734892
  C       -1.8991130     1.5929580     0.7362800
  H        1.8182130    -1.3395260    -0.4626630
  H        0.6508110     1.3528600    -0.4628320
  H       -1.7688680     0.9937940    -1.3356380
  H        2.4085440     0.7136460     1.7243230
  H        1.5276200    -0.8195050     1.9221530
  H        3.2560570    -0.8319740     1.5215790
  H        3.1304270     1.4235350    -0.6835410
  H        2.7315590     0.3479870    -2.0412990
  H        3.9738610    -0.1182480    -0.8633910
  H       -1.8420940     1.1254490     1.7220580
  H       -2.8670940     2.0889060     0.6442650
  H       -1.1140830     2.3514110     0.6543310
  H       -2.4990480    -1.2315890    -0.0938460
units angstrom
no_reorient  #important for SAPT in psi4, default
symmetry c1  #important for SAPT in psi4, default
}

set PROPERTIES_ORIGIN ["COM"]
properties('MP2/aug-cc-pvtz', properties = ['dipole'])
--------------------------------------------------------------------------

    Molecular point group: c1
  Charge       = 0
  Multiplicity = 1
  Basis Set: AUG-CC-PVTZ
    Blend: AUG-CC-PVTZ
  Basis Set: (AUG-CC-PVTZ AUX)
    Blend: AUG-CC-PVTZ-JKFIT

    Orbital Energies [Eh]
    ---------------------

    Doubly Occupied:

       1A    -20.547461     2A    -20.542792     3A    -15.578295
       4A    -11.357383     5A    -11.299748     6A    -11.268918
       7A    -11.233129     8A    -11.226200     9A    -11.217027
      10A     -1.440177    11A     -1.367696    12A     -1.226283
      13A     -1.063591    14A     -1.022371    15A     -0.944017
      16A     -0.895090    17A     -0.816105    18A     -0.782447
      19A     -0.745705    20A     -0.689835    21A     -0.657166
      22A     -0.637161    23A     -0.623981    24A     -0.602313
      25A     -0.584857    26A     -0.571197    27A     -0.551408
      28A     -0.544840    29A     -0.541898    30A     -0.536431
      31A     -0.520454    32A     -0.502134    33A     -0.487801
      34A     -0.450952    35A     -0.434030    36A     -0.392090

  @DF-RHF Final Energy:  -439.13078645084619

   => Energetics <=

    Nuclear Repulsion Energy =            486.3692927922328977
    One-Electron Energy =               -1563.1941926230047102
    Two-Electron Energy =                 637.6941133799256249
    Total Energy =                       -439.1307864508461307
  Basis Set: (AUG-CC-PVTZ AUX)
    Blend: AUG-CC-PVTZ-RI
    Molecular point group: c1

    Geometry (in Angstrom), charge = 0, multiplicity = 1:

       Center              X                  Y                   Z               Mass
    ------------   -----------------  -----------------  -----------------  -----------------
         O           -2.851274332688    -0.390715977231    -0.248686450635    15.994914619570
         O           -0.584164132688    -1.500324177231     0.081561649365    15.994914619570
         N            0.663069867312     0.357939822769    -0.353352350635    14.003074004430
         C            1.950613867312    -0.293777177231    -0.131539350635    12.000000000000
         C           -1.789159132688     0.533581822769    -0.343158350635    12.000000000000
         C            2.307165867312    -0.298262177231     1.350741649365    12.000000000000
         C            3.005633867312     0.389769822769    -0.986556350635    12.000000000000
         C           -0.556442732688    -0.356886777231    -0.175355550635    12.000000000000
         C           -1.900681132688     1.605786822769     0.734413649365    12.000000000000
         H            1.816644867312    -1.326697177231    -0.464529350635     1.007825032230
         H            0.649242867312     1.365688822769    -0.464698350635     1.007825032230
         H           -1.770436132688     1.006622822769    -1.337504350635     1.007825032230
         H            2.406975867312     0.726474822769     1.722456649365     1.007825032230
         H            1.526051867312    -0.806676177231     1.920286649365     1.007825032230
         H            3.254488867312    -0.819145177231     1.519712649365     1.007825032230
         H            3.128858867312     1.436363822769    -0.685407350635     1.007825032230
         H            2.729990867312     0.360815822769    -2.043165350635     1.007825032230
         H            3.972292867312    -0.105419177231    -0.865257350635     1.007825032230
         H           -1.843662132688     1.138277822769     1.720191649365     1.007825032230
         H           -2.868662132688     2.101734822769     0.642398649365     1.007825032230
         H           -1.115651132688     2.364239822769     0.652464649365     1.007825032230
         H           -2.500616132688    -1.218760177231    -0.095712350635     1.007825032230

  Basis Set: AUG-CC-PVTZ
    Blend: AUG-CC-PVTZ
  Basis Set: (AUG-CC-PVTZ AUX)
    Blend: AUG-CC-PVTZ-JKFIT
	 Reference Energy          =    -439.1307864508461876 [Eh]
	 Singles Energy            =      -0.0000000000000000 [Eh]
	 Same-Spin Energy          =      -0.4437874587657640 [Eh]
	 Opposite-Spin Energy      =      -1.4592747094820551 [Eh]
	 Correlation Energy        =      -1.9030621682478190 [Eh]
	 Total Energy              =    -441.0338486190939875 [Eh]

	 ================> DF-SCS-MP2 Energies <==================
	-----------------------------------------------------------
	 SCS Same-Spin Scale       =       0.3333333333333333 [-]
	 SCS Opposite-Spin Scale   =       1.2000000000000000 [-]
	 SCS Same-Spin Energy      =      -0.1479291529219213 [Eh]
	 SCS Opposite-Spin Energy  =      -1.7511296513784660 [Eh]
	 SCS Correlation Energy    =      -1.8990588043003873 [Eh]
	 SCS Total Energy          =    -441.0298452551465971 [Eh]
	-----------------------------------------------------------

  Dipole Moment: [D]
     X:     2.8838      Y:     2.6090      Z:    -0.1518     Total:     3.8919

*** Psi4 exiting successfully. Buy a developer a beer!
