                               Psi4 1.3.2 release

  ==> Input File <==

--------------------------------------------------------------------------
#psi4
#
memory 32 gb

molecule  {
0 1
  O       -2.8968130    -0.3474360    -0.2563530
  O       -0.5825960    -1.5131530     0.0834280
  N        0.6646380     0.3451110    -0.3514860
  C        1.9521820    -0.3066060    -0.1296730
  C       -1.8346215     0.5765864    -0.3526446
  C        2.3087340    -0.3110910     1.3526080
  C        3.0072020     0.3769410    -0.9846900
  C       -0.5092170    -0.3043550    -0.1811720
  C       -1.8991130     1.5929580     0.7362800
  H        1.8182130    -1.3395260    -0.4626630
  H        0.6508110     1.3528600    -0.4628320
  H       -1.7688680     0.9937940    -1.3356380
  H        2.4085440     0.7136460     1.7243230
  H        1.5276200    -0.8195050     1.9221530
  H        3.2560570    -0.8319740     1.5215790
  H        3.1304270     1.4235350    -0.6835410
  H        2.7315590     0.3479870    -2.0412990
  H        3.9738610    -0.1182480    -0.8633910
  H       -1.8420940     1.1254490     1.7220580
  H       -2.8670940     2.0889060     0.6442650
  H       -1.1140830     2.3514110     0.6543310
  H       -2.5465735    -1.2513213    -0.0930259
units angstrom
no_reorient  #important for SAPT in psi4, default
symmetry c1  #important for SAPT in psi4, default
}

set PROPERTIES_ORIGIN ["COM"]
properties('MP2/aug-cc-pvtz', properties = ['dipole'])
--------------------------------------------------------------------------

    Molecular point group: c1
  Charge       = 0
  Multiplicity = 1
  Basis Set: AUG-CC-PVTZ
    Blend: AUG-CC-PVTZ
  Basis Set: (AUG-CC-PVTZ AUX)
    Blend: AUG-CC-PVTZ-JKFIT

    Orbital Energies [Eh]
    ---------------------

    Doubly Occupied:

       1A    -20.545445     2A    -20.530177     3A    -15.593913
       4A    -11.356249     5A    -11.298839     6A    -11.275746
       7A    -11.231417     8A    -11.229486     9A    -11.221331
      10A     -1.390951    11A     -1.342934    12A     -1.245258
      13A     -1.069923    14A     -1.029401    15A     -0.948902
      16A     -0.885861    17A     -0.823558    18A     -0.794602
      19A     -0.728443    20A     -0.680576    21A     -0.653095
      22A     -0.630896    23A     -0.627275    24A     -0.595719
      25A     -0.587065    26A     -0.569696    27A     -0.554054
      28A     -0.546164    29A     -0.539183    30A     -0.531693
      31A     -0.503573    32A     -0.501472    33A     -0.489246
      34A     -0.451899    35A     -0.420815    36A     -0.399820

  @DF-RHF Final Energy:  -439.13251293560540

   => Energetics <=

    Nuclear Repulsion Energy =            484.2570879062579365
    One-Electron Energy =               -1559.1298481396202078
    Two-Electron Energy =                 635.7402472977568095
    Total Energy =                       -439.1325129356054049
  Basis Set: (AUG-CC-PVTZ AUX)
    Blend: AUG-CC-PVTZ-RI
    Molecular point group: c1

    Geometry (in Angstrom), charge = 0, multiplicity = 1:

       Center              X                  Y                   Z               Mass
    ------------   -----------------  -----------------  -----------------  -----------------
         O           -2.892142574778    -0.352395066661    -0.255320099857    15.994914619570
         O           -0.577925574778    -1.518112066661     0.084460900143    15.994914619570
         N            0.669308425222     0.340151933339    -0.350453099857    14.003074004430
         C            1.956852425222    -0.311565066661    -0.128640099857    12.000000000000
         C           -1.829951074778     0.571627333339    -0.351611699857    12.000000000000
         C            2.313404425222    -0.316050066661     1.353640900143    12.000000000000
         C            3.011872425222     0.371981933339    -0.983657099857    12.000000000000
         C           -0.504546574778    -0.309314066661    -0.180139099857    12.000000000000
         C           -1.894442574778     1.587998933339     0.737312900143    12.000000000000
         H            1.822883425222    -1.344485066661    -0.461630099857     1.007825032230
         H            0.655481425222     1.347900933339    -0.461799099857     1.007825032230
         H           -1.764197574778     0.988834933339    -1.334605099857     1.007825032230
         H            2.413214425222     0.708686933339     1.725355900143     1.007825032230
         H            1.532290425222    -0.824464066661     1.923185900143     1.007825032230
         H            3.260727425222    -0.836933066661     1.522611900143     1.007825032230
         H            3.135097425222     1.418575933339    -0.682508099857     1.007825032230
         H            2.736229425222     0.343027933339    -2.040266099857     1.007825032230
         H            3.978531425222    -0.123207066661    -0.862358099857     1.007825032230
         H           -1.837423574778     1.120489933339     1.723090900143     1.007825032230
         H           -2.862423574778     2.083946933339     0.645297900143     1.007825032230
         H           -1.109412574778     2.346451933339     0.655363900143     1.007825032230
         H           -2.541903074778    -1.256280366661    -0.091992999857     1.007825032230

  Basis Set: AUG-CC-PVTZ
    Blend: AUG-CC-PVTZ
  Basis Set: (AUG-CC-PVTZ AUX)
    Blend: AUG-CC-PVTZ-JKFIT
	 Reference Energy          =    -439.1325129356054049 [Eh]
	 Singles Energy            =      -0.0000000000000000 [Eh]
	 Same-Spin Energy          =      -0.4459380801882592 [Eh]
	 Opposite-Spin Energy      =      -1.4635307174688750 [Eh]
	 Correlation Energy        =      -1.9094687976571341 [Eh]
	 Total Energy              =    -441.0419817332625598 [Eh]

	 ================> DF-SCS-MP2 Energies <==================
	-----------------------------------------------------------
	 SCS Same-Spin Scale       =       0.3333333333333333 [-]
	 SCS Opposite-Spin Scale   =       1.2000000000000000 [-]
	 SCS Same-Spin Energy      =      -0.1486460267294197 [Eh]
	 SCS Opposite-Spin Energy  =      -1.7562368609626500 [Eh]
	 SCS Correlation Energy    =      -1.9048828876920698 [Eh]
	 SCS Total Energy          =    -441.0373958232974587 [Eh]
	-----------------------------------------------------------

  Dipole Moment: [D]
     X:     3.4911      Y:     2.9251      Z:    -0.2208     Total:     4.5599

*** Psi4 exiting successfully. Buy a developer a beer!
