                               Psi4 1.3.2 release

  ==> Input File <==

--------------------------------------------------------------------------
#psi4
#
memory 32 gb

molecule  {
0 1
  O       -2.8968130    -0.3474360    -0.2563530
  O       -0.5825960    -1.5131530     0.0834280
  N        0.6646380     0.3451110    -0.3514860
  C        1.9521820    -0.3066060    -0.1296730
  C       -1.7875910     0.5207530    -0.3412920
  C        2.3087340    -0.3110910     1.3526080
  C        3.0072020     0.3769410    -0.9846900
  C       -0.4966192    -0.2748271    -0.1384970
  C       -1.8528058     1.5762118     0.7564220
  H        1.8182130    -1.3395260    -0.4626630
  H        0.6508110     1.3528600    -0.4628320
  H       -1.7688680     0.9937940    -1.3356380
  H        2.4085440     0.7136460     1.7243230
  H        1.5276200    -0.8195050     1.9221530
  H        3.2560570    -0.8319740     1.5215790
  H        3.1304270     1.4235350    -0.6835410
  H        2.7315590     0.3479870    -2.0412990
  H        3.9738610    -0.1182480    -0.8633910
  H       -1.8420940     1.1254490     1.7220580
  H       -2.8670940     2.0889060     0.6442650
  H       -1.1140830     2.3514110     0.6543310
  H       -2.4990480    -1.2315890    -0.0938460
units angstrom
no_reorient  #important for SAPT in psi4, default
symmetry c1  #important for SAPT in psi4, default
}

set PROPERTIES_ORIGIN ["COM"]
properties('MP2/aug-cc-pvtz', properties = ['dipole'])
--------------------------------------------------------------------------

    Molecular point group: c1
  Charge       = 0
  Multiplicity = 1
  Basis Set: AUG-CC-PVTZ
    Blend: AUG-CC-PVTZ
  Basis Set: (AUG-CC-PVTZ AUX)
    Blend: AUG-CC-PVTZ-JKFIT

    Orbital Energies [Eh]
    ---------------------

    Doubly Occupied:

       1A    -20.548202     2A    -20.526822     3A    -15.599781
       4A    -11.356857     5A    -11.298197     6A    -11.279054
       7A    -11.233876     8A    -11.230775     9A    -11.223687
      10A     -1.387923    11A     -1.342160    12A     -1.251561
      13A     -1.075846    14A     -1.026263    15A     -0.951432
      16A     -0.893576    17A     -0.825240    18A     -0.798544
      19A     -0.736149    20A     -0.679739    21A     -0.651100
      22A     -0.631846    23A     -0.627065    24A     -0.597142
      25A     -0.582755    26A     -0.564089    27A     -0.556712
      28A     -0.548264    29A     -0.540263    30A     -0.531026
      31A     -0.507569    32A     -0.501868    33A     -0.490236
      34A     -0.446423    35A     -0.428791    36A     -0.402663

  @DF-RHF Final Energy:  -439.13085394482732

   => Energetics <=

    Nuclear Repulsion Energy =            485.7283958785999971
    One-Electron Energy =               -1561.9715094743321515
    Two-Electron Energy =                 637.1122596509048890
    Total Energy =                       -439.1308539448273223
  Basis Set: (AUG-CC-PVTZ AUX)
    Blend: AUG-CC-PVTZ-RI
    Molecular point group: c1

    Geometry (in Angstrom), charge = 0, multiplicity = 1:

       Center              X                  Y                   Z               Mass
    ------------   -----------------  -----------------  -----------------  -----------------
         O           -2.902204950346    -0.348605943497    -0.262103052688    15.994914619570
         O           -0.587987950346    -1.514322943497     0.077677947312    15.994914619570
         N            0.659246049654     0.343941056503    -0.357236052688    14.003074004430
         C            1.946790049654    -0.307775943497    -0.135423052688    12.000000000000
         C           -1.792982950346     0.519583056503    -0.347042052688    12.000000000000
         C            2.303342049654    -0.312260943497     1.346857947312    12.000000000000
         C            3.001810049654     0.375771056503    -0.990440052688    12.000000000000
         C           -0.502011150346    -0.275997043497    -0.144247052688    12.000000000000
         C           -1.858197750346     1.575041856503     0.750671947312    12.000000000000
         H            1.812821049654    -1.340695943497    -0.468413052688     1.007825032230
         H            0.645419049654     1.351690056503    -0.468582052688     1.007825032230
         H           -1.774259950346     0.992624056503    -1.341388052688     1.007825032230
         H            2.403152049654     0.712476056503     1.718572947312     1.007825032230
         H            1.522228049654    -0.820674943497     1.916402947312     1.007825032230
         H            3.250665049654    -0.833143943497     1.515828947312     1.007825032230
         H            3.125035049654     1.422365056503    -0.689291052688     1.007825032230
         H            2.726167049654     0.346817056503    -2.047049052688     1.007825032230
         H            3.968469049654    -0.119417943497    -0.869141052688     1.007825032230
         H           -1.847485950346     1.124279056503     1.716307947312     1.007825032230
         H           -2.872485950346     2.087736056503     0.638514947312     1.007825032230
         H           -1.119474950346     2.350241056503     0.648580947312     1.007825032230
         H           -2.504439950346    -1.232758943497    -0.099596052688     1.007825032230

  Basis Set: AUG-CC-PVTZ
    Blend: AUG-CC-PVTZ
  Basis Set: (AUG-CC-PVTZ AUX)
    Blend: AUG-CC-PVTZ-JKFIT
	 Reference Energy          =    -439.1308539448273223 [Eh]
	 Singles Energy            =      -0.0000000000000000 [Eh]
	 Same-Spin Energy          =      -0.4467021761321434 [Eh]
	 Opposite-Spin Energy      =      -1.4648764079589802 [Eh]
	 Correlation Energy        =      -1.9115785840911235 [Eh]
	 Total Energy              =    -441.0424325289184253 [Eh]

	 ================> DF-SCS-MP2 Energies <==================
	-----------------------------------------------------------
	 SCS Same-Spin Scale       =       0.3333333333333333 [-]
	 SCS Opposite-Spin Scale   =       1.2000000000000000 [-]
	 SCS Same-Spin Energy      =      -0.1489007253773811 [Eh]
	 SCS Opposite-Spin Energy  =      -1.7578516895507763 [Eh]
	 SCS Correlation Energy    =      -1.9067524149281574 [Eh]
	 SCS Total Energy          =    -441.0376063597555003 [Eh]
	-----------------------------------------------------------

  Dipole Moment: [D]
     X:     3.7263      Y:     3.0410      Z:    -0.2275     Total:     4.8151

*** Psi4 exiting successfully. Buy a developer a beer!
