                               Psi4 1.4a3.dev225

  ==> Input File <==

--------------------------------------------------------------------------
#psi4
#
memory 32 gb

molecule  {
0 1
  O       -1.7446660    -1.3796590    -0.7880960
  O       -0.4296620     1.7569970     0.2600660
  N        0.4723820    -0.3330750    -0.0012650
  C        1.8394770     0.0732600     0.3013020
  C       -1.9099390    -0.0103690    -0.3967440
  C        2.4958720     0.7244850    -0.9128940
  C        2.6145980    -1.1365250     0.8043010
  C       -0.5263643     0.5663362    -0.0221217
  C       -2.8608870     0.1360220     0.7815810
  H        1.7638430     0.8203410     1.0982830
  H        0.2750420    -1.2730860    -0.3263580
  H       -2.2722210     0.5864250    -1.2458220
  H        2.5570320     0.0100450    -1.7401110
  H        1.9072700     1.5874400    -1.2316560
  H        3.5085800     1.0627310    -0.6705710
  H        2.6773940    -1.9046250     0.0252330
  H        2.1327900    -1.5715010     1.6841320
  H        3.6348850    -0.8497170     1.0733550
  H       -2.5011890    -0.4705790     1.6169940
  H       -3.8694610    -0.1962540     0.5126420
  H       -2.9055320     1.1820880     1.0905810
  H       -2.6295620    -1.7449530    -0.9570530
units angstrom
no_reorient  #important for SAPT in psi4, default
symmetry c1  #important for SAPT in psi4, default
}

set PROPERTIES_ORIGIN ["COM"]
properties('MP2/aug-cc-pvtz', properties = ['dipole'])
--------------------------------------------------------------------------

    Molecular point group: c1
  Charge       = 0
  Multiplicity = 1
  Basis Set: AUG-CC-PVTZ
    Blend: AUG-CC-PVTZ
  Basis Set: (AUG-CC-PVTZ AUX)
    Blend: AUG-CC-PVTZ-JKFIT

    Orbital Energies [Eh]
    ---------------------

    Doubly Occupied:

       1A    -20.579735     2A    -20.510038     3A    -15.575929
       4A    -11.341666     5A    -11.299697     6A    -11.264283
       7A    -11.227581     8A    -11.221722     9A    -11.209899
      10A     -1.387617    11A     -1.363226    12A     -1.231674
      13A     -1.056838    14A     -1.026551    15A     -0.937755
      16A     -0.893274    17A     -0.813592    18A     -0.780884
      19A     -0.710780    20A     -0.688738    21A     -0.644615
      22A     -0.640400    23A     -0.614617    24A     -0.596687
      25A     -0.580034    26A     -0.562205    27A     -0.551084
      28A     -0.542868    29A     -0.525137    30A     -0.522075
      31A     -0.517443    32A     -0.491761    33A     -0.480702
      34A     -0.458786    35A     -0.411454    36A     -0.384435

  @DF-RHF Final Energy:  -439.13855654875658

   => Energetics <=

    Nuclear Repulsion Energy =            486.0065586472348969
    One-Electron Energy =               -1562.9986766397657902
    Two-Electron Energy =                 637.8535614437743106
    Total Energy =                       -439.1385565487565827
  Basis Set: (AUG-CC-PVTZ AUX)
    Blend: AUG-CC-PVTZ-RI
    Molecular point group: c1

    Geometry (in Angstrom), charge = 0, multiplicity = 1:

       Center              X                  Y                   Z               Mass
    ------------   -----------------  -----------------  -----------------  -----------------
         O           -1.714016712931    -1.401221063117    -0.781524460566    15.994914619570
         O           -0.399012712931     1.735434936883     0.266637539434    15.994914619570
         N            0.503031287069    -0.354637063117     0.005306539434    14.003074004430
         C            1.870126287069     0.051697936883     0.307873539434    12.000000000000
         C           -1.879289712931    -0.031931063117    -0.390172460566    12.000000000000
         C            2.526521287069     0.702922936883    -0.906322460566    12.000000000000
         C            2.645247287069    -1.158087063117     0.810872539434    12.000000000000
         C           -0.495715012931     0.544774136883    -0.015550160566    12.000000000000
         C           -2.830237712931     0.114459936883     0.788152539434    12.000000000000
         H            1.794492287069     0.798778936883     1.104854539434     1.007825032230
         H            0.305691287069    -1.294648063117    -0.319786460566     1.007825032230
         H           -2.241571712931     0.564862936883    -1.239250460566     1.007825032230
         H            2.587681287069    -0.011517063117    -1.733539460566     1.007825032230
         H            1.937919287069     1.565877936883    -1.225084460566     1.007825032230
         H            3.539229287069     1.041168936883    -0.663999460566     1.007825032230
         H            2.708043287069    -1.926187063117     0.031804539434     1.007825032230
         H            2.163439287069    -1.593063063117     1.690703539434     1.007825032230
         H            3.665534287069    -0.871279063117     1.079926539434     1.007825032230
         H           -2.470539712931    -0.492141063117     1.623565539434     1.007825032230
         H           -3.838811712931    -0.217816063117     0.519213539434     1.007825032230
         H           -2.874882712931     1.160525936883     1.097152539434     1.007825032230
         H           -2.598912712931    -1.766515063117    -0.950481460566     1.007825032230

  Basis Set: AUG-CC-PVTZ
    Blend: AUG-CC-PVTZ
  Basis Set: (AUG-CC-PVTZ AUX)
    Blend: AUG-CC-PVTZ-JKFIT
	 Reference Energy          =    -439.1385565487565827 [Eh]
	 Singles Energy            =      -0.0000000000000000 [Eh]
	 Same-Spin Energy          =      -0.4452120980523712 [Eh]
	 Opposite-Spin Energy      =      -1.4628995144648580 [Eh]
	 Correlation Energy        =      -1.9081116125172293 [Eh]
	 Total Energy              =    -441.0466681612738284 [Eh]

	 ================> DF-SCS-MP2 Energies <==================
	-----------------------------------------------------------
	 SCS Same-Spin Scale       =       0.3333333333333333 [-]
	 SCS Opposite-Spin Scale   =       1.2000000000000000 [-]
	 SCS Same-Spin Energy      =      -0.1484040326841237 [Eh]
	 SCS Opposite-Spin Energy  =      -1.7554794173578296 [Eh]
	 SCS Correlation Energy    =      -1.9038834500419535 [Eh]
	 SCS Total Energy          =    -441.0424399987985566 [Eh]
	-----------------------------------------------------------

  Dipole Moment: [D]
     X:    -0.5771      Y:    -2.8447      Z:    -0.4504     Total:     2.9374

*** Psi4 exiting successfully. Buy a developer a beer!
