                               Psi4 1.3.2 release

  ==> Input File <==

--------------------------------------------------------------------------
#psi4
#
memory 32 gb

molecule  {
0 1
  O       -2.8968130    -0.3474360    -0.2563530
  O       -0.5825960    -1.5131530     0.0834280
  N        0.6646380     0.3451110    -0.3514860
  C        1.9639901    -0.2849087    -0.1359288
  C       -1.7875910     0.5207530    -0.3412920
  C        2.3087340    -0.3110910     1.3526080
  C        3.0072020     0.3769410    -0.9846900
  C       -0.5207469    -0.2846937    -0.1872998
  C       -1.8991130     1.5929580     0.7362800
  H        1.8182130    -1.3395260    -0.4626630
  H        0.6508110     1.3528600    -0.4628320
  H       -1.7688680     0.9937940    -1.3356380
  H        2.4085440     0.7136460     1.7243230
  H        1.5276200    -0.8195050     1.9221530
  H        3.2560570    -0.8319740     1.5215790
  H        3.1304270     1.4235350    -0.6835410
  H        2.7315590     0.3479870    -2.0412990
  H        3.9738610    -0.1182480    -0.8633910
  H       -1.8420940     1.1254490     1.7220580
  H       -2.8670940     2.0889060     0.6442650
  H       -1.1140830     2.3514110     0.6543310
  H       -2.4990480    -1.2315890    -0.0938460
units angstrom
no_reorient  #important for SAPT in psi4, default
symmetry c1  #important for SAPT in psi4, default
}

set PROPERTIES_ORIGIN ["COM"]
properties('MP2/aug-cc-pvtz', properties = ['dipole'])
--------------------------------------------------------------------------

    Molecular point group: c1
  Charge       = 0
  Multiplicity = 1
  Basis Set: AUG-CC-PVTZ
    Blend: AUG-CC-PVTZ
  Basis Set: (AUG-CC-PVTZ AUX)
    Blend: AUG-CC-PVTZ-JKFIT

    Orbital Energies [Eh]
    ---------------------

    Doubly Occupied:

       1A    -20.548590     2A    -20.529631     3A    -15.597420
       4A    -11.360232     5A    -11.298533     6A    -11.278591
       7A    -11.232421     8A    -11.232137     9A    -11.222453
      10A     -1.389851    11A     -1.342904    12A     -1.246242
      13A     -1.076063    14A     -1.026933    15A     -0.951437
      16A     -0.899666    17A     -0.822181    18A     -0.793126
      19A     -0.738112    20A     -0.677812    21A     -0.649583
      22A     -0.631052    23A     -0.629218    24A     -0.594322
      25A     -0.582599    26A     -0.568800    27A     -0.555125
      28A     -0.548854    29A     -0.539494    30A     -0.528196
      31A     -0.510749    32A     -0.505473    33A     -0.485738
      34A     -0.445652    35A     -0.436081    36A     -0.399871

  @DF-RHF Final Energy:  -439.13402021467402

   => Energetics <=

    Nuclear Repulsion Energy =            485.2214928036036099
    One-Electron Energy =               -1560.9607388798456213
    Two-Electron Energy =                 636.6052258615681012
    Total Energy =                       -439.1340202146740239
  Basis Set: (AUG-CC-PVTZ AUX)
    Blend: AUG-CC-PVTZ-RI
    Molecular point group: c1

    Geometry (in Angstrom), charge = 0, multiplicity = 1:

       Center              X                  Y                   Z               Mass
    ------------   -----------------  -----------------  -----------------  -----------------
         O           -2.896838432990    -0.351221785225    -0.255219420542    15.994914619570
         O           -0.582621432990    -1.516938785225     0.084561579458    15.994914619570
         N            0.664612567010     0.341325214775    -0.350352420542    14.003074004430
         C            1.963964667010    -0.288694485225    -0.134795220542    12.000000000000
         C           -1.787616432990     0.516967214775    -0.340158420542    12.000000000000
         C            2.308708567010    -0.314876785225     1.353741579458    12.000000000000
         C            3.007176567010     0.373155214775    -0.983556420542    12.000000000000
         C           -0.520772332990    -0.288479485225    -0.186166220542    12.000000000000
         C           -1.899138432990     1.589172214775     0.737413579458    12.000000000000
         H            1.818187567010    -1.343311785225    -0.461529420542     1.007825032230
         H            0.650785567010     1.349074214775    -0.461698420542     1.007825032230
         H           -1.768893432990     0.990008214775    -1.334504420542     1.007825032230
         H            2.408518567010     0.709860214775     1.725456579458     1.007825032230
         H            1.527594567010    -0.823290785225     1.923286579458     1.007825032230
         H            3.256031567010    -0.835759785225     1.522712579458     1.007825032230
         H            3.130401567010     1.419749214775    -0.682407420542     1.007825032230
         H            2.731533567010     0.344201214775    -2.040165420542     1.007825032230
         H            3.973835567010    -0.122033785225    -0.862257420542     1.007825032230
         H           -1.842119432990     1.121663214775     1.723191579458     1.007825032230
         H           -2.867119432990     2.085120214775     0.645398579458     1.007825032230
         H           -1.114108432990     2.347625214775     0.655464579458     1.007825032230
         H           -2.499073432990    -1.235374785225    -0.092712420542     1.007825032230

  Basis Set: AUG-CC-PVTZ
    Blend: AUG-CC-PVTZ
  Basis Set: (AUG-CC-PVTZ AUX)
    Blend: AUG-CC-PVTZ-JKFIT
	 Reference Energy          =    -439.1340202146740239 [Eh]
	 Singles Energy            =      -0.0000000000000000 [Eh]
	 Same-Spin Energy          =      -0.4467273602658355 [Eh]
	 Opposite-Spin Energy      =      -1.4648814157433914 [Eh]
	 Correlation Energy        =      -1.9116087760092269 [Eh]
	 Total Energy              =    -441.0456289906832694 [Eh]

	 ================> DF-SCS-MP2 Energies <==================
	-----------------------------------------------------------
	 SCS Same-Spin Scale       =       0.3333333333333333 [-]
	 SCS Opposite-Spin Scale   =       1.2000000000000000 [-]
	 SCS Same-Spin Energy      =      -0.1489091200886118 [Eh]
	 SCS Opposite-Spin Energy  =      -1.7578576988920696 [Eh]
	 SCS Correlation Energy    =      -1.9067668189806815 [Eh]
	 SCS Total Energy          =    -441.0407870336546807 [Eh]
	-----------------------------------------------------------

  Dipole Moment: [D]
     X:     3.5752      Y:     3.0268      Z:    -0.2522     Total:     4.6912

*** Psi4 exiting successfully. Buy a developer a beer!
