                               Psi4 1.3.2 release

  ==> Input File <==

--------------------------------------------------------------------------
#psi4
#
memory 32 gb

molecule  {
0 1
  O       -2.8968130    -0.3474360    -0.2563530
  O       -0.5825960    -1.5131530     0.0834280
  N        0.6646380     0.3451110    -0.3514860
  C        1.9521820    -0.3066060    -0.1296730
  C       -1.7875910     0.5207530    -0.3412920
  C        2.3087340    -0.3110910     1.3526080
  C        3.0072020     0.3769410    -0.9846900
  C       -0.5151366    -0.4018707    -0.1598263
  C       -1.8991130     1.5929580     0.7362800
  H        1.8182130    -1.3395260    -0.4626630
  H        0.6508110     1.3528600    -0.4628320
  H       -1.7688680     0.9937940    -1.3356380
  H        2.4085440     0.7136460     1.7243230
  H        1.5276200    -0.8195050     1.9221530
  H        3.2560570    -0.8319740     1.5215790
  H        3.1304270     1.4235350    -0.6835410
  H        2.7315590     0.3479870    -2.0412990
  H        3.9738610    -0.1182480    -0.8633910
  H       -1.8420940     1.1254490     1.7220580
  H       -2.8670940     2.0889060     0.6442650
  H       -1.1140830     2.3514110     0.6543310
  H       -2.4990480    -1.2315890    -0.0938460
units angstrom
no_reorient  #important for SAPT in psi4, default
symmetry c1  #important for SAPT in psi4, default
}

set PROPERTIES_ORIGIN ["COM"]
properties('MP2/aug-cc-pvtz', properties = ['dipole'])
--------------------------------------------------------------------------

    Molecular point group: c1
  Charge       = 0
  Multiplicity = 1
  Basis Set: AUG-CC-PVTZ
    Blend: AUG-CC-PVTZ
  Basis Set: (AUG-CC-PVTZ AUX)
    Blend: AUG-CC-PVTZ-JKFIT

    Orbital Energies [Eh]
    ---------------------

    Doubly Occupied:

       1A    -20.553304     2A    -20.547783     3A    -15.579905
       4A    -11.355289     5A    -11.293628     6A    -11.270220
       7A    -11.227630     8A    -11.227456     9A    -11.218954
      10A     -1.462171    11A     -1.354015    12A     -1.233258
      13A     -1.059292    14A     -1.015573    15A     -0.945870
      16A     -0.882508    17A     -0.813398    18A     -0.786791
      19A     -0.739284    20A     -0.691355    21A     -0.656834
      22A     -0.637982    23A     -0.626112    24A     -0.607173
      25A     -0.580701    26A     -0.565499    27A     -0.556618
      28A     -0.547840    29A     -0.543292    30A     -0.533450
      31A     -0.527058    32A     -0.504817    33A     -0.490646
      34A     -0.444317    35A     -0.424542    36A     -0.396556

  @DF-RHF Final Energy:  -439.12702006525467

   => Energetics <=

    Nuclear Repulsion Energy =            485.6671720107412966
    One-Electron Energy =               -1561.7861433736952677
    Two-Electron Energy =                 636.9919512976993019
    Total Energy =                       -439.1270200652546691
  Basis Set: (AUG-CC-PVTZ AUX)
    Blend: AUG-CC-PVTZ-RI
    Molecular point group: c1

    Geometry (in Angstrom), charge = 0, multiplicity = 1:

       Center              X                  Y                   Z               Mass
    ------------   -----------------  -----------------  -----------------  -----------------
         O           -2.896271105398    -0.338509657985    -0.258306897155    15.994914619570
         O           -0.582054105398    -1.504226657985     0.081474102845    15.994914619570
         N            0.665179894602     0.354037342015    -0.353439897155    14.003074004430
         C            1.952723894602    -0.297679657985    -0.131626897155    12.000000000000
         C           -1.787049105398     0.529679342015    -0.343245897155    12.000000000000
         C            2.309275894602    -0.302164657985     1.350654102845    12.000000000000
         C            3.007743894602     0.385867342015    -0.986643897155    12.000000000000
         C           -0.514594705398    -0.392944357985    -0.161780197155    12.000000000000
         C           -1.898571105398     1.601884342015     0.734326102845    12.000000000000
         H            1.818754894602    -1.330599657985    -0.464616897155     1.007825032230
         H            0.651352894602     1.361786342015    -0.464785897155     1.007825032230
         H           -1.768326105398     1.002720342015    -1.337591897155     1.007825032230
         H            2.409085894602     0.722572342015     1.722369102845     1.007825032230
         H            1.528161894602    -0.810578657985     1.920199102845     1.007825032230
         H            3.256598894602    -0.823047657985     1.519625102845     1.007825032230
         H            3.130968894602     1.432461342015    -0.685494897155     1.007825032230
         H            2.732100894602     0.356913342015    -2.043252897155     1.007825032230
         H            3.974402894602    -0.109321657985    -0.865344897155     1.007825032230
         H           -1.841552105398     1.134375342015     1.720104102845     1.007825032230
         H           -2.866552105398     2.097832342015     0.642311102845     1.007825032230
         H           -1.113541105398     2.360337342015     0.652377102845     1.007825032230
         H           -2.498506105398    -1.222662657985    -0.095799897155     1.007825032230

  Basis Set: AUG-CC-PVTZ
    Blend: AUG-CC-PVTZ
  Basis Set: (AUG-CC-PVTZ AUX)
    Blend: AUG-CC-PVTZ-JKFIT
	 Reference Energy          =    -439.1270200652546691 [Eh]
	 Singles Energy            =      -0.0000000000000000 [Eh]
	 Same-Spin Energy          =      -0.4440150570259198 [Eh]
	 Opposite-Spin Energy      =      -1.4599929764765729 [Eh]
	 Correlation Energy        =      -1.9040080335024927 [Eh]
	 Total Energy              =    -441.0310280987571900 [Eh]

	 ================> DF-SCS-MP2 Energies <==================
	-----------------------------------------------------------
	 SCS Same-Spin Scale       =       0.3333333333333333 [-]
	 SCS Opposite-Spin Scale   =       1.2000000000000000 [-]
	 SCS Same-Spin Energy      =      -0.1480050190086399 [Eh]
	 SCS Opposite-Spin Energy  =      -1.7519915717718875 [Eh]
	 SCS Correlation Energy    =      -1.8999965907805274 [Eh]
	 SCS Total Energy          =    -441.0270166560351868 [Eh]
	-----------------------------------------------------------

  Dipole Moment: [D]
     X:     3.1977      Y:     2.3053      Z:    -0.1221     Total:     3.9440

*** Psi4 exiting successfully. Buy a developer a beer!
