                               Psi4 1.3.2 release

  ==> Input File <==

--------------------------------------------------------------------------
#psi4
#
memory 32 gb

molecule  {
0 1
  O       -2.8968130    -0.3474360    -0.2563530
  O       -0.5825960    -1.5131530     0.0834280
  N        0.6646380     0.3451110    -0.3514860
  C        1.9521820    -0.3066060    -0.1296730
  C       -1.7875910     0.5207530    -0.3412920
  C        2.3087340    -0.3110910     1.3526080
  C        3.0072020     0.3769410    -0.9846900
  C       -0.5310287    -0.3467511    -0.2455340
  C       -1.9683014     1.6156221     0.7036136
  H        1.8182130    -1.3395260    -0.4626630
  H        0.6508110     1.3528600    -0.4628320
  H       -1.7688680     0.9937940    -1.3356380
  H        2.4085440     0.7136460     1.7243230
  H        1.5276200    -0.8195050     1.9221530
  H        3.2560570    -0.8319740     1.5215790
  H        3.1304270     1.4235350    -0.6835410
  H        2.7315590     0.3479870    -2.0412990
  H        3.9738610    -0.1182480    -0.8633910
  H       -1.8420940     1.1254490     1.7220580
  H       -2.8670940     2.0889060     0.6442650
  H       -1.1140830     2.3514110     0.6543310
  H       -2.4990480    -1.2315890    -0.0938460
units angstrom
no_reorient  #important for SAPT in psi4, default
symmetry c1  #important for SAPT in psi4, default
}

set PROPERTIES_ORIGIN ["COM"]
properties('MP2/aug-cc-pvtz', properties = ['dipole'])
--------------------------------------------------------------------------

    Molecular point group: c1
  Charge       = 0
  Multiplicity = 1
  Basis Set: AUG-CC-PVTZ
    Blend: AUG-CC-PVTZ
  Basis Set: (AUG-CC-PVTZ AUX)
    Blend: AUG-CC-PVTZ-JKFIT

    Orbital Energies [Eh]
    ---------------------

    Doubly Occupied:

       1A    -20.547665     2A    -20.541763     3A    -15.589775
       4A    -11.362220     5A    -11.297602     6A    -11.274444
       7A    -11.232867     8A    -11.229908     9A    -11.220117
      10A     -1.413315    11A     -1.350483    12A     -1.239342
      13A     -1.066908    14A     -1.021496    15A     -0.947467
      16A     -0.898882    17A     -0.818388    18A     -0.789100
      19A     -0.736980    20A     -0.679596    21A     -0.650960
      22A     -0.637462    23A     -0.625702    24A     -0.599450
      25A     -0.588512    26A     -0.570301    27A     -0.553808
      28A     -0.552119    29A     -0.538087    30A     -0.520746
      31A     -0.512513    32A     -0.503562    33A     -0.490598
      34A     -0.445629    35A     -0.437240    36A     -0.397774

  @DF-RHF Final Energy:  -439.12683487858635

   => Energetics <=

    Nuclear Repulsion Energy =            484.5969097539553445
    One-Electron Energy =               -1559.6819266203206098
    Two-Electron Energy =                 635.9581819877789712
    Total Energy =                       -439.1268348785863509
  Basis Set: (AUG-CC-PVTZ AUX)
    Blend: AUG-CC-PVTZ-RI
    Molecular point group: c1

    Geometry (in Angstrom), charge = 0, multiplicity = 1:

       Center              X                  Y                   Z               Mass
    ------------   -----------------  -----------------  -----------------  -----------------
         O           -2.888483097526    -0.345629739178    -0.247471295311    15.994914619570
         O           -0.574266097526    -1.511346739178     0.092309704689    15.994914619570
         N            0.672967902474     0.346917260822    -0.342604295311    14.003074004430
         C            1.960511902474    -0.304799739178    -0.120791295311    12.000000000000
         C           -1.779261097526     0.522559260822    -0.332410295311    12.000000000000
         C            2.317063902474    -0.309284739178     1.361489704689    12.000000000000
         C            3.015531902474     0.378747260822    -0.975808295311    12.000000000000
         C           -0.522698797526    -0.344944839178    -0.236652295311    12.000000000000
         C           -1.959971497526     1.617428360822     0.712495304689    12.000000000000
         H            1.826542902474    -1.337719739178    -0.453781295311     1.007825032230
         H            0.659140902474     1.354666260822    -0.453950295311     1.007825032230
         H           -1.760538097526     0.995600260822    -1.326756295311     1.007825032230
         H            2.416873902474     0.715452260822     1.733204704689     1.007825032230
         H            1.535949902474    -0.817698739178     1.931034704689     1.007825032230
         H            3.264386902474    -0.830167739178     1.530460704689     1.007825032230
         H            3.138756902474     1.425341260822    -0.674659295311     1.007825032230
         H            2.739888902474     0.349793260822    -2.032417295311     1.007825032230
         H            3.982190902474    -0.116441739178    -0.854509295311     1.007825032230
         H           -1.833764097526     1.127255260822     1.730939704689     1.007825032230
         H           -2.858764097526     2.090712260822     0.653146704689     1.007825032230
         H           -1.105753097526     2.353217260822     0.663212704689     1.007825032230
         H           -2.490718097526    -1.229782739178    -0.084964295311     1.007825032230

  Basis Set: AUG-CC-PVTZ
    Blend: AUG-CC-PVTZ
  Basis Set: (AUG-CC-PVTZ AUX)
    Blend: AUG-CC-PVTZ-JKFIT
	 Reference Energy          =    -439.1268348785863509 [Eh]
	 Singles Energy            =      -0.0000000000000000 [Eh]
	 Same-Spin Energy          =      -0.4456770677216965 [Eh]
	 Opposite-Spin Energy      =      -1.4634460954310495 [Eh]
	 Correlation Energy        =      -1.9091231631527461 [Eh]
	 Total Energy              =    -441.0359580417390930 [Eh]

	 ================> DF-SCS-MP2 Energies <==================
	-----------------------------------------------------------
	 SCS Same-Spin Scale       =       0.3333333333333333 [-]
	 SCS Opposite-Spin Scale   =       1.2000000000000000 [-]
	 SCS Same-Spin Energy      =      -0.1485590225738988 [Eh]
	 SCS Opposite-Spin Energy  =      -1.7561353145172593 [Eh]
	 SCS Correlation Energy    =      -1.9046943370911582 [Eh]
	 SCS Total Energy          =    -441.0315292156774944 [Eh]
	-----------------------------------------------------------

  Dipole Moment: [D]
     X:     3.3443      Y:     2.7049      Z:    -0.2385     Total:     4.3079

*** Psi4 exiting successfully. Buy a developer a beer!
