                               Psi4 1.3.2 release

  ==> Input File <==

--------------------------------------------------------------------------
#psi4
#
memory 32 gb

molecule  {
0 1
  O       -2.8968130    -0.3474360    -0.2563530
  O       -0.5825960    -1.5131530     0.0834280
  N        0.6646380     0.3451110    -0.3514860
  C        1.9521820    -0.3066060    -0.1296730
  C       -1.7436008     0.4625399    -0.3297066
  C        2.3087340    -0.3110910     1.3526080
  C        3.0072020     0.3769410    -0.9846900
  C       -0.5092170    -0.3043550    -0.1811720
  C       -1.8991130     1.5929580     0.7362800
  H        1.8182130    -1.3395260    -0.4626630
  H        0.6508110     1.3528600    -0.4628320
  H       -1.7688680     0.9937940    -1.3356380
  H        2.4085440     0.7136460     1.7243230
  H        1.5276200    -0.8195050     1.9221530
  H        3.2560570    -0.8319740     1.5215790
  H        3.1304270     1.4235350    -0.6835410
  H        2.7315590     0.3479870    -2.0412990
  H        3.9738610    -0.1182480    -0.8633910
  H       -1.8420940     1.1254490     1.7220580
  H       -2.8670940     2.0889060     0.6442650
  H       -1.1140830     2.3514110     0.6543310
  H       -2.4526128    -1.2094333    -0.0951115
units angstrom
no_reorient  #important for SAPT in psi4, default
symmetry c1  #important for SAPT in psi4, default
}

set PROPERTIES_ORIGIN ["COM"]
properties('MP2/aug-cc-pvtz', properties = ['dipole'])
--------------------------------------------------------------------------

    Molecular point group: c1
  Charge       = 0
  Multiplicity = 1
  Basis Set: AUG-CC-PVTZ
    Blend: AUG-CC-PVTZ
  Basis Set: (AUG-CC-PVTZ AUX)
    Blend: AUG-CC-PVTZ-JKFIT

    Orbital Energies [Eh]
    ---------------------

    Doubly Occupied:

       1A    -20.550410     2A    -20.534341     3A    -15.597005
       4A    -11.358771     5A    -11.297526     6A    -11.278403
       7A    -11.233255     8A    -11.233016     9A    -11.222938
      10A     -1.404000    11A     -1.348959    12A     -1.250259
      13A     -1.075210    14A     -1.019575    15A     -0.950587
      16A     -0.906054    17A     -0.821971    18A     -0.794967
      19A     -0.742557    20A     -0.678621    21A     -0.646931
      22A     -0.633109    23A     -0.629631    24A     -0.597632
      25A     -0.581892    26A     -0.561166    27A     -0.556113
      28A     -0.551071    29A     -0.540153    30A     -0.527897
      31A     -0.520520    32A     -0.503709    33A     -0.493002
      34A     -0.444425    35A     -0.436269    36A     -0.402300

  @DF-RHF Final Energy:  -439.12996366351854

   => Energetics <=

    Nuclear Repulsion Energy =            486.3789412555070157
    One-Electron Energy =               -1563.1693196343908312
    Two-Electron Energy =                 637.6604147153652775
    Total Energy =                       -439.1299636635185379
  Basis Set: (AUG-CC-PVTZ AUX)
    Blend: AUG-CC-PVTZ-RI
    Molecular point group: c1

    Geometry (in Angstrom), charge = 0, multiplicity = 1:

       Center              X                  Y                   Z               Mass
    ------------   -----------------  -----------------  -----------------  -----------------
         O           -2.901196678349    -0.342277625248    -0.257403740376    15.994914619570
         O           -0.586979678349    -1.507994625248     0.082377259624    15.994914619570
         N            0.660254321651     0.350269374752    -0.352536740376    14.003074004430
         C            1.947798321651    -0.301447625248    -0.130723740376    12.000000000000
         C           -1.747984478349     0.467698274752    -0.330757340376    12.000000000000
         C            2.304350321651    -0.305932625248     1.351557259624    12.000000000000
         C            3.002818321651     0.382099374752    -0.985740740376    12.000000000000
         C           -0.513600678349    -0.299196625248    -0.182222740376    12.000000000000
         C           -1.903496678349     1.598116374752     0.735229259624    12.000000000000
         H            1.813829321651    -1.334367625248    -0.463713740376     1.007825032230
         H            0.646427321651     1.358018374752    -0.463882740376     1.007825032230
         H           -1.773251678349     0.998952374752    -1.336688740376     1.007825032230
         H            2.404160321651     0.718804374752     1.723272259624     1.007825032230
         H            1.523236321651    -0.814346625248     1.921102259624     1.007825032230
         H            3.251673321651    -0.826815625248     1.520528259624     1.007825032230
         H            3.126043321651     1.428693374752    -0.684591740376     1.007825032230
         H            2.727175321651     0.353145374752    -2.042349740376     1.007825032230
         H            3.969477321651    -0.113089625248    -0.864441740376     1.007825032230
         H           -1.846477678349     1.130607374752     1.721007259624     1.007825032230
         H           -2.871477678349     2.094064374752     0.643214259624     1.007825032230
         H           -1.118466678349     2.356569374752     0.653280259624     1.007825032230
         H           -2.456996478349    -1.204274925248    -0.096162240376     1.007825032230

  Basis Set: AUG-CC-PVTZ
    Blend: AUG-CC-PVTZ
  Basis Set: (AUG-CC-PVTZ AUX)
    Blend: AUG-CC-PVTZ-JKFIT
	 Reference Energy          =    -439.1299636635185379 [Eh]
	 Singles Energy            =      -0.0000000000000000 [Eh]
	 Same-Spin Energy          =      -0.4467441206912289 [Eh]
	 Opposite-Spin Energy      =      -1.4648163176776448 [Eh]
	 Correlation Energy        =      -1.9115604383688736 [Eh]
	 Total Energy              =    -441.0415241018874326 [Eh]

	 ================> DF-SCS-MP2 Energies <==================
	-----------------------------------------------------------
	 SCS Same-Spin Scale       =       0.3333333333333333 [-]
	 SCS Opposite-Spin Scale   =       1.2000000000000000 [-]
	 SCS Same-Spin Energy      =      -0.1489147068970763 [Eh]
	 SCS Opposite-Spin Energy  =      -1.7577795812131736 [Eh]
	 SCS Correlation Energy    =      -1.9066942881102498 [Eh]
	 SCS Total Energy          =    -441.0366579516287970 [Eh]
	-----------------------------------------------------------

  Dipole Moment: [D]
     X:     3.6318      Y:     2.9176      Z:    -0.2237     Total:     4.6640

*** Psi4 exiting successfully. Buy a developer a beer!
