                               Psi4 1.3.2 release

  ==> Input File <==

--------------------------------------------------------------------------
#psi4
#
memory 32 gb

molecule  {
0 1
  O       -2.8968130    -0.3474360    -0.2563530
  O       -0.5825960    -1.5131530     0.0834280
  N        0.6587387     0.3551065    -0.3536204
  C        1.9521820    -0.3066060    -0.1296730
  C       -1.7802124     0.5315742    -0.3438823
  C        2.3087340    -0.3110910     1.3526080
  C        3.0072020     0.3769410    -0.9846900
  C       -0.5092170    -0.3043550    -0.1811720
  C       -1.8991130     1.5929580     0.7362800
  H        1.8182130    -1.3395260    -0.4626630
  H        0.6508110     1.3528600    -0.4628320
  H       -1.7688680     0.9937940    -1.3356380
  H        2.4085440     0.7136460     1.7243230
  H        1.5276200    -0.8195050     1.9221530
  H        3.2560570    -0.8319740     1.5215790
  H        3.1304270     1.4235350    -0.6835410
  H        2.7315590     0.3479870    -2.0412990
  H        3.9738610    -0.1182480    -0.8633910
  H       -1.8420940     1.1254490     1.7220580
  H       -2.8670940     2.0889060     0.6442650
  H       -1.1140830     2.3514110     0.6543310
  H       -2.4990480    -1.2315890    -0.0938460
units angstrom
no_reorient  #important for SAPT in psi4, default
symmetry c1  #important for SAPT in psi4, default
}

set PROPERTIES_ORIGIN ["COM"]
properties('MP2/aug-cc-pvtz', properties = ['dipole'])
--------------------------------------------------------------------------

    Molecular point group: c1
  Charge       = 0
  Multiplicity = 1
  Basis Set: AUG-CC-PVTZ
    Blend: AUG-CC-PVTZ
  Basis Set: (AUG-CC-PVTZ AUX)
    Blend: AUG-CC-PVTZ-JKFIT

    Orbital Energies [Eh]
    ---------------------

    Doubly Occupied:

       1A    -20.546011     2A    -20.533180     3A    -15.595166
       4A    -11.358711     5A    -11.296468     6A    -11.278118
       7A    -11.232492     8A    -11.230805     9A    -11.222701
      10A     -1.395916    11A     -1.341127    12A     -1.247764
      13A     -1.072939    14A     -1.025005    15A     -0.950037
      16A     -0.895002    17A     -0.821616    18A     -0.797424
      19A     -0.734230    20A     -0.678473    21A     -0.649127
      22A     -0.632697    23A     -0.628258    24A     -0.597845
      25A     -0.580375    26A     -0.567288    27A     -0.555240
      28A     -0.547890    29A     -0.538171    30A     -0.530051
      31A     -0.511423    32A     -0.502798    33A     -0.491760
      34A     -0.445986    35A     -0.434468    36A     -0.402535

  @DF-RHF Final Energy:  -439.13747376718021

   => Energetics <=

    Nuclear Repulsion Energy =            485.1246172608990719
    One-Electron Energy =               -1560.7859878745639435
    Two-Electron Energy =                 636.5238968464848313
    Total Energy =                       -439.1374737671801540
  Basis Set: (AUG-CC-PVTZ AUX)
    Blend: AUG-CC-PVTZ-RI
    Molecular point group: c1

    Geometry (in Angstrom), charge = 0, multiplicity = 1:

       Center              X                  Y                   Z               Mass
    ------------   -----------------  -----------------  -----------------  -----------------
         O           -2.896858239030    -0.349494170020    -0.255887879958    15.994914619570
         O           -0.582641239030    -1.515211170020     0.083893120042    15.994914619570
         N            0.658693460970     0.353048329980    -0.353155279958    14.003074004430
         C            1.952136760970    -0.308664170020    -0.129207879958    12.000000000000
         C           -1.780257639030     0.529516029980    -0.343417179958    12.000000000000
         C            2.308688760970    -0.313149170020     1.353073120042    12.000000000000
         C            3.007156760970     0.374882829980    -0.984224879958    12.000000000000
         C           -0.509262239030    -0.306413170020    -0.180706879958    12.000000000000
         C           -1.899158239030     1.590899829980     0.736745120042    12.000000000000
         H            1.818167760970    -1.341584170020    -0.462197879958     1.007825032230
         H            0.650765760970     1.350801829980    -0.462366879958     1.007825032230
         H           -1.768913239030     0.991735829980    -1.335172879958     1.007825032230
         H            2.408498760970     0.711587829980     1.724788120042     1.007825032230
         H            1.527574760970    -0.821563170020     1.922618120042     1.007825032230
         H            3.256011760970    -0.834032170020     1.522044120042     1.007825032230
         H            3.130381760970     1.421476829980    -0.683075879958     1.007825032230
         H            2.731513760970     0.345928829980    -2.040833879958     1.007825032230
         H            3.973815760970    -0.120306170020    -0.862925879958     1.007825032230
         H           -1.842139239030     1.123390829980     1.722523120042     1.007825032230
         H           -2.867139239030     2.086847829980     0.644730120042     1.007825032230
         H           -1.114128239030     2.349352829980     0.654796120042     1.007825032230
         H           -2.499093239030    -1.233647170020    -0.093380879958     1.007825032230

  Basis Set: AUG-CC-PVTZ
    Blend: AUG-CC-PVTZ
  Basis Set: (AUG-CC-PVTZ AUX)
    Blend: AUG-CC-PVTZ-JKFIT
	 Reference Energy          =    -439.1374737671802109 [Eh]
	 Singles Energy            =      -0.0000000000000000 [Eh]
	 Same-Spin Energy          =      -0.4459484361310591 [Eh]
	 Opposite-Spin Energy      =      -1.4637693179944447 [Eh]
	 Correlation Energy        =      -1.9097177541255037 [Eh]
	 Total Energy              =    -441.0471915213057059 [Eh]

	 ================> DF-SCS-MP2 Energies <==================
	-----------------------------------------------------------
	 SCS Same-Spin Scale       =       0.3333333333333333 [-]
	 SCS Opposite-Spin Scale   =       1.2000000000000000 [-]
	 SCS Same-Spin Energy      =      -0.1486494787103530 [Eh]
	 SCS Opposite-Spin Energy  =      -1.7565231815933335 [Eh]
	 SCS Correlation Energy    =      -1.9051726603036865 [Eh]
	 SCS Total Energy          =    -441.0426464274838736 [Eh]
	-----------------------------------------------------------

  Dipole Moment: [D]
     X:     3.6307      Y:     2.9329      Z:    -0.2185     Total:     4.6724

*** Psi4 exiting successfully. Buy a developer a beer!
