                               Psi4 1.3.2 release

  ==> Input File <==

--------------------------------------------------------------------------
#psi4
#
memory 32 gb

molecule  {
0 1
  O       -2.8968130    -0.3474360    -0.2563530
  O       -0.5825960    -1.5131530     0.0834280
  N        0.6646380     0.3451110    -0.3514860
  C        1.9521820    -0.3066060    -0.1296730
  C       -1.7875910     0.5207530    -0.3412920
  C        2.3087340    -0.3110910     1.3526080
  C        3.0072020     0.3769410    -0.9846900
  C       -0.4943923    -0.2891679    -0.2301755
  C       -1.8991130     1.5929580     0.7362800
  H        1.8182130    -1.3395260    -0.4626630
  H        0.6508110     1.3528600    -0.4628320
  H       -1.7348632     0.9771093    -1.3421921
  H        2.4085440     0.7136460     1.7243230
  H        1.5276200    -0.8195050     1.9221530
  H        3.2560570    -0.8319740     1.5215790
  H        3.1304270     1.4235350    -0.6835410
  H        2.7315590     0.3479870    -2.0412990
  H        3.9738610    -0.1182480    -0.8633910
  H       -1.8420940     1.1254490     1.7220580
  H       -2.8670940     2.0889060     0.6442650
  H       -1.1140830     2.3514110     0.6543310
  H       -2.4990480    -1.2315890    -0.0938460
units angstrom
no_reorient  #important for SAPT in psi4, default
symmetry c1  #important for SAPT in psi4, default
}

set PROPERTIES_ORIGIN ["COM"]
properties('MP2/aug-cc-pvtz', properties = ['dipole'])
--------------------------------------------------------------------------

    Molecular point group: c1
  Charge       = 0
  Multiplicity = 1
  Basis Set: AUG-CC-PVTZ
    Blend: AUG-CC-PVTZ
  Basis Set: (AUG-CC-PVTZ AUX)
    Blend: AUG-CC-PVTZ-JKFIT

    Orbital Energies [Eh]
    ---------------------

    Doubly Occupied:

       1A    -20.547416     2A    -20.525235     3A    -15.601034
       4A    -11.357138     5A    -11.297942     6A    -11.279853
       7A    -11.234119     8A    -11.231554     9A    -11.223578
      10A     -1.385844    11A     -1.340981    12A     -1.252327
      13A     -1.076059    14A     -1.024739    15A     -0.951415
      16A     -0.897849    17A     -0.825553    18A     -0.800747
      19A     -0.732972    20A     -0.678143    21A     -0.650827
      22A     -0.630878    23A     -0.626992    24A     -0.595937
      25A     -0.580428    26A     -0.567011    27A     -0.556703
      28A     -0.550075    29A     -0.539760    30A     -0.529068
      31A     -0.507650    32A     -0.501512    33A     -0.491722
      34A     -0.445168    35A     -0.429972    36A     -0.402022

  @DF-RHF Final Energy:  -439.13346631221060

   => Energetics <=

    Nuclear Repulsion Energy =            485.1973605501636939
    One-Electron Energy =               -1560.9212125487802041
    Two-Electron Energy =                 636.5903856864058525
    Total Energy =                       -439.1334663122106576
  Basis Set: (AUG-CC-PVTZ AUX)
    Blend: AUG-CC-PVTZ-RI
    Molecular point group: c1

    Geometry (in Angstrom), charge = 0, multiplicity = 1:

       Center              X                  Y                   Z               Mass
    ------------   -----------------  -----------------  -----------------  -----------------
         O           -2.898431395957    -0.348697858336    -0.251816960879    15.994914619570
         O           -0.584214395957    -1.514414858336     0.087964039121    15.994914619570
         N            0.663019604043     0.343849141664    -0.346949960879    14.003074004430
         C            1.950563604043    -0.307867858336    -0.125136960879    12.000000000000
         C           -1.789209395957     0.519491141664    -0.336755960879    12.000000000000
         C            2.307115604043    -0.312352858336     1.357144039121    12.000000000000
         C            3.005583604043     0.375679141664    -0.980153960879    12.000000000000
         C           -0.496010695957    -0.290429758336    -0.225639460879    12.000000000000
         C           -1.900731395957     1.591696141664     0.740816039121    12.000000000000
         H            1.816594604043    -1.340787858336    -0.458126960879     1.007825032230
         H            0.649192604043     1.351598141664    -0.458295960879     1.007825032230
         H           -1.736481595957     0.975847441664    -1.337656060879     1.007825032230
         H            2.406925604043     0.712384141664     1.728859039121     1.007825032230
         H            1.526001604043    -0.820766858336     1.926689039121     1.007825032230
         H            3.254438604043    -0.833235858336     1.526115039121     1.007825032230
         H            3.128808604043     1.422273141664    -0.679004960879     1.007825032230
         H            2.729940604043     0.346725141664    -2.036762960879     1.007825032230
         H            3.972242604043    -0.119509858336    -0.858854960879     1.007825032230
         H           -1.843712395957     1.124187141664     1.726594039121     1.007825032230
         H           -2.868712395957     2.087644141664     0.648801039121     1.007825032230
         H           -1.115701395957     2.350149141664     0.658867039121     1.007825032230
         H           -2.500666395957    -1.232850858336    -0.089309960879     1.007825032230

  Basis Set: AUG-CC-PVTZ
    Blend: AUG-CC-PVTZ
  Basis Set: (AUG-CC-PVTZ AUX)
    Blend: AUG-CC-PVTZ-JKFIT
	 Reference Energy          =    -439.1334663122106008 [Eh]
	 Singles Energy            =      -0.0000000000000000 [Eh]
	 Same-Spin Energy          =      -0.4465361849817215 [Eh]
	 Opposite-Spin Energy      =      -1.4645780674784290 [Eh]
	 Correlation Energy        =      -1.9111142524601505 [Eh]
	 Total Energy              =    -441.0445805646707527 [Eh]

	 ================> DF-SCS-MP2 Energies <==================
	-----------------------------------------------------------
	 SCS Same-Spin Scale       =       0.3333333333333333 [-]
	 SCS Opposite-Spin Scale   =       1.2000000000000000 [-]
	 SCS Same-Spin Energy      =      -0.1488453949939072 [Eh]
	 SCS Opposite-Spin Energy  =      -1.7574936809741148 [Eh]
	 SCS Correlation Energy    =      -1.9063390759680221 [Eh]
	 SCS Total Energy          =    -441.0398053881786495 [Eh]
	-----------------------------------------------------------

  Dipole Moment: [D]
     X:     3.7583      Y:     3.0700      Z:    -0.2655     Total:     4.8601

*** Psi4 exiting successfully. Buy a developer a beer!
