                               Psi4 1.3.2 release

  ==> Input File <==

--------------------------------------------------------------------------
#psi4
#
memory 32 gb

molecule  {
0 1
  O       -2.8968130    -0.3474360    -0.2563530
  O       -0.5825960    -1.5131530     0.0834280
  N        0.6646380     0.3451110    -0.3514860
  C        1.9521820    -0.3066060    -0.1296730
  C       -1.7875910     0.5207530    -0.3412920
  C        2.3087340    -0.3110910     1.3526080
  C        3.0072020     0.3769410    -0.9846900
  C       -0.5172146    -0.3115727    -0.1567397
  C       -1.8991130     1.5929580     0.7362800
  H        1.8182130    -1.3395260    -0.4626630
  H        0.6508110     1.3528600    -0.4628320
  H       -1.7858815     1.0019215    -1.3319061
  H        2.4085440     0.7136460     1.7243230
  H        1.5276200    -0.8195050     1.9221530
  H        3.2560570    -0.8319740     1.5215790
  H        3.1304270     1.4235350    -0.6835410
  H        2.7315590     0.3479870    -2.0412990
  H        3.9738610    -0.1182480    -0.8633910
  H       -1.8420940     1.1254490     1.7220580
  H       -2.8670940     2.0889060     0.6442650
  H       -1.1140830     2.3514110     0.6543310
  H       -2.4990480    -1.2315890    -0.0938460
units angstrom
no_reorient  #important for SAPT in psi4, default
symmetry c1  #important for SAPT in psi4, default
}

set PROPERTIES_ORIGIN ["COM"]
properties('MP2/aug-cc-pvtz', properties = ['dipole'])
--------------------------------------------------------------------------

    Molecular point group: c1
  Charge       = 0
  Multiplicity = 1
  Basis Set: AUG-CC-PVTZ
    Blend: AUG-CC-PVTZ
  Basis Set: (AUG-CC-PVTZ AUX)
    Blend: AUG-CC-PVTZ-JKFIT

    Orbital Energies [Eh]
    ---------------------

    Doubly Occupied:

       1A    -20.548037     2A    -20.536160     3A    -15.593078
       4A    -11.359015     5A    -11.297185     6A    -11.275899
       7A    -11.231420     8A    -11.230415     9A    -11.221587
      10A     -1.403898    11A     -1.347955    12A     -1.244777
      13A     -1.070381    14A     -1.023398    15A     -0.949071
      16A     -0.893662    17A     -0.820832    18A     -0.792131
      19A     -0.738226    20A     -0.679453    21A     -0.649247
      22A     -0.634362    23A     -0.628254    24A     -0.597721
      25A     -0.581889    26A     -0.567784    27A     -0.554340
      28A     -0.547144    29A     -0.539291    30A     -0.531052
      31A     -0.514668    32A     -0.503227    33A     -0.491230
      34A     -0.444890    35A     -0.435845    36A     -0.400644

  @DF-RHF Final Energy:  -439.13792914006444

   => Energetics <=

    Nuclear Repulsion Energy =            485.3410613126551993
    One-Electron Energy =               -1561.2016445474528155
    Two-Electron Energy =                 636.7226540947331159
    Total Energy =                       -439.1379291400644433
  Basis Set: (AUG-CC-PVTZ AUX)
    Blend: AUG-CC-PVTZ-RI
    Molecular point group: c1

    Geometry (in Angstrom), charge = 0, multiplicity = 1:

       Center              X                  Y                   Z               Mass
    ------------   -----------------  -----------------  -----------------  -----------------
         O           -2.895950095822    -0.346837742127    -0.258618125026    15.994914619570
         O           -0.581733095822    -1.512554742127     0.081162874974    15.994914619570
         N            0.665500904178     0.345709257873    -0.353751125026    14.003074004430
         C            1.953044904178    -0.306007742127    -0.131938125026    12.000000000000
         C           -1.786728095822     0.521351257873    -0.343557125026    12.000000000000
         C            2.309596904178    -0.310492742127     1.350342874974    12.000000000000
         C            3.008064904178     0.377539257873    -0.986955125026    12.000000000000
         C           -0.516351695822    -0.310974442127    -0.159004825026    12.000000000000
         C           -1.898250095822     1.593556257873     0.734014874974    12.000000000000
         H            1.819075904178    -1.338927742127    -0.464928125026     1.007825032230
         H            0.651673904178     1.353458257873    -0.465097125026     1.007825032230
         H           -1.785018595822     1.002519757873    -1.334171225026     1.007825032230
         H            2.409406904178     0.714244257873     1.722057874974     1.007825032230
         H            1.528482904178    -0.818906742127     1.919887874974     1.007825032230
         H            3.256919904178    -0.831375742127     1.519313874974     1.007825032230
         H            3.131289904178     1.424133257873    -0.685806125026     1.007825032230
         H            2.732421904178     0.348585257873    -2.043564125026     1.007825032230
         H            3.974723904178    -0.117649742127    -0.865656125026     1.007825032230
         H           -1.841231095822     1.126047257873     1.719792874974     1.007825032230
         H           -2.866231095822     2.089504257873     0.641999874974     1.007825032230
         H           -1.113220095822     2.352009257873     0.652065874974     1.007825032230
         H           -2.498185095822    -1.230990742127    -0.096111125026     1.007825032230

  Basis Set: AUG-CC-PVTZ
    Blend: AUG-CC-PVTZ
  Basis Set: (AUG-CC-PVTZ AUX)
    Blend: AUG-CC-PVTZ-JKFIT
	 Reference Energy          =    -439.1379291400644433 [Eh]
	 Singles Energy            =      -0.0000000000000000 [Eh]
	 Same-Spin Energy          =      -0.4458420343371452 [Eh]
	 Opposite-Spin Energy      =      -1.4633473856339954 [Eh]
	 Correlation Energy        =      -1.9091894199711406 [Eh]
	 Total Energy              =    -441.0471185600355852 [Eh]

	 ================> DF-SCS-MP2 Energies <==================
	-----------------------------------------------------------
	 SCS Same-Spin Scale       =       0.3333333333333333 [-]
	 SCS Opposite-Spin Scale   =       1.2000000000000000 [-]
	 SCS Same-Spin Energy      =      -0.1486140114457151 [Eh]
	 SCS Opposite-Spin Energy  =      -1.7560168627607944 [Eh]
	 SCS Correlation Energy    =      -1.9046308742065094 [Eh]
	 SCS Total Energy          =    -441.0425600142709754 [Eh]
	-----------------------------------------------------------

  Dipole Moment: [D]
     X:     3.4826      Y:     2.8398      Z:    -0.2012     Total:     4.4981

*** Psi4 exiting successfully. Buy a developer a beer!
