                               Psi4 1.3.2 release

  ==> Input File <==

--------------------------------------------------------------------------
#psi4
#
memory 32 gb

molecule  {
0 1
  O       -2.8968130    -0.3474360    -0.2563530
  O       -0.5825960    -1.5131530     0.0834280
  N        0.6646380     0.3451110    -0.3514860
  C        2.0403678    -0.3512430    -0.1144807
  C       -1.7875910     0.5207530    -0.3412920
  C        2.3087340    -0.3110910     1.3526080
  C        3.0072020     0.3769410    -0.9846900
  C       -0.5092170    -0.3043550    -0.1811720
  C       -1.8991130     1.5929580     0.7362800
  H        1.8182130    -1.3395260    -0.4626630
  H        0.6508110     1.3528600    -0.4628320
  H       -1.7688680     0.9937940    -1.3356380
  H        2.4085440     0.7136460     1.7243230
  H        1.5276200    -0.8195050     1.9221530
  H        3.2560570    -0.8319740     1.5215790
  H        3.1304270     1.4235350    -0.6835410
  H        2.7315590     0.3479870    -2.0412990
  H        3.9738610    -0.1182480    -0.8633910
  H       -1.8420940     1.1254490     1.7220580
  H       -2.8670940     2.0889060     0.6442650
  H       -1.1140830     2.3514110     0.6543310
  H       -2.4990480    -1.2315890    -0.0938460
units angstrom
no_reorient  #important for SAPT in psi4, default
symmetry c1  #important for SAPT in psi4, default
}

set PROPERTIES_ORIGIN ["COM"]
properties('MP2/aug-cc-pvtz', properties = ['dipole'])
--------------------------------------------------------------------------

    Molecular point group: c1
  Charge       = 0
  Multiplicity = 1
  Basis Set: AUG-CC-PVTZ
    Blend: AUG-CC-PVTZ
  Basis Set: (AUG-CC-PVTZ AUX)
    Blend: AUG-CC-PVTZ-JKFIT

    Orbital Energies [Eh]
    ---------------------

    Doubly Occupied:

       1A    -20.544764     2A    -20.527208     3A    -15.587867
       4A    -11.352754     5A    -11.293604     6A    -11.283379
       7A    -11.234775     8A    -11.228019     9A    -11.225649
      10A     -1.391642    11A     -1.341644    12A     -1.227900
      13A     -1.080719    14A     -1.022741    15A     -0.958802
      16A     -0.887295    17A     -0.818976    18A     -0.784937
      19A     -0.733377    20A     -0.673616    21A     -0.645110
      22A     -0.636484    23A     -0.626831    24A     -0.595928
      25A     -0.581015    26A     -0.565415    27A     -0.560466
      28A     -0.539771    29A     -0.537386    30A     -0.527569
      31A     -0.516445    32A     -0.504691    33A     -0.498769
      34A     -0.441943    35A     -0.427650    36A     -0.400194

  @DF-RHF Final Energy:  -439.12940818987863

   => Energetics <=

    Nuclear Repulsion Energy =            484.1339221715933263
    One-Electron Energy =               -1558.9159885349281467
    Two-Electron Energy =                 635.6526581734560750
    Total Energy =                       -439.1294081898786317
  Basis Set: (AUG-CC-PVTZ AUX)
    Blend: AUG-CC-PVTZ-RI
    Molecular point group: c1

    Geometry (in Angstrom), charge = 0, multiplicity = 1:

       Center              X                  Y                   Z               Mass
    ------------   -----------------  -----------------  -----------------  -----------------
         O           -2.904885224920    -0.343350011907    -0.257743633802    15.994914619570
         O           -0.590668224920    -1.509067011907     0.082037366198    15.994914619570
         N            0.656565775080     0.349196988093    -0.352876633802    14.003074004430
         C            2.032295575080    -0.347157011907    -0.115871333802    12.000000000000
         C           -1.795663224920     0.524838988093    -0.342682633802    12.000000000000
         C            2.300661775080    -0.307005011907     1.351217366198    12.000000000000
         C            2.999129775080     0.381026988093    -0.986080633802    12.000000000000
         C           -0.517289224920    -0.300269011907    -0.182562633802    12.000000000000
         C           -1.907185224920     1.597043988093     0.734889366198    12.000000000000
         H            1.810140775080    -1.335440011907    -0.464053633802     1.007825032230
         H            0.642738775080     1.356945988093    -0.464222633802     1.007825032230
         H           -1.776940224920     0.997879988093    -1.337028633802     1.007825032230
         H            2.400471775080     0.717731988093     1.722932366198     1.007825032230
         H            1.519547775080    -0.815419011907     1.920762366198     1.007825032230
         H            3.247984775080    -0.827888011907     1.520188366198     1.007825032230
         H            3.122354775080     1.427620988093    -0.684931633802     1.007825032230
         H            2.723486775080     0.352072988093    -2.042689633802     1.007825032230
         H            3.965788775080    -0.114162011907    -0.864781633802     1.007825032230
         H           -1.850166224920     1.129534988093     1.720667366198     1.007825032230
         H           -2.875166224920     2.092991988093     0.642874366198     1.007825032230
         H           -1.122155224920     2.355496988093     0.652940366198     1.007825032230
         H           -2.507120224920    -1.227503011907    -0.095236633802     1.007825032230

  Basis Set: AUG-CC-PVTZ
    Blend: AUG-CC-PVTZ
  Basis Set: (AUG-CC-PVTZ AUX)
    Blend: AUG-CC-PVTZ-JKFIT
	 Reference Energy          =    -439.1294081898786317 [Eh]
	 Singles Energy            =      -0.0000000000000000 [Eh]
	 Same-Spin Energy          =      -0.4461914003598897 [Eh]
	 Opposite-Spin Energy      =      -1.4642964369566005 [Eh]
	 Correlation Energy        =      -1.9104878373164902 [Eh]
	 Total Energy              =    -441.0398960271951410 [Eh]

	 ================> DF-SCS-MP2 Energies <==================
	-----------------------------------------------------------
	 SCS Same-Spin Scale       =       0.3333333333333333 [-]
	 SCS Opposite-Spin Scale   =       1.2000000000000000 [-]
	 SCS Same-Spin Energy      =      -0.1487304667866299 [Eh]
	 SCS Opposite-Spin Energy  =      -1.7571557243479206 [Eh]
	 SCS Correlation Energy    =      -1.9058861911345504 [Eh]
	 SCS Total Energy          =    -441.0352943810131592 [Eh]
	-----------------------------------------------------------

  Dipole Moment: [D]
     X:     3.9488      Y:     2.8765      Z:    -0.1727     Total:     4.8885

*** Psi4 exiting successfully. Buy a developer a beer!
