                               Psi4 1.3.2 release

  ==> Input File <==

--------------------------------------------------------------------------
#psi4
#
memory 32 gb

molecule  {
0 1
  O       -2.8968130    -0.3474360    -0.2563530
  O       -0.5825960    -1.5131530     0.0834280
  N        0.6646380     0.3451110    -0.3514860
  C        1.9521820    -0.3066060    -0.1296730
  C       -1.7875910     0.5207530    -0.3412920
  C        2.3087340    -0.3110910     1.3526080
  C        3.0072020     0.3769410    -0.9846900
  C       -0.5092170    -0.3043550    -0.1811720
  C       -1.8917963     1.5226131     0.6655830
  H        1.8182130    -1.3395260    -0.4626630
  H        0.6508110     1.3528600    -0.4628320
  H       -1.7688680     0.9937940    -1.3356380
  H        2.4085440     0.7136460     1.7243230
  H        1.5276200    -0.8195050     1.9221530
  H        3.2560570    -0.8319740     1.5215790
  H        3.1304270     1.4235350    -0.6835410
  H        2.7315590     0.3479870    -2.0412990
  H        3.9738610    -0.1182480    -0.8633910
  H       -1.8420940     1.1254490     1.7220580
  H       -2.8670940     2.0889060     0.6442650
  H       -1.1140830     2.3514110     0.6543310
  H       -2.4990480    -1.2315890    -0.0938460
units angstrom
no_reorient  #important for SAPT in psi4, default
symmetry c1  #important for SAPT in psi4, default
}

set PROPERTIES_ORIGIN ["COM"]
properties('MP2/aug-cc-pvtz', properties = ['dipole'])
--------------------------------------------------------------------------

    Molecular point group: c1
  Charge       = 0
  Multiplicity = 1
  Basis Set: AUG-CC-PVTZ
    Blend: AUG-CC-PVTZ
  Basis Set: (AUG-CC-PVTZ AUX)
    Blend: AUG-CC-PVTZ-JKFIT

    Orbital Energies [Eh]
    ---------------------

    Doubly Occupied:

       1A    -20.547673     2A    -20.533163     3A    -15.596001
       4A    -11.358937     5A    -11.292876     6A    -11.277363
       7A    -11.235626     8A    -11.232409     9A    -11.222283
      10A     -1.398538    11A     -1.347610    12A     -1.248534
      13A     -1.077953    14A     -1.036696    15A     -0.949915
      16A     -0.889472    17A     -0.821752    18A     -0.794909
      19A     -0.739898    20A     -0.681586    21A     -0.653692
      22A     -0.637643    23A     -0.629112    24A     -0.597157
      25A     -0.593586    26A     -0.564267    27A     -0.555087
      28A     -0.540205    29A     -0.535241    30A     -0.517596
      31A     -0.508334    32A     -0.502967    33A     -0.491289
      34A     -0.453540    35A     -0.431761    36A     -0.401910

  @DF-RHF Final Energy:  -439.12598869362603

   => Energetics <=

    Nuclear Repulsion Energy =            487.0747490007733518
    One-Electron Energy =               -1564.6083120800096822
    Two-Electron Energy =                 638.4075743856102463
    Total Energy =                       -439.1259886936260273
  Basis Set: (AUG-CC-PVTZ AUX)
    Blend: AUG-CC-PVTZ-RI
    Molecular point group: c1

    Geometry (in Angstrom), charge = 0, multiplicity = 1:

       Center              X                  Y                   Z               Mass
    ------------   -----------------  -----------------  -----------------  -----------------
         O           -2.897482715680    -0.340996789635    -0.249881590861    15.994914619570
         O           -0.583265715680    -1.506713789635     0.089899409139    15.994914619570
         N            0.663968284320     0.351550210365    -0.345014590861    14.003074004430
         C            1.951512284320    -0.300166789635    -0.123201590861    12.000000000000
         C           -1.788260715680     0.527192210365    -0.334820590861    12.000000000000
         C            2.308064284320    -0.304651789635     1.359079409139    12.000000000000
         C            3.006532284320     0.383380210365    -0.978218590861    12.000000000000
         C           -0.509886715680    -0.297915789635    -0.174700590861    12.000000000000
         C           -1.892466015680     1.529052310365     0.672054409139    12.000000000000
         H            1.817543284320    -1.333086789635    -0.456191590861     1.007825032230
         H            0.650141284320     1.359299210365    -0.456360590861     1.007825032230
         H           -1.769537715680     1.000233210365    -1.329166590861     1.007825032230
         H            2.407874284320     0.720085210365     1.730794409139     1.007825032230
         H            1.526950284320    -0.813065789635     1.928624409139     1.007825032230
         H            3.255387284320    -0.825534789635     1.528050409139     1.007825032230
         H            3.129757284320     1.429974210365    -0.677069590861     1.007825032230
         H            2.730889284320     0.354426210365    -2.034827590861     1.007825032230
         H            3.973191284320    -0.111808789635    -0.856919590861     1.007825032230
         H           -1.842763715680     1.131888210365     1.728529409139     1.007825032230
         H           -2.867763715680     2.095345210365     0.650736409139     1.007825032230
         H           -1.114752715680     2.357850210365     0.660802409139     1.007825032230
         H           -2.499717715680    -1.225149789635    -0.087374590861     1.007825032230

  Basis Set: AUG-CC-PVTZ
    Blend: AUG-CC-PVTZ
  Basis Set: (AUG-CC-PVTZ AUX)
    Blend: AUG-CC-PVTZ-JKFIT
	 Reference Energy          =    -439.1259886936260273 [Eh]
	 Singles Energy            =      -0.0000000000000000 [Eh]
	 Same-Spin Energy          =      -0.4470826763204745 [Eh]
	 Opposite-Spin Energy      =      -1.4648870654602033 [Eh]
	 Correlation Energy        =      -1.9119697417806778 [Eh]
	 Total Energy              =    -441.0379584354067219 [Eh]

	 ================> DF-SCS-MP2 Energies <==================
	-----------------------------------------------------------
	 SCS Same-Spin Scale       =       0.3333333333333333 [-]
	 SCS Opposite-Spin Scale   =       1.2000000000000000 [-]
	 SCS Same-Spin Energy      =      -0.1490275587734915 [Eh]
	 SCS Opposite-Spin Energy  =      -1.7578644785522439 [Eh]
	 SCS Correlation Energy    =      -1.9068920373257354 [Eh]
	 SCS Total Energy          =    -441.0328807309517742 [Eh]
	-----------------------------------------------------------

  Dipole Moment: [D]
     X:     3.5994      Y:     2.9365      Z:    -0.2015     Total:     4.6497

*** Psi4 exiting successfully. Buy a developer a beer!
