                               Psi4 1.3.2 release

  ==> Input File <==

--------------------------------------------------------------------------
#psi4
#
memory 32 gb

molecule  {
0 1
  O       -2.8968130    -0.3474360    -0.2563530
  O       -0.5825960    -1.5131530     0.0834280
  N        0.6646380     0.3451110    -0.3514860
  C        1.9521820    -0.3066060    -0.1296730
  C       -1.7875910     0.5207530    -0.3412920
  C        2.3087340    -0.3110910     1.3526080
  C        3.0072020     0.3769410    -0.9846900
  C       -0.5131673    -0.3079954    -0.1689493
  C       -1.8991130     1.5929580     0.7362800
  H        1.8182130    -1.3395260    -0.4626630
  H        0.6508110     1.3528600    -0.4628320
  H       -1.7773744     0.9978759    -1.3338098
  H        2.4085440     0.7136460     1.7243230
  H        1.5276200    -0.8195050     1.9221530
  H        3.2560570    -0.8319740     1.5215790
  H        3.1304270     1.4235350    -0.6835410
  H        2.7315590     0.3479870    -2.0412990
  H        3.9738610    -0.1182480    -0.8633910
  H       -1.8420940     1.1254490     1.7220580
  H       -2.8670940     2.0889060     0.6442650
  H       -1.1140830     2.3514110     0.6543310
  H       -2.4990480    -1.2315890    -0.0938460
units angstrom
no_reorient  #important for SAPT in psi4, default
symmetry c1  #important for SAPT in psi4, default
}

set PROPERTIES_ORIGIN ["COM"]
properties('MP2/aug-cc-pvtz', properties = ['dipole'])
--------------------------------------------------------------------------

    Molecular point group: c1
  Charge       = 0
  Multiplicity = 1
  Basis Set: AUG-CC-PVTZ
    Blend: AUG-CC-PVTZ
  Basis Set: (AUG-CC-PVTZ AUX)
    Blend: AUG-CC-PVTZ-JKFIT

    Orbital Energies [Eh]
    ---------------------

    Doubly Occupied:

       1A    -20.547918     2A    -20.534318     3A    -15.594400
       4A    -11.358638     5A    -11.297250     6A    -11.276565
       7A    -11.231873     8A    -11.230588     9A    -11.221919
      10A     -1.400491    11A     -1.346888    12A     -1.246445
      13A     -1.071312    14A     -1.023633    15A     -0.949467
      16A     -0.894319    17A     -0.821597    18A     -0.793540
      19A     -0.737343    20A     -0.679152    21A     -0.649316
      22A     -0.633408    23A     -0.628556    24A     -0.597395
      25A     -0.581777    26A     -0.567661    27A     -0.554723
      28A     -0.547639    29A     -0.539302    30A     -0.530568
      31A     -0.513567    32A     -0.503018    33A     -0.491382
      34A     -0.444888    35A     -0.435186    36A     -0.401080

  @DF-RHF Final Energy:  -439.13806791663154

   => Energetics <=

    Nuclear Repulsion Energy =            485.3247475217326041
    One-Electron Energy =               -1561.1713840831196194
    Two-Electron Energy =                 636.7085686447553599
    Total Energy =                       -439.1380679166315986
  Basis Set: (AUG-CC-PVTZ AUX)
    Blend: AUG-CC-PVTZ-RI
    Molecular point group: c1

    Geometry (in Angstrom), charge = 0, multiplicity = 1:

       Center              X                  Y                   Z               Mass
    ------------   -----------------  -----------------  -----------------  -----------------
         O           -2.896385973851    -0.347134095558    -0.257485860508    15.994914619570
         O           -0.582168973851    -1.512851095558     0.082295139492    15.994914619570
         N            0.665065026149     0.345412904442    -0.352618860508    14.003074004430
         C            1.952609026149    -0.306304095558    -0.130805860508    12.000000000000
         C           -1.787163973851     0.521054904442    -0.342424860508    12.000000000000
         C            2.309161026149    -0.310789095558     1.351475139492    12.000000000000
         C            3.007629026149     0.377242904442    -0.985822860508    12.000000000000
         C           -0.512740273851    -0.307693495558    -0.170082160508    12.000000000000
         C           -1.898685973851     1.593259904442     0.735147139492    12.000000000000
         H            1.818640026149    -1.339224095558    -0.463795860508     1.007825032230
         H            0.651238026149     1.353161904442    -0.463964860508     1.007825032230
         H           -1.776947373851     0.998177804442    -1.334942660508     1.007825032230
         H            2.408971026149     0.713947904442     1.723190139492     1.007825032230
         H            1.528047026149    -0.819203095558     1.921020139492     1.007825032230
         H            3.256484026149    -0.831672095558     1.520446139492     1.007825032230
         H            3.130854026149     1.423836904442    -0.684673860508     1.007825032230
         H            2.731986026149     0.348288904442    -2.042431860508     1.007825032230
         H            3.974288026149    -0.117946095558    -0.864523860508     1.007825032230
         H           -1.841666973851     1.125750904442     1.720925139492     1.007825032230
         H           -2.866666973851     2.089207904442     0.643132139492     1.007825032230
         H           -1.113655973851     2.351712904442     0.653198139492     1.007825032230
         H           -2.498620973851    -1.231287095558    -0.094978860508     1.007825032230

  Basis Set: AUG-CC-PVTZ
    Blend: AUG-CC-PVTZ
  Basis Set: (AUG-CC-PVTZ AUX)
    Blend: AUG-CC-PVTZ-JKFIT
	 Reference Energy          =    -439.1380679166315417 [Eh]
	 Singles Energy            =      -0.0000000000000000 [Eh]
	 Same-Spin Energy          =      -0.4459287247861445 [Eh]
	 Opposite-Spin Energy      =      -1.4634804715654823 [Eh]
	 Correlation Energy        =      -1.9094091963516269 [Eh]
	 Total Energy              =    -441.0474771129831879 [Eh]

	 ================> DF-SCS-MP2 Energies <==================
	-----------------------------------------------------------
	 SCS Same-Spin Scale       =       0.3333333333333333 [-]
	 SCS Opposite-Spin Scale   =       1.2000000000000000 [-]
	 SCS Same-Spin Energy      =      -0.1486429082620482 [Eh]
	 SCS Opposite-Spin Energy  =      -1.7561765658785788 [Eh]
	 SCS Correlation Energy    =      -1.9048194741406270 [Eh]
	 SCS Total Energy          =    -441.0428873907721936 [Eh]
	-----------------------------------------------------------

  Dipole Moment: [D]
     X:     3.5300      Y:     2.8782      Z:    -0.2134     Total:     4.5597

*** Psi4 exiting successfully. Buy a developer a beer!
