                               Psi4 1.3.2 release

  ==> Input File <==

--------------------------------------------------------------------------
#psi4
#
memory 32 gb

molecule  {
0 1
  O       -2.8968130    -0.3474360    -0.2563530
  O       -0.5933904    -1.5124466     0.0834405
  N        0.6646380     0.3451110    -0.3514860
  C        1.9521820    -0.3066060    -0.1296730
  C       -1.7948742     0.5098440    -0.3388019
  C        2.3087340    -0.3110910     1.3526080
  C        3.0072020     0.3769410    -0.9846900
  C       -0.5092170    -0.3043550    -0.1811720
  C       -1.8991130     1.5929580     0.7362800
  H        1.8182130    -1.3395260    -0.4626630
  H        0.6508110     1.3528600    -0.4628320
  H       -1.7688680     0.9937940    -1.3356380
  H        2.4085440     0.7136460     1.7243230
  H        1.5276200    -0.8195050     1.9221530
  H        3.2560570    -0.8319740     1.5215790
  H        3.1304270     1.4235350    -0.6835410
  H        2.7315590     0.3479870    -2.0412990
  H        3.9738610    -0.1182480    -0.8633910
  H       -1.8420940     1.1254490     1.7220580
  H       -2.8670940     2.0889060     0.6442650
  H       -1.1140830     2.3514110     0.6543310
  H       -2.4990480    -1.2315890    -0.0938460
units angstrom
no_reorient  #important for SAPT in psi4, default
symmetry c1  #important for SAPT in psi4, default
}

set PROPERTIES_ORIGIN ["COM"]
properties('MP2/aug-cc-pvtz', properties = ['dipole'])
--------------------------------------------------------------------------

    Molecular point group: c1
  Charge       = 0
  Multiplicity = 1
  Basis Set: AUG-CC-PVTZ
    Blend: AUG-CC-PVTZ
  Basis Set: (AUG-CC-PVTZ AUX)
    Blend: AUG-CC-PVTZ-JKFIT

    Orbital Energies [Eh]
    ---------------------

    Doubly Occupied:

       1A    -20.548477     2A    -20.532447     3A    -15.596216
       4A    -11.358051     5A    -11.297015     6A    -11.277617
       7A    -11.232536     8A    -11.230163     9A    -11.222463
      10A     -1.398689    11A     -1.349223    12A     -1.248463
      13A     -1.071839    14A     -1.022314    15A     -0.950086
      16A     -0.894226    17A     -0.822512    18A     -0.795090
      19A     -0.738205    20A     -0.679100    21A     -0.649553
      22A     -0.632622    23A     -0.629181    24A     -0.597309
      25A     -0.582733    26A     -0.567280    27A     -0.555391
      28A     -0.547926    29A     -0.540354    30A     -0.530138
      31A     -0.512500    32A     -0.503006    33A     -0.491888
      34A     -0.442909    35A     -0.433778    36A     -0.401689

  @DF-RHF Final Energy:  -439.13790115856619

   => Energetics <=

    Nuclear Repulsion Energy =            485.3730480335778452
    One-Electron Energy =               -1561.2559208789216427
    Two-Electron Energy =                 636.7449716867777170
    Total Energy =                       -439.1379011585661374
  Basis Set: (AUG-CC-PVTZ AUX)
    Blend: AUG-CC-PVTZ-RI
    Molecular point group: c1

    Geometry (in Angstrom), charge = 0, multiplicity = 1:

       Center              X                  Y                   Z               Mass
    ------------   -----------------  -----------------  -----------------  -----------------
         O           -2.894829256038    -0.346523557704    -0.256582438526    15.994914619570
         O           -0.591406656038    -1.511534157704     0.083211061474    15.994914619570
         N            0.666621743962     0.346023442296    -0.351715438526    14.003074004430
         C            1.954165743962    -0.305693557704    -0.129902438526    12.000000000000
         C           -1.792890456038     0.510756442296    -0.339031338526    12.000000000000
         C            2.310717743962    -0.310178557704     1.352378561474    12.000000000000
         C            3.009185743962     0.377853442296    -0.984919438526    12.000000000000
         C           -0.507233256038    -0.303442557704    -0.181401438526    12.000000000000
         C           -1.897129256038     1.593870442296     0.736050561474    12.000000000000
         H            1.820196743962    -1.338613557704    -0.462892438526     1.007825032230
         H            0.652794743962     1.353772442296    -0.463061438526     1.007825032230
         H           -1.766884256038     0.994706442296    -1.335867438526     1.007825032230
         H            2.410527743962     0.714558442296     1.724093561474     1.007825032230
         H            1.529603743962    -0.818592557704     1.921923561474     1.007825032230
         H            3.258040743962    -0.831061557704     1.521349561474     1.007825032230
         H            3.132410743962     1.424447442296    -0.683770438526     1.007825032230
         H            2.733542743962     0.348899442296    -2.041528438526     1.007825032230
         H            3.975844743962    -0.117335557704    -0.863620438526     1.007825032230
         H           -1.840110256038     1.126361442296     1.721828561474     1.007825032230
         H           -2.865110256038     2.089818442296     0.644035561474     1.007825032230
         H           -1.112099256038     2.352323442296     0.654101561474     1.007825032230
         H           -2.497064256038    -1.230676557704    -0.094075438526     1.007825032230

  Basis Set: AUG-CC-PVTZ
    Blend: AUG-CC-PVTZ
  Basis Set: (AUG-CC-PVTZ AUX)
    Blend: AUG-CC-PVTZ-JKFIT
	 Reference Energy          =    -439.1379011585661942 [Eh]
	 Singles Energy            =      -0.0000000000000000 [Eh]
	 Same-Spin Energy          =      -0.4460103469676494 [Eh]
	 Opposite-Spin Energy      =      -1.4634155807035265 [Eh]
	 Correlation Energy        =      -1.9094259276711760 [Eh]
	 Total Energy              =    -441.0473270862373738 [Eh]

	 ================> DF-SCS-MP2 Energies <==================
	-----------------------------------------------------------
	 SCS Same-Spin Scale       =       0.3333333333333333 [-]
	 SCS Opposite-Spin Scale   =       1.2000000000000000 [-]
	 SCS Same-Spin Energy      =      -0.1486701156558831 [Eh]
	 SCS Opposite-Spin Energy  =      -1.7560986968442318 [Eh]
	 SCS Correlation Energy    =      -1.9047688125001150 [Eh]
	 SCS Total Energy          =    -441.0426699710662888 [Eh]
	-----------------------------------------------------------

  Dipole Moment: [D]
     X:     3.5870      Y:     2.8792      Z:    -0.2242     Total:     4.6050

*** Psi4 exiting successfully. Buy a developer a beer!
