                               Psi4 1.4a3.dev225

  ==> Input File <==

--------------------------------------------------------------------------
#psi4
#
memory 32 gb

molecule  {
0 1
  O       -1.7446660    -1.3796590    -0.7880960
  O       -0.4296620     1.7569970     0.2600660
  N        0.4723820    -0.3330750    -0.0012650
  C        1.8394770     0.0732600     0.3013020
  C       -1.9099390    -0.0103690    -0.3967440
  C        2.4958720     0.7244850    -0.9128940
  C        2.6145980    -1.1365250     0.8043010
  C       -0.5442740     0.5588710    -0.0269710
  C       -2.8608870     0.1360220     0.7815810
  H        1.7638430     0.8203410     1.0982830
  H        0.2750420    -1.2730860    -0.3263580
  H       -2.2722210     0.5864250    -1.2458220
  H        2.5570320     0.0100450    -1.7401110
  H        1.9072700     1.5874400    -1.2316560
  H        3.5085800     1.0627310    -0.6705710
  H        2.6773940    -1.9046250     0.0252330
  H        2.1327900    -1.5715010     1.6841320
  H        3.6348850    -0.8497170     1.0733550
  H       -2.5011890    -0.4705790     1.6169940
  H       -3.8694610    -0.1962540     0.5126420
  H       -2.9055320     1.1820880     1.0905810
  H       -2.6477674    -1.7524684    -0.9605290
units angstrom
no_reorient  #important for SAPT in psi4, default
symmetry c1  #important for SAPT in psi4, default
}

set PROPERTIES_ORIGIN ["COM"]
properties('MP2/aug-cc-pvtz', properties = ['dipole'])
--------------------------------------------------------------------------

    Molecular point group: c1
  Charge       = 0
  Multiplicity = 1
  Basis Set: AUG-CC-PVTZ
    Blend: AUG-CC-PVTZ
  Basis Set: (AUG-CC-PVTZ AUX)
    Blend: AUG-CC-PVTZ-JKFIT

    Orbital Energies [Eh]
    ---------------------

    Doubly Occupied:

       1A    -20.582638     2A    -20.509284     3A    -15.575590
       4A    -11.342887     5A    -11.300801     6A    -11.263916
       7A    -11.228797     8A    -11.221302     9A    -11.209240
      10A     -1.384735    11A     -1.357564    12A     -1.227713
      13A     -1.057096    14A     -1.027841    15A     -0.937106
      16A     -0.896392    17A     -0.813453    18A     -0.777432
      19A     -0.709746    20A     -0.688965    21A     -0.644268
      22A     -0.639817    23A     -0.613986    24A     -0.594330
      25A     -0.578277    26A     -0.562595    27A     -0.551289
      28A     -0.542321    29A     -0.525431    30A     -0.520427
      31A     -0.517032    32A     -0.490908    33A     -0.480046
      34A     -0.458786    35A     -0.413524    36A     -0.382483

  @DF-RHF Final Energy:  -439.13633427367620

   => Energetics <=

    Nuclear Repulsion Energy =            485.7960998639251216
    One-Electron Energy =               -1562.6088305460643824
    Two-Electron Energy =                 637.6763964084631198
    Total Energy =                       -439.1363342736761979
  Basis Set: (AUG-CC-PVTZ AUX)
    Blend: AUG-CC-PVTZ-RI
    Molecular point group: c1

    Geometry (in Angstrom), charge = 0, multiplicity = 1:

       Center              X                  Y                   Z               Mass
    ------------   -----------------  -----------------  -----------------  -----------------
         O           -1.712237355071    -1.400479944971    -0.781053847846    15.994914619570
         O           -0.397233355071     1.736176055029     0.267108152154    15.994914619570
         N            0.504810644929    -0.353895944971     0.005777152154    14.003074004430
         C            1.871905644929     0.052439055029     0.308344152154    12.000000000000
         C           -1.877510355071    -0.031189944971    -0.389701847846    12.000000000000
         C            2.528300644929     0.703664055029    -0.905851847846    12.000000000000
         C            2.647026644929    -1.157345944971     0.811343152154    12.000000000000
         C           -0.511845355071     0.538050055029    -0.019928847846    12.000000000000
         C           -2.828458355071     0.115201055029     0.788623152154    12.000000000000
         H            1.796271644929     0.799520055029     1.105325152154     1.007825032230
         H            0.307470644929    -1.293906944971    -0.319315847846     1.007825032230
         H           -2.239792355071     0.565604055029    -1.238779847846     1.007825032230
         H            2.589460644929    -0.010775944971    -1.733068847846     1.007825032230
         H            1.939698644929     1.566619055029    -1.224613847846     1.007825032230
         H            3.541008644929     1.041910055029    -0.663528847846     1.007825032230
         H            2.709822644929    -1.925445944971     0.032275152154     1.007825032230
         H            2.165218644929    -1.592321944971     1.691174152154     1.007825032230
         H            3.667313644929    -0.870537944971     1.080397152154     1.007825032230
         H           -2.468760355071    -0.491399944971     1.624036152154     1.007825032230
         H           -3.837032355071    -0.217074944971     0.519684152154     1.007825032230
         H           -2.873103355071     1.161267055029     1.097623152154     1.007825032230
         H           -2.615338755071    -1.773289344971    -0.953486847846     1.007825032230

  Basis Set: AUG-CC-PVTZ
    Blend: AUG-CC-PVTZ
  Basis Set: (AUG-CC-PVTZ AUX)
    Blend: AUG-CC-PVTZ-JKFIT
	 Reference Energy          =    -439.1363342736761979 [Eh]
	 Singles Energy            =      -0.0000000000000000 [Eh]
	 Same-Spin Energy          =      -0.4457385708750008 [Eh]
	 Opposite-Spin Energy      =      -1.4640952276787509 [Eh]
	 Correlation Energy        =      -1.9098337985537517 [Eh]
	 Total Energy              =    -441.0461680722299320 [Eh]

	 ================> DF-SCS-MP2 Energies <==================
	-----------------------------------------------------------
	 SCS Same-Spin Scale       =       0.3333333333333333 [-]
	 SCS Opposite-Spin Scale   =       1.2000000000000000 [-]
	 SCS Same-Spin Energy      =      -0.1485795236250003 [Eh]
	 SCS Opposite-Spin Energy  =      -1.7569142732145011 [Eh]
	 SCS Correlation Energy    =      -1.9054937968395014 [Eh]
	 SCS Total Energy          =    -441.0418280705156917 [Eh]
	-----------------------------------------------------------

  Dipole Moment: [D]
     X:    -0.6823      Y:    -2.8845      Z:    -0.4678     Total:     3.0007

*** Psi4 exiting successfully. Buy a developer a beer!
