                               Psi4 1.3.2 release

  ==> Input File <==

--------------------------------------------------------------------------
#psi4
#
memory 32 gb

molecule  {
0 1
  O       -2.8968130    -0.3474360    -0.2563530
  O       -0.5825960    -1.5131530     0.0834280
  N        0.6646380     0.3451110    -0.3514860
  C        1.9521820    -0.3066060    -0.1296730
  C       -1.7875910     0.5207530    -0.3412920
  C        2.3087340    -0.3110910     1.3526080
  C        3.0072020     0.3769410    -0.9846900
  C       -0.5092170    -0.3043550    -0.1811720
  C       -1.8991130     1.5929580     0.7362800
  H        1.8182130    -1.3395260    -0.4626630
  H        0.6535383     1.1540882    -0.4408697
  H       -1.7688680     0.9937940    -1.3356380
  H        2.4085440     0.7136460     1.7243230
  H        1.5276200    -0.8195050     1.9221530
  H        3.2560570    -0.8319740     1.5215790
  H        3.1304270     1.4235350    -0.6835410
  H        2.7315590     0.3479870    -2.0412990
  H        3.9738610    -0.1182480    -0.8633910
  H       -1.8420940     1.1254490     1.7220580
  H       -2.8670940     2.0889060     0.6442650
  H       -1.1140830     2.3514110     0.6543310
  H       -2.4990480    -1.2315890    -0.0938460
units angstrom
no_reorient  #important for SAPT in psi4, default
symmetry c1  #important for SAPT in psi4, default
}

set PROPERTIES_ORIGIN ["COM"]
properties('MP2/aug-cc-pvtz', properties = ['dipole'])
--------------------------------------------------------------------------

    Molecular point group: c1
  Charge       = 0
  Multiplicity = 1
  Basis Set: AUG-CC-PVTZ
    Blend: AUG-CC-PVTZ
  Basis Set: (AUG-CC-PVTZ AUX)
    Blend: AUG-CC-PVTZ-JKFIT

    Orbital Energies [Eh]
    ---------------------

    Doubly Occupied:

       1A    -20.548560     2A    -20.533681     3A    -15.574447
       4A    -11.359284     5A    -11.298258     6A    -11.277186
       7A    -11.232627     8A    -11.231071     9A    -11.222752
      10A     -1.400033    11A     -1.347562    12A     -1.278237
      13A     -1.075945    14A     -1.028139    15A     -0.950872
      16A     -0.899482    17A     -0.850362    18A     -0.816171
      19A     -0.737811    20A     -0.681294    21A     -0.656492
      22A     -0.638176    23A     -0.629513    24A     -0.600564
      25A     -0.582325    26A     -0.568086    27A     -0.555439
      28A     -0.548938    29A     -0.540294    30A     -0.530732
      31A     -0.514986    32A     -0.503328    33A     -0.492187
      34A     -0.445634    35A     -0.435828    36A     -0.405265

  @DF-RHF Final Energy:  -439.09418527070596

   => Energetics <=

    Nuclear Repulsion Energy =            486.6816280113891935
    One-Electron Energy =               -1563.5685065548875627
    Two-Electron Energy =                 637.7926932727924623
    Total Energy =                       -439.0941852707059070
  Basis Set: (AUG-CC-PVTZ AUX)
    Blend: AUG-CC-PVTZ-RI
    Molecular point group: c1

    Geometry (in Angstrom), charge = 0, multiplicity = 1:

       Center              X                  Y                   Z               Mass
    ------------   -----------------  -----------------  -----------------  -----------------
         O           -2.896833934264    -0.345907834510    -0.256521818340    15.994914619570
         O           -0.582616934264    -1.511624834510     0.083259181660    15.994914619570
         N            0.664617065736     0.346639165490    -0.351654818340    14.003074004430
         C            1.952161065736    -0.305077834510    -0.129841818340    12.000000000000
         C           -1.787611934264     0.522281165490    -0.341460818340    12.000000000000
         C            2.308713065736    -0.309562834510     1.352439181660    12.000000000000
         C            3.007181065736     0.378469165490    -0.984858818340    12.000000000000
         C           -0.509237934264    -0.302826834510    -0.181340818340    12.000000000000
         C           -1.899133934264     1.594486165490     0.736111181660    12.000000000000
         H            1.818192065736    -1.337997834510    -0.462831818340     1.007825032230
         H            0.653517365736     1.155616365490    -0.441038518340     1.007825032230
         H           -1.768888934264     0.995322165490    -1.335806818340     1.007825032230
         H            2.408523065736     0.715174165490     1.724154181660     1.007825032230
         H            1.527599065736    -0.817976834510     1.921984181660     1.007825032230
         H            3.256036065736    -0.830445834510     1.521410181660     1.007825032230
         H            3.130406065736     1.425063165490    -0.683709818340     1.007825032230
         H            2.731538065736     0.349515165490    -2.041467818340     1.007825032230
         H            3.973840065736    -0.116719834510    -0.863559818340     1.007825032230
         H           -1.842114934264     1.126977165490     1.721889181660     1.007825032230
         H           -2.867114934264     2.090434165490     0.644096181660     1.007825032230
         H           -1.114103934264     2.352939165490     0.654162181660     1.007825032230
         H           -2.499068934264    -1.230060834510    -0.094014818340     1.007825032230

  Basis Set: AUG-CC-PVTZ
    Blend: AUG-CC-PVTZ
  Basis Set: (AUG-CC-PVTZ AUX)
    Blend: AUG-CC-PVTZ-JKFIT
	 Reference Energy          =    -439.0941852707059638 [Eh]
	 Singles Energy            =      -0.0000000000000000 [Eh]
	 Same-Spin Energy          =      -0.4445426376434812 [Eh]
	 Opposite-Spin Energy      =      -1.4607421843020889 [Eh]
	 Correlation Energy        =      -1.9052848219455700 [Eh]
	 Total Energy              =    -440.9994700926515065 [Eh]

	 ================> DF-SCS-MP2 Energies <==================
	-----------------------------------------------------------
	 SCS Same-Spin Scale       =       0.3333333333333333 [-]
	 SCS Opposite-Spin Scale   =       1.2000000000000000 [-]
	 SCS Same-Spin Energy      =      -0.1481808792144937 [Eh]
	 SCS Opposite-Spin Energy  =      -1.7528906211625066 [Eh]
	 SCS Correlation Energy    =      -1.9010715003770002 [Eh]
	 SCS Total Energy          =    -440.9952567710829499 [Eh]
	-----------------------------------------------------------

  Dipole Moment: [D]
     X:     3.5343      Y:     2.7832      Z:    -0.2053     Total:     4.5033

*** Psi4 exiting successfully. Buy a developer a beer!
