                               Psi4 1.3.2 release

  ==> Input File <==

--------------------------------------------------------------------------
#psi4
#
memory 32 gb

molecule  {
0 1
  O       -2.8968130    -0.3474360    -0.2563530
  O       -0.5825960    -1.5131530     0.0834280
  N        0.6646380     0.3451110    -0.3514860
  C        1.9636334    -0.2838702    -0.1308068
  C       -1.7875910     0.5207530    -0.3412920
  C        2.3087340    -0.3110910     1.3526080
  C        3.0072020     0.3769410    -0.9846900
  C       -0.5092170    -0.3043550    -0.1811720
  C       -1.8991130     1.5929580     0.7362800
  H        1.8182130    -1.3395260    -0.4626630
  H        0.6683889     1.3531696    -0.4608062
  H       -1.7688680     0.9937940    -1.3356380
  H        2.4085440     0.7136460     1.7243230
  H        1.5276200    -0.8195050     1.9221530
  H        3.2560570    -0.8319740     1.5215790
  H        3.1304270     1.4235350    -0.6835410
  H        2.7315590     0.3479870    -2.0412990
  H        3.9738610    -0.1182480    -0.8633910
  H       -1.8420940     1.1254490     1.7220580
  H       -2.8670940     2.0889060     0.6442650
  H       -1.1140830     2.3514110     0.6543310
  H       -2.4990480    -1.2315890    -0.0938460
units angstrom
no_reorient  #important for SAPT in psi4, default
symmetry c1  #important for SAPT in psi4, default
}

set PROPERTIES_ORIGIN ["COM"]
properties('MP2/aug-cc-pvtz', properties = ['dipole'])
--------------------------------------------------------------------------

    Molecular point group: c1
  Charge       = 0
  Multiplicity = 1
  Basis Set: AUG-CC-PVTZ
    Blend: AUG-CC-PVTZ
  Basis Set: (AUG-CC-PVTZ AUX)
    Blend: AUG-CC-PVTZ-JKFIT

    Orbital Energies [Eh]
    ---------------------

    Doubly Occupied:

       1A    -20.547819     2A    -20.532716     3A    -15.595792
       4A    -11.359071     5A    -11.297403     6A    -11.277655
       7A    -11.232253     8A    -11.230603     9A    -11.222397
      10A     -1.397210    11A     -1.345763    12A     -1.248251
      13A     -1.073989    14A     -1.024376    15A     -0.951783
      16A     -0.895404    17A     -0.820058    18A     -0.795402
      19A     -0.736608    20A     -0.677658    21A     -0.648590
      22A     -0.632276    23A     -0.631121    24A     -0.597399
      25A     -0.582358    26A     -0.567755    27A     -0.555205
      28A     -0.548276    29A     -0.539577    30A     -0.529784
      31A     -0.511917    32A     -0.506818    33A     -0.486016
      34A     -0.444874    35A     -0.434592    36A     -0.401427

  @DF-RHF Final Energy:  -439.13653872941279

   => Energetics <=

    Nuclear Repulsion Energy =            485.3243080689056228
    One-Electron Energy =               -1561.1612946151763026
    Two-Electron Energy =                 636.7004478168579453
    Total Energy =                       -439.1365387294127913
  Basis Set: (AUG-CC-PVTZ AUX)
    Blend: AUG-CC-PVTZ-RI
    Molecular point group: c1

    Geometry (in Angstrom), charge = 0, multiplicity = 1:

       Center              X                  Y                   Z               Mass
    ------------   -----------------  -----------------  -----------------  -----------------
         O           -2.897996328238    -0.349519491396    -0.256264766590    15.994914619570
         O           -0.583779328238    -1.515236491396     0.083516233410    15.994914619570
         N            0.663454671762     0.343027508604    -0.351397766590    14.003074004430
         C            1.962450071762    -0.285953691396    -0.130718566590    12.000000000000
         C           -1.788774328238     0.518669508604    -0.341203766590    12.000000000000
         C            2.307550671762    -0.313174491396     1.352696233410    12.000000000000
         C            3.006018671762     0.374857508604    -0.984601766590    12.000000000000
         C           -0.510400328238    -0.306438491396    -0.181083766590    12.000000000000
         C           -1.900296328238     1.590874508604     0.736368233410    12.000000000000
         H            1.817029671762    -1.341609491396    -0.462574766590     1.007825032230
         H            0.667205571762     1.351086108604    -0.460717966590     1.007825032230
         H           -1.770051328238     0.991710508604    -1.335549766590     1.007825032230
         H            2.407360671762     0.711562508604     1.724411233410     1.007825032230
         H            1.526436671762    -0.821588491396     1.922241233410     1.007825032230
         H            3.254873671762    -0.834057491396     1.521667233410     1.007825032230
         H            3.129243671762     1.421451508604    -0.683452766590     1.007825032230
         H            2.730375671762     0.345903508604    -2.041210766590     1.007825032230
         H            3.972677671762    -0.120331491396    -0.863302766590     1.007825032230
         H           -1.843277328238     1.123365508604     1.722146233410     1.007825032230
         H           -2.868277328238     2.086822508604     0.644353233410     1.007825032230
         H           -1.115266328238     2.349327508604     0.654419233410     1.007825032230
         H           -2.500231328238    -1.233672491396    -0.093757766590     1.007825032230

  Basis Set: AUG-CC-PVTZ
    Blend: AUG-CC-PVTZ
  Basis Set: (AUG-CC-PVTZ AUX)
    Blend: AUG-CC-PVTZ-JKFIT
	 Reference Energy          =    -439.1365387294127913 [Eh]
	 Singles Energy            =      -0.0000000000000000 [Eh]
	 Same-Spin Energy          =      -0.4462337428057675 [Eh]
	 Opposite-Spin Energy      =      -1.4639290665802822 [Eh]
	 Correlation Energy        =      -1.9101628093860497 [Eh]
	 Total Energy              =    -441.0467015387988567 [Eh]

	 ================> DF-SCS-MP2 Energies <==================
	-----------------------------------------------------------
	 SCS Same-Spin Scale       =       0.3333333333333333 [-]
	 SCS Opposite-Spin Scale   =       1.2000000000000000 [-]
	 SCS Same-Spin Energy      =      -0.1487445809352558 [Eh]
	 SCS Opposite-Spin Energy  =      -1.7567148798963386 [Eh]
	 SCS Correlation Energy    =      -1.9054594608315945 [Eh]
	 SCS Total Energy          =    -441.0419981902443851 [Eh]
	-----------------------------------------------------------

  Dipole Moment: [D]
     X:     3.5984      Y:     2.9233      Z:    -0.2302     Total:     4.6419

*** Psi4 exiting successfully. Buy a developer a beer!
