                               Psi4 1.3.2 release

  ==> Input File <==

--------------------------------------------------------------------------
#psi4
#
memory 32 gb

molecule  {
0 1
  O       -2.8968130    -0.3474360    -0.2563530
  O       -0.5825960    -1.5131530     0.0834280
  N        0.6646380     0.3451110    -0.3514860
  C        1.9521820    -0.3066060    -0.1296730
  C       -1.7875910     0.5207530    -0.3412920
  C        2.3087340    -0.3110910     1.3526080
  C        3.0072020     0.3769410    -0.9846900
  C       -0.5092170    -0.3043550    -0.1811720
  C       -1.8991130     1.5929580     0.7362800
  H        1.8182130    -1.3395260    -0.4626630
  H        0.6508110     1.3528600    -0.4628320
  H       -1.7688680     0.9937940    -1.3356380
  H        2.4085440     0.7136460     1.7243230
  H        1.5276200    -0.8195050     1.9221530
  H        3.2560570    -0.8319740     1.5215790
  H        3.1304270     1.4235350    -0.6835410
  H        2.7315590     0.3479870    -2.0412990
  H        3.9738610    -0.1182480    -0.8633910
  H       -1.8420940     1.1254490     1.7220580
  H       -2.8670940     2.0889060     0.6442650
  H       -1.1140830     2.3514110     0.6543310
  H       -2.5395111    -1.1416476    -0.1103772
units angstrom
no_reorient  #important for SAPT in psi4, default
symmetry c1  #important for SAPT in psi4, default
}

set PROPERTIES_ORIGIN ["COM"]
properties('MP2/aug-cc-pvtz', properties = ['dipole'])
--------------------------------------------------------------------------

    Molecular point group: c1
  Charge       = 0
  Multiplicity = 1
  Basis Set: AUG-CC-PVTZ
    Blend: AUG-CC-PVTZ
  Basis Set: (AUG-CC-PVTZ AUX)
    Blend: AUG-CC-PVTZ-JKFIT

    Orbital Energies [Eh]
    ---------------------

    Doubly Occupied:

       1A    -20.542972     2A    -20.530380     3A    -15.595142
       4A    -11.357869     5A    -11.299266     6A    -11.276866
       7A    -11.232070     8A    -11.231867     9A    -11.221897
      10A     -1.404950    11A     -1.363205    12A     -1.247238
      13A     -1.073491    14A     -1.028373    15A     -0.949539
      16A     -0.896422    17A     -0.825780    18A     -0.796131
      19A     -0.747690    20A     -0.681636    21A     -0.653010
      22A     -0.633422    23A     -0.628893    24A     -0.596747
      25A     -0.584225    26A     -0.572274    27A     -0.554973
      28A     -0.549098    29A     -0.540873    30A     -0.531256
      31A     -0.519522    32A     -0.502300    33A     -0.491299
      34A     -0.449761    35A     -0.432410    36A     -0.400626

  @DF-RHF Final Energy:  -439.13390105836584

   => Energetics <=

    Nuclear Repulsion Energy =            485.8247614773256942
    One-Electron Energy =               -1562.0303794023941464
    Two-Electron Energy =                 637.0717168667026726
    Total Energy =                       -439.1339010583658364
  Basis Set: (AUG-CC-PVTZ AUX)
    Blend: AUG-CC-PVTZ-RI
    Molecular point group: c1

    Geometry (in Angstrom), charge = 0, multiplicity = 1:

       Center              X                  Y                   Z               Mass
    ------------   -----------------  -----------------  -----------------  -----------------
         O           -2.896501896509    -0.348127394480    -0.256225889260    15.994914619570
         O           -0.582284896509    -1.513844394480     0.083555110740    15.994914619570
         N            0.664949103491     0.344419605520    -0.351358889260    14.003074004430
         C            1.952493103491    -0.307297394480    -0.129545889260    12.000000000000
         C           -1.787279896509     0.520061605520    -0.341164889260    12.000000000000
         C            2.309045103491    -0.311782394480     1.352735110740    12.000000000000
         C            3.007513103491     0.376249605520    -0.984562889260    12.000000000000
         C           -0.508905896509    -0.305046394480    -0.181044889260    12.000000000000
         C           -1.898801896509     1.592266605520     0.736407110740    12.000000000000
         H            1.818524103491    -1.340217394480    -0.462535889260     1.007825032230
         H            0.651122103491     1.352168605520    -0.462704889260     1.007825032230
         H           -1.768556896509     0.993102605520    -1.335510889260     1.007825032230
         H            2.408855103491     0.712954605520     1.724450110740     1.007825032230
         H            1.527931103491    -0.820196394480     1.922280110740     1.007825032230
         H            3.256368103491    -0.832665394480     1.521706110740     1.007825032230
         H            3.130738103491     1.422843605520    -0.683413889260     1.007825032230
         H            2.731870103491     0.347295605520    -2.041171889260     1.007825032230
         H            3.974172103491    -0.118939394480    -0.863263889260     1.007825032230
         H           -1.841782896509     1.124757605520     1.722185110740     1.007825032230
         H           -2.866782896509     2.088214605520     0.644392110740     1.007825032230
         H           -1.113771896509     2.350719605520     0.654458110740     1.007825032230
         H           -2.539199996509    -1.142338994480    -0.110250089260     1.007825032230

  Basis Set: AUG-CC-PVTZ
    Blend: AUG-CC-PVTZ
  Basis Set: (AUG-CC-PVTZ AUX)
    Blend: AUG-CC-PVTZ-JKFIT
	 Reference Energy          =    -439.1339010583658364 [Eh]
	 Singles Energy            =      -0.0000000000000000 [Eh]
	 Same-Spin Energy          =      -0.4445022371501061 [Eh]
	 Opposite-Spin Energy      =      -1.4606891292908575 [Eh]
	 Correlation Energy        =      -1.9051913664409637 [Eh]
	 Total Energy              =    -441.0390924248068245 [Eh]

	 ================> DF-SCS-MP2 Energies <==================
	-----------------------------------------------------------
	 SCS Same-Spin Scale       =       0.3333333333333333 [-]
	 SCS Opposite-Spin Scale   =       1.2000000000000000 [-]
	 SCS Same-Spin Energy      =      -0.1481674123833687 [Eh]
	 SCS Opposite-Spin Energy  =      -1.7528269551490290 [Eh]
	 SCS Correlation Energy    =      -1.9009943675323977 [Eh]
	 SCS Total Energy          =    -441.0348954258982417 [Eh]
	-----------------------------------------------------------

  Dipole Moment: [D]
     X:     3.4676      Y:     3.0316      Z:    -0.2450     Total:     4.6124

*** Psi4 exiting successfully. Buy a developer a beer!
