                               Psi4 1.3.2 release

  ==> Input File <==

--------------------------------------------------------------------------
#psi4
#
memory 32 gb

molecule  {
0 1
  O       -2.8690806    -0.3853060    -0.3134048
  O       -0.5825960    -1.5131530     0.0834280
  N        0.6646380     0.3451110    -0.3514860
  C        1.9521820    -0.3066060    -0.1296730
  C       -1.7875910     0.5207530    -0.3412920
  C        2.3087340    -0.3110910     1.3526080
  C        3.0072020     0.3769410    -0.9846900
  C       -0.5092170    -0.3043550    -0.1811720
  C       -1.8304091     1.6237331     0.7098139
  H        1.8182130    -1.3395260    -0.4626630
  H        0.6508110     1.3528600    -0.4628320
  H       -1.7688680     0.9937940    -1.3356380
  H        2.4085440     0.7136460     1.7243230
  H        1.5276200    -0.8195050     1.9221530
  H        3.2560570    -0.8319740     1.5215790
  H        3.1304270     1.4235350    -0.6835410
  H        2.7315590     0.3479870    -2.0412990
  H        3.9738610    -0.1182480    -0.8633910
  H       -1.8420940     1.1254490     1.7220580
  H       -2.8670940     2.0889060     0.6442650
  H       -1.1140830     2.3514110     0.6543310
  H       -2.4990480    -1.2315890    -0.0938460
units angstrom
no_reorient  #important for SAPT in psi4, default
symmetry c1  #important for SAPT in psi4, default
}

set PROPERTIES_ORIGIN ["COM"]
properties('MP2/aug-cc-pvtz', properties = ['dipole'])
--------------------------------------------------------------------------

    Molecular point group: c1
  Charge       = 0
  Multiplicity = 1
  Basis Set: AUG-CC-PVTZ
    Blend: AUG-CC-PVTZ
  Basis Set: (AUG-CC-PVTZ AUX)
    Blend: AUG-CC-PVTZ-JKFIT

    Orbital Energies [Eh]
    ---------------------

    Doubly Occupied:

       1A    -20.547121     2A    -20.530388     3A    -15.594683
       4A    -11.356182     5A    -11.299375     6A    -11.276590
       7A    -11.234226     8A    -11.231938     9A    -11.221824
      10A     -1.398444    11A     -1.349849    12A     -1.247115
      13A     -1.073354    14A     -1.027508    15A     -0.949436
      16A     -0.895159    17A     -0.824474    18A     -0.794884
      19A     -0.740175    20A     -0.679978    21A     -0.650834
      22A     -0.634218    23A     -0.628892    24A     -0.599400
      25A     -0.587557    26A     -0.572428    27A     -0.554641
      28A     -0.548965    29A     -0.533272    30A     -0.529946
      31A     -0.509408    32A     -0.501836    33A     -0.490534
      34A     -0.446846    35A     -0.430517    36A     -0.400493

  @DF-RHF Final Energy:  -439.13029617102552

   => Energetics <=

    Nuclear Repulsion Energy =            485.8449466369045240
    One-Electron Energy =               -1562.1655058196865866
    Two-Electron Energy =                 637.1902630117565423
    Total Energy =                       -439.1302961710255204
  Basis Set: (AUG-CC-PVTZ AUX)
    Blend: AUG-CC-PVTZ-RI
    Molecular point group: c1

    Geometry (in Angstrom), charge = 0, multiplicity = 1:

       Center              X                  Y                   Z               Mass
    ------------   -----------------  -----------------  -----------------  -----------------
         O           -2.878753154181    -0.383502468377    -0.304021235925    15.994914619570
         O           -0.592268554181    -1.511349468377     0.092811564075    15.994914619570
         N            0.654965445819     0.346914531623    -0.342102435925    14.003074004430
         C            1.942509445819    -0.304802468377    -0.120289435925    12.000000000000
         C           -1.797263554181     0.522556531623    -0.331908435925    12.000000000000
         C            2.299061445819    -0.309287468377     1.361991564075    12.000000000000
         C            2.997529445819     0.378744531623    -0.975306435925    12.000000000000
         C           -0.518889554181    -0.302551468377    -0.171788435925    12.000000000000
         C           -1.840081654181     1.625536631623     0.719197464075    12.000000000000
         H            1.808540445819    -1.337722468377    -0.453279435925     1.007825032230
         H            0.641138445819     1.354663531623    -0.453448435925     1.007825032230
         H           -1.778540554181     0.995597531623    -1.326254435925     1.007825032230
         H            2.398871445819     0.715449531623     1.733706564075     1.007825032230
         H            1.517947445819    -0.817701468377     1.931536564075     1.007825032230
         H            3.246384445819    -0.830170468377     1.530962564075     1.007825032230
         H            3.120754445819     1.425338531623    -0.674157435925     1.007825032230
         H            2.721886445819     0.349790531623    -2.031915435925     1.007825032230
         H            3.964188445819    -0.116444468377    -0.854007435925     1.007825032230
         H           -1.851766554181     1.127252531623     1.731441564075     1.007825032230
         H           -2.876766554181     2.090709531623     0.653648564075     1.007825032230
         H           -1.123755554181     2.353214531623     0.663714564075     1.007825032230
         H           -2.508720554181    -1.229785468377    -0.084462435925     1.007825032230

  Basis Set: AUG-CC-PVTZ
    Blend: AUG-CC-PVTZ
  Basis Set: (AUG-CC-PVTZ AUX)
    Blend: AUG-CC-PVTZ-JKFIT
	 Reference Energy          =    -439.1302961710255204 [Eh]
	 Singles Energy            =      -0.0000000000000000 [Eh]
	 Same-Spin Energy          =      -0.4457172409328506 [Eh]
	 Opposite-Spin Energy      =      -1.4629422015615989 [Eh]
	 Correlation Energy        =      -1.9086594424944496 [Eh]
	 Total Energy              =    -441.0389556135199882 [Eh]

	 ================> DF-SCS-MP2 Energies <==================
	-----------------------------------------------------------
	 SCS Same-Spin Scale       =       0.3333333333333333 [-]
	 SCS Opposite-Spin Scale   =       1.2000000000000000 [-]
	 SCS Same-Spin Energy      =      -0.1485724136442835 [Eh]
	 SCS Opposite-Spin Energy  =      -1.7555306418739187 [Eh]
	 SCS Correlation Energy    =      -1.9041030555182021 [Eh]
	 SCS Total Energy          =    -441.0343992265437123 [Eh]
	-----------------------------------------------------------

  Dipole Moment: [D]
     X:     3.5022      Y:     3.0228      Z:    -0.1128     Total:     4.6276

*** Psi4 exiting successfully. Buy a developer a beer!
