                               Psi4 1.3.2 release

  ==> Input File <==

--------------------------------------------------------------------------
#psi4
#
memory 32 gb

molecule  {
0 1
  O       -2.8968130    -0.3474360    -0.2563530
  O       -0.5825960    -1.5131530     0.0834280
  N        0.6948126     0.4096601    -0.3238136
  C        1.9521820    -0.3066060    -0.1296730
  C       -1.7875910     0.5207530    -0.3412920
  C        2.3087340    -0.3110910     1.3526080
  C        3.0072020     0.3769410    -0.9846900
  C       -0.5092170    -0.3043550    -0.1811720
  C       -1.8991130     1.5929580     0.7362800
  H        1.8727165    -1.3496231    -0.4483488
  H        0.6508110     1.3528600    -0.4628320
  H       -1.7688680     0.9937940    -1.3356380
  H        2.4085440     0.7136460     1.7243230
  H        1.5276200    -0.8195050     1.9221530
  H        3.2560570    -0.8319740     1.5215790
  H        3.1304270     1.4235350    -0.6835410
  H        2.7315590     0.3479870    -2.0412990
  H        3.9738610    -0.1182480    -0.8633910
  H       -1.8420940     1.1254490     1.7220580
  H       -2.8670940     2.0889060     0.6442650
  H       -1.1140830     2.3514110     0.6543310
  H       -2.4990480    -1.2315890    -0.0938460
units angstrom
no_reorient  #important for SAPT in psi4, default
symmetry c1  #important for SAPT in psi4, default
}

set PROPERTIES_ORIGIN ["COM"]
properties('MP2/aug-cc-pvtz', properties = ['dipole'])
--------------------------------------------------------------------------

    Molecular point group: c1
  Charge       = 0
  Multiplicity = 1
  Basis Set: AUG-CC-PVTZ
    Blend: AUG-CC-PVTZ
  Basis Set: (AUG-CC-PVTZ AUX)
    Blend: AUG-CC-PVTZ-JKFIT

    Orbital Energies [Eh]
    ---------------------

    Doubly Occupied:

       1A    -20.549531     2A    -20.542891     3A    -15.589671
       4A    -11.367079     5A    -11.298766     6A    -11.275777
       7A    -11.231407     8A    -11.229301     9A    -11.219212
      10A     -1.398966    11A     -1.347277    12A     -1.245151
      13A     -1.068605    14A     -1.023999    15A     -0.947713
      16A     -0.894430    17A     -0.823686    18A     -0.794641
      19A     -0.735108    20A     -0.682874    21A     -0.654848
      22A     -0.639448    23A     -0.623730    24A     -0.595581
      25A     -0.582205    26A     -0.567972    27A     -0.553339
      28A     -0.544882    29A     -0.538640    30A     -0.528983
      31A     -0.517945    32A     -0.502331    33A     -0.487526
      34A     -0.446439    35A     -0.436705    36A     -0.400405

  @DF-RHF Final Energy:  -439.12998056697006

   => Energetics <=

    Nuclear Repulsion Energy =            484.4691927067743222
    One-Electron Energy =               -1559.4242192853093911
    Two-Electron Energy =                 635.8250460115650640
    Total Energy =                       -439.1299805669700618
  Basis Set: (AUG-CC-PVTZ AUX)
    Blend: AUG-CC-PVTZ-RI
    Molecular point group: c1

    Geometry (in Angstrom), charge = 0, multiplicity = 1:

       Center              X                  Y                   Z               Mass
    ------------   -----------------  -----------------  -----------------  -----------------
         O           -2.900455123874    -0.354253232952    -0.259418891411    15.994914619570
         O           -0.586238123874    -1.519970232952     0.080362108589    15.994914619570
         N            0.691170476126     0.402842867048    -0.326879491411    14.003074004430
         C            1.948539876126    -0.313423232952    -0.132738891411    12.000000000000
         C           -1.791233123874     0.513935767048    -0.344357891411    12.000000000000
         C            2.305091876126    -0.317908232952     1.349542108589    12.000000000000
         C            3.003559876126     0.370123767048    -0.987755891411    12.000000000000
         C           -0.512859123874    -0.311172232952    -0.184237891411    12.000000000000
         C           -1.902755123874     1.586140767048     0.733214108589    12.000000000000
         H            1.869074376126    -1.356440332952    -0.451414691411     1.007825032230
         H            0.647168876126     1.346042767048    -0.465897891411     1.007825032230
         H           -1.772510123874     0.986976767048    -1.338703891411     1.007825032230
         H            2.404901876126     0.706828767048     1.721257108589     1.007825032230
         H            1.523977876126    -0.826322232952     1.919087108589     1.007825032230
         H            3.252414876126    -0.838791232952     1.518513108589     1.007825032230
         H            3.126784876126     1.416717767048    -0.686606891411     1.007825032230
         H            2.727916876126     0.341169767048    -2.044364891411     1.007825032230
         H            3.970218876126    -0.125065232952    -0.866456891411     1.007825032230
         H           -1.845736123874     1.118631767048     1.718992108589     1.007825032230
         H           -2.870736123874     2.082088767048     0.641199108589     1.007825032230
         H           -1.117725123874     2.344593767048     0.651265108589     1.007825032230
         H           -2.502690123874    -1.238406232952    -0.096911891411     1.007825032230

  Basis Set: AUG-CC-PVTZ
    Blend: AUG-CC-PVTZ
  Basis Set: (AUG-CC-PVTZ AUX)
    Blend: AUG-CC-PVTZ-JKFIT
	 Reference Energy          =    -439.1299805669700618 [Eh]
	 Singles Energy            =      -0.0000000000000000 [Eh]
	 Same-Spin Energy          =      -0.4459252888306454 [Eh]
	 Opposite-Spin Energy      =      -1.4640325492154944 [Eh]
	 Correlation Energy        =      -1.9099578380461399 [Eh]
	 Total Energy              =    -441.0399384050161871 [Eh]

	 ================> DF-SCS-MP2 Energies <==================
	-----------------------------------------------------------
	 SCS Same-Spin Scale       =       0.3333333333333333 [-]
	 SCS Opposite-Spin Scale   =       1.2000000000000000 [-]
	 SCS Same-Spin Energy      =      -0.1486417629435485 [Eh]
	 SCS Opposite-Spin Energy  =      -1.7568390590585932 [Eh]
	 SCS Correlation Energy    =      -1.9054808220021417 [Eh]
	 SCS Total Energy          =    -441.0354613889721804 [Eh]
	-----------------------------------------------------------

  Dipole Moment: [D]
     X:     3.3194      Y:     2.7296      Z:    -0.2583     Total:     4.3053

*** Psi4 exiting successfully. Buy a developer a beer!
