                               Psi4 1.3.2 release

  ==> Input File <==

--------------------------------------------------------------------------
#psi4
#
memory 32 gb

molecule  {
0 1
  O       -2.8968130    -0.3474360    -0.2563530
  O       -0.5825960    -1.5131530     0.0834280
  N        0.6646380     0.3451110    -0.3514860
  C        1.9521820    -0.3066060    -0.1296730
  C       -1.7875910     0.5207530    -0.3412920
  C        2.3087340    -0.3110910     1.3526080
  C        3.0072020     0.3769410    -0.9846900
  C       -0.6763325    -0.1964927    -0.2021037
  C       -1.8991130     1.5929580     0.7362800
  H        1.8182130    -1.3395260    -0.4626630
  H        0.6508110     1.3528600    -0.4628320
  H       -1.7688680     0.9937940    -1.3356380
  H        2.4085440     0.7136460     1.7243230
  H        1.5276200    -0.8195050     1.9221530
  H        3.2560570    -0.8319740     1.5215790
  H        3.1304270     1.4235350    -0.6835410
  H        2.7315590     0.3479870    -2.0412990
  H        3.9738610    -0.1182480    -0.8633910
  H       -1.8420940     1.1254490     1.7220580
  H       -2.8670940     2.0889060     0.6442650
  H       -1.1140830     2.3514110     0.6543310
  H       -2.4990480    -1.2315890    -0.0938460
units angstrom
no_reorient  #important for SAPT in psi4, default
symmetry c1  #important for SAPT in psi4, default
}

set PROPERTIES_ORIGIN ["COM"]
properties('MP2/aug-cc-pvtz', properties = ['dipole'])
--------------------------------------------------------------------------

    Molecular point group: c1
  Charge       = 0
  Multiplicity = 1
  Basis Set: AUG-CC-PVTZ
    Blend: AUG-CC-PVTZ
  Basis Set: (AUG-CC-PVTZ AUX)
    Blend: AUG-CC-PVTZ-JKFIT

    Orbital Energies [Eh]
    ---------------------

    Doubly Occupied:

       1A    -20.558503     2A    -20.528883     3A    -15.591604
       4A    -11.376564     5A    -11.301521     6A    -11.273826
       7A    -11.246816     8A    -11.228124     9A    -11.216151
      10A     -1.390132    11A     -1.314419    12A     -1.212156
      13A     -1.097388    14A     -1.031876    15A     -0.944004
      16A     -0.940036    17A     -0.820600    18A     -0.775238
      19A     -0.743229    20A     -0.689455    21A     -0.649598
      22A     -0.627258    23A     -0.623395    24A     -0.584948
      25A     -0.578635    26A     -0.571837    27A     -0.552564
      28A     -0.547519    29A     -0.536788    30A     -0.524083
      31A     -0.512224    32A     -0.490513    33A     -0.480826
      34A     -0.452805    35A     -0.439214    36A     -0.384647

  @DF-RHF Final Energy:  -439.06726383358847

   => Energetics <=

    Nuclear Repulsion Energy =            484.7516009763002103
    One-Electron Energy =               -1559.9629749535467909
    Two-Electron Energy =                 636.1441101436582812
    Total Energy =                       -439.0672638335884130
  Basis Set: (AUG-CC-PVTZ AUX)
    Blend: AUG-CC-PVTZ-RI
    Molecular point group: c1

    Geometry (in Angstrom), charge = 0, multiplicity = 1:

       Center              X                  Y                   Z               Mass
    ------------   -----------------  -----------------  -----------------  -----------------
         O           -2.881515727396    -0.357309329834    -0.254436953701    15.994914619570
         O           -0.567298727396    -1.523026329834     0.085344046299    15.994914619570
         N            0.679935272604     0.335237670166    -0.349569953701    14.003074004430
         C            1.967479272604    -0.316479329834    -0.127756953701    12.000000000000
         C           -1.772293727396     0.510879670166    -0.339375953701    12.000000000000
         C            2.324031272604    -0.320964329834     1.354524046299    12.000000000000
         C            3.022499272604     0.367067670166    -0.982773953701    12.000000000000
         C           -0.661035227396    -0.206366029834    -0.200187653701    12.000000000000
         C           -1.883815727396     1.583084670166     0.738196046299    12.000000000000
         H            1.833510272604    -1.349399329834    -0.460746953701     1.007825032230
         H            0.666108272604     1.342986670166    -0.460915953701     1.007825032230
         H           -1.753570727396     0.983920670166    -1.333721953701     1.007825032230
         H            2.423841272604     0.703772670166     1.726239046299     1.007825032230
         H            1.542917272604    -0.829378329834     1.924069046299     1.007825032230
         H            3.271354272604    -0.841847329834     1.523495046299     1.007825032230
         H            3.145724272604     1.413661670166    -0.681624953701     1.007825032230
         H            2.746856272604     0.338113670166    -2.039382953701     1.007825032230
         H            3.989158272604    -0.128121329834    -0.861474953701     1.007825032230
         H           -1.826796727396     1.115575670166     1.723974046299     1.007825032230
         H           -2.851796727396     2.079032670166     0.646181046299     1.007825032230
         H           -1.098785727396     2.341537670166     0.656247046299     1.007825032230
         H           -2.483750727396    -1.241462329834    -0.091929953701     1.007825032230

  Basis Set: AUG-CC-PVTZ
    Blend: AUG-CC-PVTZ
  Basis Set: (AUG-CC-PVTZ AUX)
    Blend: AUG-CC-PVTZ-JKFIT
	 Reference Energy          =    -439.0672638335884699 [Eh]
	 Singles Energy            =      -0.0000000000000000 [Eh]
	 Same-Spin Energy          =      -0.4515597891547689 [Eh]
	 Opposite-Spin Energy      =      -1.4740313122819220 [Eh]
	 Correlation Energy        =      -1.9255911014366909 [Eh]
	 Total Energy              =    -440.9928549350251501 [Eh]

	 ================> DF-SCS-MP2 Energies <==================
	-----------------------------------------------------------
	 SCS Same-Spin Scale       =       0.3333333333333333 [-]
	 SCS Opposite-Spin Scale   =       1.2000000000000000 [-]
	 SCS Same-Spin Energy      =      -0.1505199297182563 [Eh]
	 SCS Opposite-Spin Energy  =      -1.7688375747383063 [Eh]
	 SCS Correlation Energy    =      -1.9193575044565625 [Eh]
	 SCS Total Energy          =    -440.9866213380450404 [Eh]
	-----------------------------------------------------------

  Dipole Moment: [D]
     X:     2.7244      Y:     3.3296      Z:    -0.2303     Total:     4.3083

*** Psi4 exiting successfully. Buy a developer a beer!
