                               Psi4 1.3.2 release

  ==> Input File <==

--------------------------------------------------------------------------
#psi4
#
memory 32 gb

molecule  {
0 1
  O       -2.8968130    -0.3474360    -0.2563530
  O       -0.5825960    -1.5131530     0.0834280
  N        0.6646380     0.3451110    -0.3514860
  C        1.9521820    -0.3066060    -0.1296730
  C       -1.7875910     0.5207530    -0.3412920
  C        2.3087340    -0.3110910     1.3526080
  C        3.0072020     0.3769410    -0.9846900
  C       -0.5422592    -0.2418820    -0.1853928
  C       -1.8991130     1.5929580     0.7362800
  H        1.8182130    -1.3395260    -0.4626630
  H        0.5979485     1.3512431    -0.4582467
  H       -1.7688680     0.9937940    -1.3356380
  H        2.4085440     0.7136460     1.7243230
  H        1.5276200    -0.8195050     1.9221530
  H        3.2560570    -0.8319740     1.5215790
  H        3.1304270     1.4235350    -0.6835410
  H        2.7315590     0.3479870    -2.0412990
  H        3.9738610    -0.1182480    -0.8633910
  H       -1.8420940     1.1254490     1.7220580
  H       -2.8670940     2.0889060     0.6442650
  H       -1.1140830     2.3514110     0.6543310
  H       -2.4990480    -1.2315890    -0.0938460
units angstrom
no_reorient  #important for SAPT in psi4, default
symmetry c1  #important for SAPT in psi4, default
}

set PROPERTIES_ORIGIN ["COM"]
properties('MP2/aug-cc-pvtz', properties = ['dipole'])
--------------------------------------------------------------------------

    Molecular point group: c1
  Charge       = 0
  Multiplicity = 1
  Basis Set: AUG-CC-PVTZ
    Blend: AUG-CC-PVTZ
  Basis Set: (AUG-CC-PVTZ AUX)
    Blend: AUG-CC-PVTZ-JKFIT

    Orbital Energies [Eh]
    ---------------------

    Doubly Occupied:

       1A    -20.550153     2A    -20.523244     3A    -15.600807
       4A    -11.361778     5A    -11.300223     6A    -11.280272
       7A    -11.235344     8A    -11.233009     9A    -11.222471
      10A     -1.380972    11A     -1.334135    12A     -1.240735
      13A     -1.079632    14A     -1.031669    15A     -0.950009
      16A     -0.907579    17A     -0.828069    18A     -0.787765
      19A     -0.741209    20A     -0.680673    21A     -0.653216
      22A     -0.629682    23A     -0.623794    24A     -0.589367
      25A     -0.579944    26A     -0.570242    27A     -0.555321
      28A     -0.550148    29A     -0.539668    30A     -0.525889
      31A     -0.510255    32A     -0.498843    33A     -0.488731
      34A     -0.446872    35A     -0.435568    36A     -0.397467

  @DF-RHF Final Energy:  -439.12445244245464

   => Energetics <=

    Nuclear Repulsion Energy =            485.1299958757023205
    One-Electron Energy =               -1560.7793893508328438
    Two-Electron Energy =                 636.5249410326759971
    Total Energy =                       -439.1244524424546398
  Basis Set: (AUG-CC-PVTZ AUX)
    Blend: AUG-CC-PVTZ-RI
    Molecular point group: c1

    Geometry (in Angstrom), charge = 0, multiplicity = 1:

       Center              X                  Y                   Z               Mass
    ------------   -----------------  -----------------  -----------------  -----------------
         O           -2.893381991217    -0.353142102253    -0.256001868925    15.994914619570
         O           -0.579164991217    -1.518859102253     0.083779131075    15.994914619570
         N            0.668069008783     0.339404897747    -0.351134868925    14.003074004430
         C            1.955613008783    -0.312312102253    -0.129321868925    12.000000000000
         C           -1.784159991217     0.515046897747    -0.340940868925    12.000000000000
         C            2.312165008783    -0.316797102253     1.352959131075    12.000000000000
         C            3.010633008783     0.371234897747    -0.984338868925    12.000000000000
         C           -0.538828191217    -0.247588102253    -0.185041668925    12.000000000000
         C           -1.895681991217     1.587251897747     0.736631131075    12.000000000000
         H            1.821644008783    -1.345232102253    -0.462311868925     1.007825032230
         H            0.601379508783     1.345536997747    -0.457895568925     1.007825032230
         H           -1.765436991217     0.988087897747    -1.335286868925     1.007825032230
         H            2.411975008783     0.707939897747     1.724674131075     1.007825032230
         H            1.531051008783    -0.825211102253     1.922504131075     1.007825032230
         H            3.259488008783    -0.837680102253     1.521930131075     1.007825032230
         H            3.133858008783     1.417828897747    -0.683189868925     1.007825032230
         H            2.734990008783     0.342280897747    -2.040947868925     1.007825032230
         H            3.977292008783    -0.123954102253    -0.863039868925     1.007825032230
         H           -1.838662991217     1.119742897747     1.722409131075     1.007825032230
         H           -2.863662991217     2.083199897747     0.644616131075     1.007825032230
         H           -1.110651991217     2.345704897747     0.654682131075     1.007825032230
         H           -2.495616991217    -1.237295102253    -0.093494868925     1.007825032230

  Basis Set: AUG-CC-PVTZ
    Blend: AUG-CC-PVTZ
  Basis Set: (AUG-CC-PVTZ AUX)
    Blend: AUG-CC-PVTZ-JKFIT
	 Reference Energy          =    -439.1244524424546398 [Eh]
	 Singles Energy            =      -0.0000000000000000 [Eh]
	 Same-Spin Energy          =      -0.4477591521601369 [Eh]
	 Opposite-Spin Energy      =      -1.4669165135461728 [Eh]
	 Correlation Energy        =      -1.9146756657063098 [Eh]
	 Total Energy              =    -441.0391281081609236 [Eh]

	 ================> DF-SCS-MP2 Energies <==================
	-----------------------------------------------------------
	 SCS Same-Spin Scale       =       0.3333333333333333 [-]
	 SCS Opposite-Spin Scale   =       1.2000000000000000 [-]
	 SCS Same-Spin Energy      =      -0.1492530507200456 [Eh]
	 SCS Opposite-Spin Energy  =      -1.7602998162554073 [Eh]
	 SCS Correlation Energy    =      -1.9095528669754529 [Eh]
	 SCS Total Energy          =    -441.0340053094300856 [Eh]
	-----------------------------------------------------------

  Dipole Moment: [D]
     X:     3.5109      Y:     3.2141      Z:    -0.2450     Total:     4.7662

*** Psi4 exiting successfully. Buy a developer a beer!
