                               Psi4 1.4a3.dev225

  ==> Input File <==

--------------------------------------------------------------------------
#psi4
#
memory 32 gb

molecule  {
0 1
  O       -1.7446660    -1.3796590    -0.7880960
  O       -0.4296620     1.7569970     0.2600660
  N        0.4723820    -0.3330750    -0.0012650
  C        1.8394770     0.0732600     0.3013020
  C       -1.9099390    -0.0103690    -0.3967440
  C        2.4958720     0.7244850    -0.9128940
  C        2.6145980    -1.1365250     0.8043010
  C       -0.5442740     0.5588710    -0.0269710
  C       -2.8296314     0.1312104     0.7428520
  H        1.7638430     0.8203410     1.0982830
  H        0.2750420    -1.2730860    -0.3263580
  H       -2.2722210     0.5864250    -1.2458220
  H        2.5570320     0.0100450    -1.7401110
  H        1.9072700     1.5874400    -1.2316560
  H        3.5085800     1.0627310    -0.6705710
  H        2.6773940    -1.9046250     0.0252330
  H        2.1327900    -1.5715010     1.6841320
  H        3.6348850    -0.8497170     1.0733550
  H       -2.5011890    -0.4705790     1.6169940
  H       -3.8694610    -0.1962540     0.5126420
  H       -2.9055320     1.1820880     1.0905810
  H       -2.6295620    -1.7449530    -0.9570530
units angstrom
no_reorient  #important for SAPT in psi4, default
symmetry c1  #important for SAPT in psi4, default
}

set PROPERTIES_ORIGIN ["COM"]
properties('MP2/aug-cc-pvtz', properties = ['dipole'])
--------------------------------------------------------------------------

    Molecular point group: c1
  Charge       = 0
  Multiplicity = 1
  Basis Set: AUG-CC-PVTZ
    Blend: AUG-CC-PVTZ
  Basis Set: (AUG-CC-PVTZ AUX)
    Blend: AUG-CC-PVTZ-JKFIT

    Orbital Energies [Eh]
    ---------------------

    Doubly Occupied:

       1A    -20.580720     2A    -20.509712     3A    -15.575918
       4A    -11.343328     5A    -11.299116     6A    -11.264093
       7A    -11.230686     8A    -11.221415     9A    -11.209397
      10A     -1.388759    11A     -1.359148    12A     -1.228095
      13A     -1.060955    14A     -1.034015    15A     -0.937244
      16A     -0.894240    17A     -0.813401    18A     -0.778096
      19A     -0.713776    20A     -0.691926    21A     -0.648297
      22A     -0.642472    23A     -0.614335    24A     -0.594350
      25A     -0.577993    26A     -0.564945    27A     -0.546939
      28A     -0.542311    29A     -0.521388    30A     -0.517940
      31A     -0.515912    32A     -0.490842    33A     -0.480904
      34A     -0.463363    35A     -0.413773    36A     -0.382692

  @DF-RHF Final Energy:  -439.13492372981773

   => Energetics <=

    Nuclear Repulsion Energy =            486.8287867208274520
    One-Electron Energy =               -1564.6224216129360229
    Two-Electron Energy =                 638.6587111622907287
    Total Energy =                       -439.1349237298177286
  Basis Set: (AUG-CC-PVTZ AUX)
    Blend: AUG-CC-PVTZ-RI
    Molecular point group: c1

    Geometry (in Angstrom), charge = 0, multiplicity = 1:

       Center              X                  Y                   Z               Mass
    ------------   -----------------  -----------------  -----------------  -----------------
         O           -1.715238355661    -1.400097282521    -0.777535436719    15.994914619570
         O           -0.400234355661     1.736558717479     0.270626563281    15.994914619570
         N            0.501809644339    -0.353513282521     0.009295563281    14.003074004430
         C            1.868904644339     0.052821717479     0.311862563281    12.000000000000
         C           -1.880511355661    -0.030807282521    -0.386183436719    12.000000000000
         C            2.525299644339     0.704046717479    -0.902333436719    12.000000000000
         C            2.644025644339    -1.156963282521     0.814861563281    12.000000000000
         C           -0.514846355661     0.538432717479    -0.016410436719    12.000000000000
         C           -2.800203755661     0.110772117479     0.753412563281    12.000000000000
         H            1.793270644339     0.799902717479     1.108843563281     1.007825032230
         H            0.304469644339    -1.293524282521    -0.315797436719     1.007825032230
         H           -2.242793355661     0.565986717479    -1.235261436719     1.007825032230
         H            2.586459644339    -0.010393282521    -1.729550436719     1.007825032230
         H            1.936697644339     1.567001717479    -1.221095436719     1.007825032230
         H            3.538007644339     1.042292717479    -0.660010436719     1.007825032230
         H            2.706821644339    -1.925063282521     0.035793563281     1.007825032230
         H            2.162217644339    -1.591939282521     1.694692563281     1.007825032230
         H            3.664312644339    -0.870155282521     1.083915563281     1.007825032230
         H           -2.471761355661    -0.491017282521     1.627554563281     1.007825032230
         H           -3.840033355661    -0.216692282521     0.523202563281     1.007825032230
         H           -2.876104355661     1.161649717479     1.101141563281     1.007825032230
         H           -2.600134355661    -1.765391282521    -0.946492436719     1.007825032230

  Basis Set: AUG-CC-PVTZ
    Blend: AUG-CC-PVTZ
  Basis Set: (AUG-CC-PVTZ AUX)
    Blend: AUG-CC-PVTZ-JKFIT
	 Reference Energy          =    -439.1349237298177286 [Eh]
	 Singles Energy            =      -0.0000000000000000 [Eh]
	 Same-Spin Energy          =      -0.4459380843569011 [Eh]
	 Opposite-Spin Energy      =      -1.4639070967511889 [Eh]
	 Correlation Energy        =      -1.9098451811080901 [Eh]
	 Total Energy              =    -441.0447689109258249 [Eh]

	 ================> DF-SCS-MP2 Energies <==================
	-----------------------------------------------------------
	 SCS Same-Spin Scale       =       0.3333333333333333 [-]
	 SCS Opposite-Spin Scale   =       1.2000000000000000 [-]
	 SCS Same-Spin Energy      =      -0.1486460281189670 [Eh]
	 SCS Opposite-Spin Energy  =      -1.7566885161014267 [Eh]
	 SCS Correlation Energy    =      -1.9053345442203937 [Eh]
	 SCS Total Energy          =    -441.0402582740381376 [Eh]
	-----------------------------------------------------------

  Dipole Moment: [D]
     X:    -0.6644      Y:    -2.8490      Z:    -0.4411     Total:     2.9585

*** Psi4 exiting successfully. Buy a developer a beer!
