                               Psi4 1.3.2 release

  ==> Input File <==

--------------------------------------------------------------------------
#psi4
#
memory 32 gb

molecule  {
0 1
  O       -2.8935861    -0.3503441    -0.2448300
  O       -0.5825960    -1.5131530     0.0834280
  N        0.6646380     0.3451110    -0.3514860
  C        1.9521820    -0.3066060    -0.1296730
  C       -1.7875910     0.5207530    -0.3412920
  C        2.3087340    -0.3110910     1.3526080
  C        3.0072020     0.3769410    -0.9846900
  C       -0.5092170    -0.3043550    -0.1811720
  C       -1.8991130     1.5929580     0.7362800
  H        1.8182130    -1.3395260    -0.4626630
  H        0.6508110     1.3528600    -0.4628320
  H       -1.7609178     0.9985914    -1.3331596
  H        2.4085440     0.7136460     1.7243230
  H        1.5276200    -0.8195050     1.9221530
  H        3.2560570    -0.8319740     1.5215790
  H        3.1304270     1.4235350    -0.6835410
  H        2.7315590     0.3479870    -2.0412990
  H        3.9738610    -0.1182480    -0.8633910
  H       -1.8420940     1.1254490     1.7220580
  H       -2.8670940     2.0889060     0.6442650
  H       -1.1140830     2.3514110     0.6543310
  H       -2.4990480    -1.2315890    -0.0938460
units angstrom
no_reorient  #important for SAPT in psi4, default
symmetry c1  #important for SAPT in psi4, default
}

set PROPERTIES_ORIGIN ["COM"]
properties('MP2/aug-cc-pvtz', properties = ['dipole'])
--------------------------------------------------------------------------

    Molecular point group: c1
  Charge       = 0
  Multiplicity = 1
  Basis Set: AUG-CC-PVTZ
    Blend: AUG-CC-PVTZ
  Basis Set: (AUG-CC-PVTZ AUX)
    Blend: AUG-CC-PVTZ-JKFIT

    Orbital Energies [Eh]
    ---------------------

    Doubly Occupied:

       1A    -20.547571     2A    -20.532207     3A    -15.595581
       4A    -11.358048     5A    -11.297609     6A    -11.277144
       7A    -11.232273     8A    -11.230652     9A    -11.222170
      10A     -1.397425    11A     -1.346534    12A     -1.247858
      13A     -1.072304    14A     -1.024126    15A     -0.949792
      16A     -0.895047    17A     -0.822435    18A     -0.794913
      19A     -0.736658    20A     -0.679605    21A     -0.650248
      22A     -0.632404    23A     -0.628712    24A     -0.596970
      25A     -0.581594    26A     -0.567433    27A     -0.555056
      28A     -0.548077    29A     -0.539512    30A     -0.530114
      31A     -0.512405    32A     -0.502683    33A     -0.491389
      34A     -0.445409    35A     -0.434121    36A     -0.401296

  @DF-RHF Final Energy:  -439.13814308329808

   => Energetics <=

    Nuclear Repulsion Energy =            485.4175705891372559
    One-Electron Energy =               -1561.3566765383375241
    Two-Electron Energy =                 636.8009628659020791
    Total Energy =                       -439.1381430832981323
  Basis Set: (AUG-CC-PVTZ AUX)
    Blend: AUG-CC-PVTZ-RI
    Molecular point group: c1

    Geometry (in Angstrom), charge = 0, multiplicity = 1:

       Center              X                  Y                   Z               Mass
    ------------   -----------------  -----------------  -----------------  -----------------
         O           -2.894040902226    -0.350026108611    -0.246254957060    15.994914619570
         O           -0.583050802226    -1.512835008611     0.082003042940    15.994914619570
         N            0.664183197774     0.345428991389    -0.352910957060    14.003074004430
         C            1.951727197774    -0.306288008611    -0.131097957060    12.000000000000
         C           -1.788045802226     0.521070991389    -0.342716957060    12.000000000000
         C            2.308279197774    -0.310773008611     1.351183042940    12.000000000000
         C            3.006747197774     0.377258991389    -0.986114957060    12.000000000000
         C           -0.509671802226    -0.304037008611    -0.182596957060    12.000000000000
         C           -1.899567802226     1.593275991389     0.734855042940    12.000000000000
         H            1.817758197774    -1.339208008611    -0.464087957060     1.007825032230
         H            0.650356197774     1.353177991389    -0.464256957060     1.007825032230
         H           -1.761372602226     0.998909391389    -1.334584557060     1.007825032230
         H            2.408089197774     0.713963991389     1.722898042940     1.007825032230
         H            1.527165197774    -0.819187008611     1.920728042940     1.007825032230
         H            3.255602197774    -0.831656008611     1.520154042940     1.007825032230
         H            3.129972197774     1.423852991389    -0.684965957060     1.007825032230
         H            2.731104197774     0.348304991389    -2.042723957060     1.007825032230
         H            3.973406197774    -0.117930008611    -0.864815957060     1.007825032230
         H           -1.842548802226     1.125766991389     1.720633042940     1.007825032230
         H           -2.867548802226     2.089223991389     0.642840042940     1.007825032230
         H           -1.114537802226     2.351728991389     0.652906042940     1.007825032230
         H           -2.499502802226    -1.231271008611    -0.095270957060     1.007825032230

  Basis Set: AUG-CC-PVTZ
    Blend: AUG-CC-PVTZ
  Basis Set: (AUG-CC-PVTZ AUX)
    Blend: AUG-CC-PVTZ-JKFIT
	 Reference Energy          =    -439.1381430832980755 [Eh]
	 Singles Energy            =      -0.0000000000000000 [Eh]
	 Same-Spin Energy          =      -0.4459499833254909 [Eh]
	 Opposite-Spin Energy      =      -1.4634509842281154 [Eh]
	 Correlation Energy        =      -1.9094009675536063 [Eh]
	 Total Energy              =    -441.0475440508516840 [Eh]

	 ================> DF-SCS-MP2 Energies <==================
	-----------------------------------------------------------
	 SCS Same-Spin Scale       =       0.3333333333333333 [-]
	 SCS Opposite-Spin Scale   =       1.2000000000000000 [-]
	 SCS Same-Spin Energy      =      -0.1486499944418303 [Eh]
	 SCS Opposite-Spin Energy  =      -1.7561411810737384 [Eh]
	 SCS Correlation Energy    =      -1.9047911755155686 [Eh]
	 SCS Total Energy          =    -441.0429342588136592 [Eh]
	-----------------------------------------------------------

  Dipole Moment: [D]
     X:     3.5645      Y:     2.9194      Z:    -0.2477     Total:     4.6141

*** Psi4 exiting successfully. Buy a developer a beer!
