                               Psi4 1.3.2 release

  ==> Input File <==

--------------------------------------------------------------------------
#psi4
#
memory 32 gb

molecule  {
0 1
  O       -2.9215051    -0.3071864    -0.1995340
  O       -0.5825960    -1.5131530     0.0834280
  N        0.6646380     0.3451110    -0.3514860
  C        1.9521820    -0.3066060    -0.1296730
  C       -1.7875910     0.5207530    -0.3412920
  C        2.3087340    -0.3110910     1.3526080
  C        3.0072020     0.3769410    -0.9846900
  C       -0.5092170    -0.3043550    -0.1811720
  C       -1.9675112     1.5592440     0.7597926
  H        1.8182130    -1.3395260    -0.4626630
  H        0.6508110     1.3528600    -0.4628320
  H       -1.7688680     0.9937940    -1.3356380
  H        2.4085440     0.7136460     1.7243230
  H        1.5276200    -0.8195050     1.9221530
  H        3.2560570    -0.8319740     1.5215790
  H        3.1304270     1.4235350    -0.6835410
  H        2.7315590     0.3479870    -2.0412990
  H        3.9738610    -0.1182480    -0.8633910
  H       -1.8420940     1.1254490     1.7220580
  H       -2.8670940     2.0889060     0.6442650
  H       -1.1140830     2.3514110     0.6543310
  H       -2.4990480    -1.2315890    -0.0938460
units angstrom
no_reorient  #important for SAPT in psi4, default
symmetry c1  #important for SAPT in psi4, default
}

set PROPERTIES_ORIGIN ["COM"]
properties('MP2/aug-cc-pvtz', properties = ['dipole'])
--------------------------------------------------------------------------

    Molecular point group: c1
  Charge       = 0
  Multiplicity = 1
  Basis Set: AUG-CC-PVTZ
    Blend: AUG-CC-PVTZ
  Basis Set: (AUG-CC-PVTZ AUX)
    Blend: AUG-CC-PVTZ-JKFIT

    Orbital Energies [Eh]
    ---------------------

    Doubly Occupied:

       1A    -20.549734     2A    -20.534822     3A    -15.596766
       4A    -11.360539     5A    -11.296507     6A    -11.277859
       7A    -11.232675     8A    -11.229842     9A    -11.222633
      10A     -1.397078    11A     -1.342299    12A     -1.248910
      13A     -1.071551    14A     -1.020425    15A     -0.950245
      16A     -0.896869    17A     -0.821371    18A     -0.795539
      19A     -0.733197    20A     -0.678126    21A     -0.650300
      22A     -0.632664    23A     -0.629192    24A     -0.596730
      25A     -0.580852    26A     -0.571216    27A     -0.555244
      28A     -0.551231    29A     -0.536485    30A     -0.521371
      31A     -0.509373    32A     -0.503630    33A     -0.492226
      34A     -0.441798    35A     -0.436803    36A     -0.402390

  @DF-RHF Final Energy:  -439.12568576190864

   => Energetics <=

    Nuclear Repulsion Energy =            484.8728213326880336
    One-Electron Energy =               -1560.2600253216321562
    Two-Electron Energy =                 636.2615182270354808
    Total Energy =                       -439.1256857619085849
  Basis Set: (AUG-CC-PVTZ AUX)
    Blend: AUG-CC-PVTZ-RI
    Molecular point group: c1

    Geometry (in Angstrom), charge = 0, multiplicity = 1:

       Center              X                  Y                   Z               Mass
    ------------   -----------------  -----------------  -----------------  -----------------
         O           -2.912231411861    -0.309011141610    -0.208618760282    15.994914619570
         O           -0.573322311861    -1.514977741610     0.074343239718    15.994914619570
         N            0.673911688139     0.343286258390    -0.360570760282    14.003074004430
         C            1.961455688139    -0.308430741610    -0.138757760282    12.000000000000
         C           -1.778317311861     0.518928258390    -0.350376760282    12.000000000000
         C            2.318007688139    -0.312915741610     1.343523239718    12.000000000000
         C            3.016475688139     0.375116258390    -0.993774760282    12.000000000000
         C           -0.499943311861    -0.306179741610    -0.190256760282    12.000000000000
         C           -1.958237511861     1.557419258390     0.750707839718    12.000000000000
         H            1.827486688139    -1.341350741610    -0.471747760282     1.007825032230
         H            0.660084688139     1.351035258390    -0.471916760282     1.007825032230
         H           -1.759594311861     0.991969258390    -1.344722760282     1.007825032230
         H            2.417817688139     0.711821258390     1.715238239718     1.007825032230
         H            1.536893688139    -0.821329741610     1.913068239718     1.007825032230
         H            3.265330688139    -0.833798741610     1.512494239718     1.007825032230
         H            3.139700688139     1.421710258390    -0.692625760282     1.007825032230
         H            2.740832688139     0.346162258390    -2.050383760282     1.007825032230
         H            3.983134688139    -0.120072741610    -0.872475760282     1.007825032230
         H           -1.832820311861     1.123624258390     1.712973239718     1.007825032230
         H           -2.857820311861     2.087081258390     0.635180239718     1.007825032230
         H           -1.104809311861     2.349586258390     0.645246239718     1.007825032230
         H           -2.489774311861    -1.233413741610    -0.102930760282     1.007825032230

  Basis Set: AUG-CC-PVTZ
    Blend: AUG-CC-PVTZ
  Basis Set: (AUG-CC-PVTZ AUX)
    Blend: AUG-CC-PVTZ-JKFIT
	 Reference Energy          =    -439.1256857619086418 [Eh]
	 Singles Energy            =      -0.0000000000000000 [Eh]
	 Same-Spin Energy          =      -0.4468091095839903 [Eh]
	 Opposite-Spin Energy      =      -1.4655066447261280 [Eh]
	 Correlation Energy        =      -1.9123157543101184 [Eh]
	 Total Energy              =    -441.0380015162187419 [Eh]

	 ================> DF-SCS-MP2 Energies <==================
	-----------------------------------------------------------
	 SCS Same-Spin Scale       =       0.3333333333333333 [-]
	 SCS Opposite-Spin Scale   =       1.2000000000000000 [-]
	 SCS Same-Spin Energy      =      -0.1489363698613301 [Eh]
	 SCS Opposite-Spin Energy  =      -1.7586079736713536 [Eh]
	 SCS Correlation Energy    =      -1.9075443435326838 [Eh]
	 SCS Total Energy          =    -441.0332301054413051 [Eh]
	-----------------------------------------------------------

  Dipole Moment: [D]
     X:     3.6182      Y:     2.7664      Z:    -0.3432     Total:     4.5675

*** Psi4 exiting successfully. Buy a developer a beer!
