                               Psi4 1.4a3.dev225

  ==> Input File <==

--------------------------------------------------------------------------
#psi4
#
memory 32 gb

molecule  {
0 1
  O       -1.7446660    -1.3796590    -0.7880960
  O       -0.4296620     1.7569970     0.2600660
  N        0.4723820    -0.3330750    -0.0012650
  C        1.8582307     0.0788341     0.3054526
  C       -1.9099390    -0.0103690    -0.3967440
  C        2.4958720     0.7244850    -0.9128940
  C        2.6145980    -1.1365250     0.8043010
  C       -0.5442740     0.5588710    -0.0269710
  C       -2.8608870     0.1360220     0.7815810
  H        1.7638430     0.8203410     1.0982830
  H        0.2750420    -1.2730860    -0.3263580
  H       -2.2722210     0.5864250    -1.2458220
  H        2.5570320     0.0100450    -1.7401110
  H        1.9072700     1.5874400    -1.2316560
  H        3.5085800     1.0627310    -0.6705710
  H        2.6773940    -1.9046250     0.0252330
  H        2.1327900    -1.5715010     1.6841320
  H        3.6348850    -0.8497170     1.0733550
  H       -2.5011890    -0.4705790     1.6169940
  H       -3.8694610    -0.1962540     0.5126420
  H       -2.9055320     1.1820880     1.0905810
  H       -2.6295620    -1.7449530    -0.9570530
units angstrom
no_reorient  #important for SAPT in psi4, default
symmetry c1  #important for SAPT in psi4, default
}

set PROPERTIES_ORIGIN ["COM"]
properties('MP2/aug-cc-pvtz', properties = ['dipole'])
--------------------------------------------------------------------------

    Molecular point group: c1
  Charge       = 0
  Multiplicity = 1
  Basis Set: AUG-CC-PVTZ
    Blend: AUG-CC-PVTZ
  Basis Set: (AUG-CC-PVTZ AUX)
    Blend: AUG-CC-PVTZ-JKFIT

    Orbital Energies [Eh]
    ---------------------

    Doubly Occupied:

       1A    -20.580381     2A    -20.508269     3A    -15.574422
       4A    -11.341915     5A    -11.300366     6A    -11.264854
       7A    -11.228451     8A    -11.221701     9A    -11.209874
      10A     -1.387005    11A     -1.357580    12A     -1.223461
      13A     -1.058876    14A     -1.028712    15A     -0.938836
      16A     -0.895768    17A     -0.812242    18A     -0.775954
      19A     -0.711859    20A     -0.689586    21A     -0.643592
      22A     -0.639777    23A     -0.615173    24A     -0.593683
      25A     -0.578353    26A     -0.562789    27A     -0.551146
      28A     -0.543309    29A     -0.524742    30A     -0.520318
      31A     -0.514099    32A     -0.493416    33A     -0.482640
      34A     -0.459188    35A     -0.412493    36A     -0.382686

  @DF-RHF Final Energy:  -439.13757413173454

   => Energetics <=

    Nuclear Repulsion Energy =            485.6782222708807808
    One-Electron Energy =               -1562.3765557277602056
    Two-Electron Energy =                 637.5607593251448861
    Total Energy =                       -439.1375741317345955
  Basis Set: (AUG-CC-PVTZ AUX)
    Blend: AUG-CC-PVTZ-RI
    Molecular point group: c1

    Geometry (in Angstrom), charge = 0, multiplicity = 1:

       Center              X                  Y                   Z               Mass
    ------------   -----------------  -----------------  -----------------  -----------------
         O           -1.714093970101    -1.401047957627    -0.781460503713    15.994914619570
         O           -0.399089970101     1.735608042373     0.266701496287    15.994914619570
         N            0.502954029899    -0.354463957627     0.005370496287    14.003074004430
         C            1.888802729899     0.057445142373     0.312088096287    12.000000000000
         C           -1.879366970101    -0.031757957627    -0.390108503713    12.000000000000
         C            2.526444029899     0.703096042373    -0.906258503713    12.000000000000
         C            2.645170029899    -1.157913957627     0.810936496287    12.000000000000
         C           -0.513701970101     0.537482042373    -0.020335503713    12.000000000000
         C           -2.830314970101     0.114633042373     0.788216496287    12.000000000000
         H            1.794415029899     0.798952042373     1.104918496287     1.007825032230
         H            0.305614029899    -1.294474957627    -0.319722503713     1.007825032230
         H           -2.241648970101     0.565036042373    -1.239186503713     1.007825032230
         H            2.587604029899    -0.011343957627    -1.733475503713     1.007825032230
         H            1.937842029899     1.566051042373    -1.225020503713     1.007825032230
         H            3.539152029899     1.041342042373    -0.663935503713     1.007825032230
         H            2.707966029899    -1.926013957627     0.031868496287     1.007825032230
         H            2.163362029899    -1.592889957627     1.690767496287     1.007825032230
         H            3.665457029899    -0.871105957627     1.079990496287     1.007825032230
         H           -2.470616970101    -0.491967957627     1.623629496287     1.007825032230
         H           -3.838888970101    -0.217642957627     0.519277496287     1.007825032230
         H           -2.874959970101     1.160699042373     1.097216496287     1.007825032230
         H           -2.598989970101    -1.766341957627    -0.950417503713     1.007825032230

  Basis Set: AUG-CC-PVTZ
    Blend: AUG-CC-PVTZ
  Basis Set: (AUG-CC-PVTZ AUX)
    Blend: AUG-CC-PVTZ-JKFIT
	 Reference Energy          =    -439.1375741317345387 [Eh]
	 Singles Energy            =      -0.0000000000000000 [Eh]
	 Same-Spin Energy          =      -0.4454732309294667 [Eh]
	 Opposite-Spin Energy      =      -1.4635169128092196 [Eh]
	 Correlation Energy        =      -1.9089901437386863 [Eh]
	 Total Energy              =    -441.0465642754732016 [Eh]

	 ================> DF-SCS-MP2 Energies <==================
	-----------------------------------------------------------
	 SCS Same-Spin Scale       =       0.3333333333333333 [-]
	 SCS Opposite-Spin Scale   =       1.2000000000000000 [-]
	 SCS Same-Spin Energy      =      -0.1484910769764889 [Eh]
	 SCS Opposite-Spin Energy  =      -1.7562202953710635 [Eh]
	 SCS Correlation Energy    =      -1.9047113723475524 [Eh]
	 SCS Total Energy          =    -441.0422855040820878 [Eh]
	-----------------------------------------------------------

  Dipole Moment: [D]
     X:    -0.5965      Y:    -2.8777      Z:    -0.4620     Total:     2.9750

*** Psi4 exiting successfully. Buy a developer a beer!
