                               Psi4 1.3.2 release

  ==> Input File <==

--------------------------------------------------------------------------
#psi4
#
memory 32 gb

molecule  {
0 1
  O       -2.8968130    -0.3474360    -0.2563530
  O       -0.5825960    -1.5131530     0.0834280
  N        0.6646380     0.3451110    -0.3514860
  C        1.9521820    -0.3066060    -0.1296730
  C       -1.7875910     0.5207530    -0.3412920
  C        2.3087340    -0.3110910     1.3526080
  C        3.0072020     0.3769410    -0.9846900
  C       -0.5092170    -0.3043550    -0.1811720
  C       -1.8991130     1.5929580     0.7362800
  H        1.8182130    -1.3395260    -0.4626630
  H        0.6508110     1.3528600    -0.4628320
  H       -1.7688680     0.9937940    -1.3356380
  H        2.4085440     0.7136460     1.7243230
  H        1.5276200    -0.8195050     1.9221530
  H        3.2560570    -0.8319740     1.5215790
  H        3.1304270     1.4235350    -0.6835410
  H        2.7315590     0.3479870    -2.0412990
  H        3.9738610    -0.1182480    -0.8633910
  H       -1.8420940     1.1254490     1.7220580
  H       -2.8670940     2.0889060     0.6442650
  H       -1.1140830     2.3514110     0.6543310
  H       -2.5799741    -1.0517062    -0.1269084
units angstrom
no_reorient  #important for SAPT in psi4, default
symmetry c1  #important for SAPT in psi4, default
}

set PROPERTIES_ORIGIN ["COM"]
properties('MP2/aug-cc-pvtz', properties = ['dipole'])
--------------------------------------------------------------------------

    Molecular point group: c1
  Charge       = 0
  Multiplicity = 1
  Basis Set: AUG-CC-PVTZ
    Blend: AUG-CC-PVTZ
  Basis Set: (AUG-CC-PVTZ AUX)
    Blend: AUG-CC-PVTZ-JKFIT

    Orbital Energies [Eh]
    ---------------------

    Doubly Occupied:

       1A    -20.535148     2A    -20.528843     3A    -15.594800
       4A    -11.357750     5A    -11.301109     6A    -11.276650
       7A    -11.232908     8A    -11.231921     9A    -11.221661
      10A     -1.428353    11A     -1.373838    12A     -1.246731
      13A     -1.075521    14A     -1.033359    15A     -0.949334
      16A     -0.898313    17A     -0.831563    18A     -0.798113
      19A     -0.758546    20A     -0.684853    21A     -0.655633
      22A     -0.634450    23A     -0.629094    24A     -0.596709
      25A     -0.586990    26A     -0.576572    27A     -0.555031
      28A     -0.550239    29A     -0.542371    30A     -0.532718
      31A     -0.523713    32A     -0.501978    33A     -0.491156
      34A     -0.454516    35A     -0.430761    36A     -0.400007

  @DF-RHF Final Energy:  -439.09636334112304

   => Energetics <=

    Nuclear Repulsion Energy =            486.4667328988119266
    One-Electron Energy =               -1563.0836887900404690
    Two-Electron Energy =                 637.5205925501055617
    Total Energy =                       -439.0963633411230376
  Basis Set: (AUG-CC-PVTZ AUX)
    Blend: AUG-CC-PVTZ-RI
    Molecular point group: c1

    Geometry (in Angstrom), charge = 0, multiplicity = 1:

       Center              X                  Y                   Z               Mass
    ------------   -----------------  -----------------  -----------------  -----------------
         O           -2.896190826370    -0.348818843057    -0.256098801237    15.994914619570
         O           -0.581973826370    -1.514535843057     0.083682198763    15.994914619570
         N            0.665260173630     0.343728156943    -0.351231801237    14.003074004430
         C            1.952804173630    -0.307988843057    -0.129418801237    12.000000000000
         C           -1.786968826370     0.519370156943    -0.341037801237    12.000000000000
         C            2.309356173630    -0.312473843057     1.352862198763    12.000000000000
         C            3.007824173630     0.375558156943    -0.984435801237    12.000000000000
         C           -0.508594826370    -0.305737843057    -0.180917801237    12.000000000000
         C           -1.898490826370     1.591575156943     0.736534198763    12.000000000000
         H            1.818835173630    -1.340908843057    -0.462408801237     1.007825032230
         H            0.651433173630     1.351477156943    -0.462577801237     1.007825032230
         H           -1.768245826370     0.992411156943    -1.335383801237     1.007825032230
         H            2.409166173630     0.712263156943     1.724577198763     1.007825032230
         H            1.528242173630    -0.820887843057     1.922407198763     1.007825032230
         H            3.256679173630    -0.833356843057     1.521833198763     1.007825032230
         H            3.131049173630     1.422152156943    -0.683286801237     1.007825032230
         H            2.732181173630     0.346604156943    -2.041044801237     1.007825032230
         H            3.974483173630    -0.119630843057    -0.863136801237     1.007825032230
         H           -1.841471826370     1.124066156943     1.722312198763     1.007825032230
         H           -2.866471826370     2.087523156943     0.644519198763     1.007825032230
         H           -1.113460826370     2.350028156943     0.654585198763     1.007825032230
         H           -2.579351926370    -1.053089043057    -0.126654201237     1.007825032230

  Basis Set: AUG-CC-PVTZ
    Blend: AUG-CC-PVTZ
  Basis Set: (AUG-CC-PVTZ AUX)
    Blend: AUG-CC-PVTZ-JKFIT
	 Reference Energy          =    -439.0963633411230376 [Eh]
	 Singles Energy            =      -0.0000000000000000 [Eh]
	 Same-Spin Energy          =      -0.4431170829052764 [Eh]
	 Opposite-Spin Energy      =      -1.4581032165740511 [Eh]
	 Correlation Energy        =      -1.9012202994793275 [Eh]
	 Total Energy              =    -440.9975836406023859 [Eh]

	 ================> DF-SCS-MP2 Energies <==================
	-----------------------------------------------------------
	 SCS Same-Spin Scale       =       0.3333333333333333 [-]
	 SCS Opposite-Spin Scale   =       1.2000000000000000 [-]
	 SCS Same-Spin Energy      =      -0.1477056943017588 [Eh]
	 SCS Opposite-Spin Energy  =      -1.7497238598888611 [Eh]
	 SCS Correlation Energy    =      -1.8974295541906199 [Eh]
	 SCS Total Energy          =    -440.9937928953136748 [Eh]
	-----------------------------------------------------------

  Dipole Moment: [D]
     X:     3.3926      Y:     3.1417      Z:    -0.2623     Total:     4.6313

*** Psi4 exiting successfully. Buy a developer a beer!
