                               Psi4 1.4a3.dev225

  ==> Input File <==

--------------------------------------------------------------------------
#psi4
#
memory 32 gb

molecule  {
0 1
  O       -1.7446660    -1.3796590    -0.7880960
  O       -0.4296620     1.7569970     0.2600660
  N        0.4723820    -0.3330750    -0.0012650
  C        1.8394770     0.0732600     0.3013020
  C       -1.9099390    -0.0103690    -0.3967440
  C        2.4958720     0.7244850    -0.9128940
  C        2.6145980    -1.1365250     0.8043010
  C       -0.5442740     0.5588710    -0.0269710
  C       -2.8608870     0.1360220     0.7815810
  H        1.7638430     0.8203410     1.0982830
  H        0.2711498    -1.2916262    -0.3327699
  H       -2.2722210     0.5864250    -1.2458220
  H        2.5570320     0.0100450    -1.7401110
  H        1.9072700     1.5874400    -1.2316560
  H        3.5085800     1.0627310    -0.6705710
  H        2.6773940    -1.9046250     0.0252330
  H        2.1327900    -1.5715010     1.6841320
  H        3.6348850    -0.8497170     1.0733550
  H       -2.5011890    -0.4705790     1.6169940
  H       -3.8694610    -0.1962540     0.5126420
  H       -2.9055320     1.1820880     1.0905810
  H       -2.6295620    -1.7449530    -0.9570530
units angstrom
no_reorient  #important for SAPT in psi4, default
symmetry c1  #important for SAPT in psi4, default
}

set PROPERTIES_ORIGIN ["COM"]
properties('MP2/aug-cc-pvtz', properties = ['dipole'])
--------------------------------------------------------------------------

    Molecular point group: c1
  Charge       = 0
  Multiplicity = 1
  Basis Set: AUG-CC-PVTZ
    Blend: AUG-CC-PVTZ
  Basis Set: (AUG-CC-PVTZ AUX)
    Blend: AUG-CC-PVTZ-JKFIT

    Orbital Energies [Eh]
    ---------------------

    Doubly Occupied:

       1A    -20.581143     2A    -20.509156     3A    -15.577135
       4A    -11.342803     5A    -11.301013     6A    -11.263838
       7A    -11.228915     8A    -11.221233     9A    -11.209157
      10A     -1.387832    11A     -1.358578    12A     -1.225676
      13A     -1.057302    14A     -1.028026    15A     -0.936973
      16A     -0.897013    17A     -0.813274    18A     -0.773727
      19A     -0.712359    20A     -0.690056    21A     -0.644119
      22A     -0.639991    23A     -0.613989    24A     -0.593837
      25A     -0.577922    26A     -0.563155    27A     -0.551268
      28A     -0.542259    29A     -0.525741    30A     -0.520436
      31A     -0.516851    32A     -0.490891    33A     -0.479938
      34A     -0.459189    35A     -0.413495    36A     -0.382066

  @DF-RHF Final Energy:  -439.13678814145726

   => Energetics <=

    Nuclear Repulsion Energy =            485.8128731443549668
    One-Electron Energy =               -1562.6386105850474451
    Two-Electron Energy =                 637.6889492992353325
    Total Energy =                       -439.1367881414572594
  Basis Set: (AUG-CC-PVTZ AUX)
    Blend: AUG-CC-PVTZ-RI
    Molecular point group: c1

    Geometry (in Angstrom), charge = 0, multiplicity = 1:

       Center              X                  Y                   Z               Mass
    ------------   -----------------  -----------------  -----------------  -----------------
         O           -1.712347391626    -1.400395188871    -0.781031277329    15.994914619570
         O           -0.397343391626     1.736260811129     0.267130722671    15.994914619570
         N            0.504700608374    -0.353811188871     0.005799722671    14.003074004430
         C            1.871795608374     0.052523811129     0.308366722671    12.000000000000
         C           -1.877620391626    -0.031105188871    -0.389679277329    12.000000000000
         C            2.528190608374     0.703748811129    -0.905829277329    12.000000000000
         C            2.646916608374    -1.157261188871     0.811365722671    12.000000000000
         C           -0.511955391626     0.538134811129    -0.019906277329    12.000000000000
         C           -2.828568391626     0.115285811129     0.788645722671    12.000000000000
         H            1.796161608374     0.799604811129     1.105347722671     1.007825032230
         H            0.303468408374    -1.312362388871    -0.325705177329     1.007825032230
         H           -2.239902391626     0.565688811129    -1.238757277329     1.007825032230
         H            2.589350608374    -0.010691188871    -1.733046277329     1.007825032230
         H            1.939588608374     1.566703811129    -1.224591277329     1.007825032230
         H            3.540898608374     1.041994811129    -0.663506277329     1.007825032230
         H            2.709712608374    -1.925361188871     0.032297722671     1.007825032230
         H            2.165108608374    -1.592237188871     1.691196722671     1.007825032230
         H            3.667203608374    -0.870453188871     1.080419722671     1.007825032230
         H           -2.468870391626    -0.491315188871     1.624058722671     1.007825032230
         H           -3.837142391626    -0.216990188871     0.519706722671     1.007825032230
         H           -2.873213391626     1.161351811129     1.097645722671     1.007825032230
         H           -2.597243391626    -1.765689188871    -0.949988277329     1.007825032230

  Basis Set: AUG-CC-PVTZ
    Blend: AUG-CC-PVTZ
  Basis Set: (AUG-CC-PVTZ AUX)
    Blend: AUG-CC-PVTZ-JKFIT
	 Reference Energy          =    -439.1367881414572594 [Eh]
	 Singles Energy            =      -0.0000000000000000 [Eh]
	 Same-Spin Energy          =      -0.4457060466859436 [Eh]
	 Opposite-Spin Energy      =      -1.4638770245380286 [Eh]
	 Correlation Energy        =      -1.9095830712239721 [Eh]
	 Total Energy              =    -441.0463712126812084 [Eh]

	 ================> DF-SCS-MP2 Energies <==================
	-----------------------------------------------------------
	 SCS Same-Spin Scale       =       0.3333333333333333 [-]
	 SCS Opposite-Spin Scale   =       1.2000000000000000 [-]
	 SCS Same-Spin Energy      =      -0.1485686822286479 [Eh]
	 SCS Opposite-Spin Energy  =      -1.7566524294456343 [Eh]
	 SCS Correlation Energy    =      -1.9052211116742821 [Eh]
	 SCS Total Energy          =    -441.0420092531315390 [Eh]
	-----------------------------------------------------------

  Dipole Moment: [D]
     X:    -0.6768      Y:    -2.8958      Z:    -0.4703     Total:     3.0108

*** Psi4 exiting successfully. Buy a developer a beer!
