                               Psi4 1.3.2 release

  ==> Input File <==

--------------------------------------------------------------------------
#psi4
#
memory 32 gb

molecule  {
0 1
  O       -2.8999554    -0.3444618    -0.2678824
  O       -0.5825960    -1.5131530     0.0834280
  N        0.6646380     0.3451110    -0.3514860
  C        1.9521820    -0.3066060    -0.1296730
  C       -1.7875910     0.5207530    -0.3412920
  C        2.3087340    -0.3110910     1.3526080
  C        3.0072020     0.3769410    -0.9846900
  C       -0.5092170    -0.3043550    -0.1811720
  C       -1.8991130     1.5929580     0.7362800
  H        1.8182130    -1.3395260    -0.4626630
  H        0.6508110     1.3528600    -0.4628320
  H       -1.7768196     0.9889606    -1.3380407
  H        2.4085440     0.7136460     1.7243230
  H        1.5276200    -0.8195050     1.9221530
  H        3.2560570    -0.8319740     1.5215790
  H        3.1304270     1.4235350    -0.6835410
  H        2.7315590     0.3479870    -2.0412990
  H        3.9738610    -0.1182480    -0.8633910
  H       -1.8420940     1.1254490     1.7220580
  H       -2.8670940     2.0889060     0.6442650
  H       -1.1140830     2.3514110     0.6543310
  H       -2.4990480    -1.2315890    -0.0938460
units angstrom
no_reorient  #important for SAPT in psi4, default
symmetry c1  #important for SAPT in psi4, default
}

set PROPERTIES_ORIGIN ["COM"]
properties('MP2/aug-cc-pvtz', properties = ['dipole'])
--------------------------------------------------------------------------

    Molecular point group: c1
  Charge       = 0
  Multiplicity = 1
  Basis Set: AUG-CC-PVTZ
    Blend: AUG-CC-PVTZ
  Basis Set: (AUG-CC-PVTZ AUX)
    Blend: AUG-CC-PVTZ-JKFIT

    Orbital Energies [Eh]
    ---------------------

    Doubly Occupied:

       1A    -20.548054     2A    -20.532756     3A    -15.595864
       4A    -11.358521     5A    -11.297073     6A    -11.277313
       7A    -11.232378     8A    -11.230882     9A    -11.222331
      10A     -1.397032    11A     -1.345000    12A     -1.248100
      13A     -1.072203    14A     -1.023598    15A     -0.949928
      16A     -0.894937    17A     -0.822303    18A     -0.795020
      19A     -0.736266    20A     -0.678220    21A     -0.648715
      22A     -0.632379    23A     -0.628893    24A     -0.597202
      25A     -0.581641    26A     -0.567626    27A     -0.555167
      28A     -0.548187    29A     -0.539172    30A     -0.530148
      31A     -0.512428    32A     -0.502865    33A     -0.491630
      34A     -0.444429    35A     -0.434626    36A     -0.401579

  @DF-RHF Final Energy:  -439.13741452120649

   => Energetics <=

    Nuclear Repulsion Energy =            485.1940999986510974
    One-Electron Energy =               -1560.9141035212192037
    Two-Electron Energy =                 636.5825890013616117
    Total Energy =                       -439.1374145212064377
  Basis Set: (AUG-CC-PVTZ AUX)
    Blend: AUG-CC-PVTZ-RI
    Molecular point group: c1

    Geometry (in Angstrom), charge = 0, multiplicity = 1:

       Center              X                  Y                   Z               Mass
    ------------   -----------------  -----------------  -----------------  -----------------
         O           -2.899510831726    -0.344787471328    -0.266457198603    15.994914619570
         O           -0.582151431726    -1.513478671328     0.084853201397    15.994914619570
         N            0.665082568274     0.344785328672    -0.350060798603    14.003074004430
         C            1.952626568274    -0.306931671328    -0.128247798603    12.000000000000
         C           -1.787146431726     0.520427328672    -0.339866798603    12.000000000000
         C            2.309178568274    -0.311416671328     1.354033201397    12.000000000000
         C            3.007646568274     0.376615328672    -0.983264798603    12.000000000000
         C           -0.508772431726    -0.304680671328    -0.179746798603    12.000000000000
         C           -1.898668431726     1.592632328672     0.737705201397    12.000000000000
         H            1.818657568274    -1.339851671328    -0.461237798603     1.007825032230
         H            0.651255568274     1.352534328672    -0.461406798603     1.007825032230
         H           -1.776375031726     0.988634928672    -1.336615498603     1.007825032230
         H            2.408988568274     0.713320328672     1.725748201397     1.007825032230
         H            1.528064568274    -0.819830671328     1.923578201397     1.007825032230
         H            3.256501568274    -0.832299671328     1.523004201397     1.007825032230
         H            3.130871568274     1.423209328672    -0.682115798603     1.007825032230
         H            2.732003568274     0.347661328672    -2.039873798603     1.007825032230
         H            3.974305568274    -0.118573671328    -0.861965798603     1.007825032230
         H           -1.841649431726     1.125123328672     1.723483201397     1.007825032230
         H           -2.866649431726     2.088580328672     0.645690201397     1.007825032230
         H           -1.113638431726     2.351085328672     0.655756201397     1.007825032230
         H           -2.498603431726    -1.231914671328    -0.092420798603     1.007825032230

  Basis Set: AUG-CC-PVTZ
    Blend: AUG-CC-PVTZ
  Basis Set: (AUG-CC-PVTZ AUX)
    Blend: AUG-CC-PVTZ-JKFIT
	 Reference Energy          =    -439.1374145212064946 [Eh]
	 Singles Energy            =      -0.0000000000000000 [Eh]
	 Same-Spin Energy          =      -0.4461112140163726 [Eh]
	 Opposite-Spin Energy      =      -1.4638477106290968 [Eh]
	 Correlation Energy        =      -1.9099589246454693 [Eh]
	 Total Energy              =    -441.0473734458519743 [Eh]

	 ================> DF-SCS-MP2 Energies <==================
	-----------------------------------------------------------
	 SCS Same-Spin Scale       =       0.3333333333333333 [-]
	 SCS Opposite-Spin Scale   =       1.2000000000000000 [-]
	 SCS Same-Spin Energy      =      -0.1487037380054575 [Eh]
	 SCS Opposite-Spin Energy  =      -1.7566172527549162 [Eh]
	 SCS Correlation Energy    =      -1.9053209907603736 [Eh]
	 SCS Total Energy          =    -441.0427355119668960 [Eh]
	-----------------------------------------------------------

  Dipole Moment: [D]
     X:     3.5889      Y:     2.9137      Z:    -0.2022     Total:     4.6272

*** Psi4 exiting successfully. Buy a developer a beer!
