                               Psi4 1.3.2 release

  ==> Input File <==

--------------------------------------------------------------------------
#psi4
#
memory 32 gb

molecule  {
0 1
  O       -2.8968130    -0.3474360    -0.2563530
  O       -0.5393787    -1.5151422     0.0827881
  N        0.6873274     0.3045511    -0.3432317
  C        1.9521820    -0.3066060    -0.1296730
  C       -1.7875910     0.5207530    -0.3412920
  C        2.3087340    -0.3110910     1.3526080
  C        3.0072020     0.3769410    -0.9846900
  C       -0.5092170    -0.3043550    -0.1811720
  C       -1.8991130     1.5929580     0.7362800
  H        1.8182130    -1.3395260    -0.4626630
  H        0.6508110     1.3528600    -0.4628320
  H       -1.7688680     0.9937940    -1.3356380
  H        2.4085440     0.7136460     1.7243230
  H        1.5276200    -0.8195050     1.9221530
  H        3.2560570    -0.8319740     1.5215790
  H        3.1304270     1.4235350    -0.6835410
  H        2.7315590     0.3479870    -2.0412990
  H        3.9738610    -0.1182480    -0.8633910
  H       -1.8420940     1.1254490     1.7220580
  H       -2.8670940     2.0889060     0.6442650
  H       -1.1140830     2.3514110     0.6543310
  H       -2.4990480    -1.2315890    -0.0938460
units angstrom
no_reorient  #important for SAPT in psi4, default
symmetry c1  #important for SAPT in psi4, default
}

set PROPERTIES_ORIGIN ["COM"]
properties('MP2/aug-cc-pvtz', properties = ['dipole'])
--------------------------------------------------------------------------

    Molecular point group: c1
  Charge       = 0
  Multiplicity = 1
  Basis Set: AUG-CC-PVTZ
    Blend: AUG-CC-PVTZ
  Basis Set: (AUG-CC-PVTZ AUX)
    Blend: AUG-CC-PVTZ-JKFIT

    Orbital Energies [Eh]
    ---------------------

    Doubly Occupied:

       1A    -20.552274     2A    -20.529902     3A    -15.595934
       4A    -11.357988     5A    -11.302362     6A    -11.272224
       7A    -11.233015     8A    -11.230871     9A    -11.219658
      10A     -1.397989    11A     -1.350324    12A     -1.247587
      13A     -1.071329    14A     -1.025166    15A     -0.948323
      16A     -0.898538    17A     -0.826420    18A     -0.784090
      19A     -0.739310    20A     -0.679551    21A     -0.650454
      22A     -0.631133    23A     -0.629699    24A     -0.592632
      25A     -0.583469    26A     -0.569293    27A     -0.553475
      28A     -0.549599    29A     -0.540254    30A     -0.530395
      31A     -0.515300    32A     -0.501756    33A     -0.488425
      34A     -0.447960    35A     -0.435672    36A     -0.395744

  @DF-RHF Final Energy:  -439.13266724847858

   => Energetics <=

    Nuclear Repulsion Energy =            485.8093183705668139
    One-Electron Energy =               -1562.1277421306542692
    Two-Electron Energy =                 637.1857565116088153
    Total Energy =                       -439.1326672484785831
  Basis Set: (AUG-CC-PVTZ AUX)
    Blend: AUG-CC-PVTZ-RI
    Molecular point group: c1

    Geometry (in Angstrom), charge = 0, multiplicity = 1:

       Center              X                  Y                   Z               Mass
    ------------   -----------------  -----------------  -----------------  -----------------
         O           -2.904509532723    -0.342860774735    -0.257156598522    15.994914619570
         O           -0.547075232723    -1.510566974735     0.081984501478    15.994914619570
         N            0.679630867277     0.309126325265    -0.344035298522    14.003074004430
         C            1.944485467277    -0.302030774735    -0.130476598522    12.000000000000
         C           -1.795287532723     0.525328225265    -0.342095598522    12.000000000000
         C            2.301037467277    -0.306515774735     1.351804401478    12.000000000000
         C            2.999505467277     0.381516225265    -0.985493598522    12.000000000000
         C           -0.516913532723    -0.299779774735    -0.181975598522    12.000000000000
         C           -1.906809532723     1.597533225265     0.735476401478    12.000000000000
         H            1.810516467277    -1.334950774735    -0.463466598522     1.007825032230
         H            0.643114467277     1.357435225265    -0.463635598522     1.007825032230
         H           -1.776564532723     0.998369225265    -1.336441598522     1.007825032230
         H            2.400847467277     0.718221225265     1.723519401478     1.007825032230
         H            1.519923467277    -0.814929774735     1.921349401478     1.007825032230
         H            3.248360467277    -0.827398774735     1.520775401478     1.007825032230
         H            3.122730467277     1.428110225265    -0.684344598522     1.007825032230
         H            2.723862467277     0.352562225265    -2.042102598522     1.007825032230
         H            3.966164467277    -0.113672774735    -0.864194598522     1.007825032230
         H           -1.849790532723     1.130024225265     1.721254401478     1.007825032230
         H           -2.874790532723     2.093481225265     0.643461401478     1.007825032230
         H           -1.121779532723     2.355986225265     0.653527401478     1.007825032230
         H           -2.506744532723    -1.227013774735    -0.094649598522     1.007825032230

  Basis Set: AUG-CC-PVTZ
    Blend: AUG-CC-PVTZ
  Basis Set: (AUG-CC-PVTZ AUX)
    Blend: AUG-CC-PVTZ-JKFIT
	 Reference Energy          =    -439.1326672484785831 [Eh]
	 Singles Energy            =      -0.0000000000000000 [Eh]
	 Same-Spin Energy          =      -0.4466272944320151 [Eh]
	 Opposite-Spin Energy      =      -1.4645156746443182 [Eh]
	 Correlation Energy        =      -1.9111429690763333 [Eh]
	 Total Energy              =    -441.0438102175548920 [Eh]

	 ================> DF-SCS-MP2 Energies <==================
	-----------------------------------------------------------
	 SCS Same-Spin Scale       =       0.3333333333333333 [-]
	 SCS Opposite-Spin Scale   =       1.2000000000000000 [-]
	 SCS Same-Spin Energy      =      -0.1488757648106717 [Eh]
	 SCS Opposite-Spin Energy  =      -1.7574188095731818 [Eh]
	 SCS Correlation Energy    =      -1.9062945743838535 [Eh]
	 SCS Total Energy          =    -441.0389618228624613 [Eh]
	-----------------------------------------------------------

  Dipole Moment: [D]
     X:     3.3205      Y:     2.9884      Z:    -0.2499     Total:     4.4742

*** Psi4 exiting successfully. Buy a developer a beer!
