                               Psi4 1.3.2 release

  ==> Input File <==

--------------------------------------------------------------------------
#psi4
#
memory 32 gb

molecule  {
0 1
  O       -2.8968130    -0.3474360    -0.2563530
  O       -0.5825960    -1.5131530     0.0834280
  N        0.6646380     0.3451110    -0.3514860
  C        1.9746891    -0.2609427    -0.1320079
  C       -1.7875910     0.5207530    -0.3412920
  C        2.3087340    -0.3110910     1.3526080
  C        3.0072020     0.3769410    -0.9846900
  C       -0.5092170    -0.3043550    -0.1811720
  C       -1.8991130     1.5929580     0.7362800
  H        1.8182130    -1.3395260    -0.4626630
  H        0.6859657     1.3531722    -0.4587472
  H       -1.7688680     0.9937940    -1.3356380
  H        2.4085440     0.7136460     1.7243230
  H        1.5276200    -0.8195050     1.9221530
  H        3.2560570    -0.8319740     1.5215790
  H        3.1304270     1.4235350    -0.6835410
  H        2.7315590     0.3479870    -2.0412990
  H        3.9738610    -0.1182480    -0.8633910
  H       -1.8420940     1.1254490     1.7220580
  H       -2.8670940     2.0889060     0.6442650
  H       -1.1140830     2.3514110     0.6543310
  H       -2.4990480    -1.2315890    -0.0938460
units angstrom
no_reorient  #important for SAPT in psi4, default
symmetry c1  #important for SAPT in psi4, default
}

set PROPERTIES_ORIGIN ["COM"]
properties('MP2/aug-cc-pvtz', properties = ['dipole'])
--------------------------------------------------------------------------

    Molecular point group: c1
  Charge       = 0
  Multiplicity = 1
  Basis Set: AUG-CC-PVTZ
    Blend: AUG-CC-PVTZ
  Basis Set: (AUG-CC-PVTZ AUX)
    Blend: AUG-CC-PVTZ-JKFIT

    Orbital Energies [Eh]
    ---------------------

    Doubly Occupied:

       1A    -20.547848     2A    -20.532976     3A    -15.595931
       4A    -11.359883     5A    -11.297483     6A    -11.278265
       7A    -11.232198     8A    -11.230452     9A    -11.222659
      10A     -1.397233    11A     -1.345775    12A     -1.248614
      13A     -1.075902    14A     -1.024907    15A     -0.953665
      16A     -0.895887    17A     -0.818356    18A     -0.795354
      19A     -0.736796    20A     -0.676687    21A     -0.647910
      22A     -0.633847    23A     -0.631771    24A     -0.597798
      25A     -0.583242    26A     -0.567985    27A     -0.555297
      28A     -0.548379    29A     -0.539790    30A     -0.529531
      31A     -0.512198    32A     -0.510215    33A     -0.479746
      34A     -0.444830    35A     -0.434785    36A     -0.401169

  @DF-RHF Final Energy:  -439.13351419535013

   => Energetics <=

    Nuclear Repulsion Energy =            485.3456257094572379
    One-Electron Energy =               -1561.1875490426541546
    Two-Electron Energy =                 636.7084091378468429
    Total Energy =                       -439.1335141953501306
  Basis Set: (AUG-CC-PVTZ AUX)
    Blend: AUG-CC-PVTZ-RI
    Molecular point group: c1

    Geometry (in Angstrom), charge = 0, multiplicity = 1:

       Center              X                  Y                   Z               Mass
    ------------   -----------------  -----------------  -----------------  -----------------
         O           -2.899143459441    -0.351618224374    -0.256170650695    15.994914619570
         O           -0.584926459441    -1.517335224374     0.083610349305    15.994914619570
         N            0.662307540559     0.340928775626    -0.351303650695    14.003074004430
         C            1.972358640559    -0.265124924374    -0.131825550695    12.000000000000
         C           -1.789921459441     0.516570775626    -0.341109650695    12.000000000000
         C            2.306403540559    -0.315273224374     1.352790349305    12.000000000000
         C            3.004871540559     0.372758775626    -0.984507650695    12.000000000000
         C           -0.511547459441    -0.308537224374    -0.180989650695    12.000000000000
         C           -1.901443459441     1.588775775626     0.736462349305    12.000000000000
         H            1.815882540559    -1.343708224374    -0.462480650695     1.007825032230
         H            0.683635240559     1.348989975626    -0.458564850695     1.007825032230
         H           -1.771198459441     0.989611775626    -1.335455650695     1.007825032230
         H            2.406213540559     0.709463775626     1.724505349305     1.007825032230
         H            1.525289540559    -0.823687224374     1.922335349305     1.007825032230
         H            3.253726540559    -0.836156224374     1.521761349305     1.007825032230
         H            3.128096540559     1.419352775626    -0.683358650695     1.007825032230
         H            2.729228540559     0.343804775626    -2.041116650695     1.007825032230
         H            3.971530540559    -0.122430224374    -0.863208650695     1.007825032230
         H           -1.844424459441     1.121266775626     1.722240349305     1.007825032230
         H           -2.869424459441     2.084723775626     0.644447349305     1.007825032230
         H           -1.116413459441     2.347228775626     0.654513349305     1.007825032230
         H           -2.501378459441    -1.235771224374    -0.093663650695     1.007825032230

  Basis Set: AUG-CC-PVTZ
    Blend: AUG-CC-PVTZ
  Basis Set: (AUG-CC-PVTZ AUX)
    Blend: AUG-CC-PVTZ-JKFIT
	 Reference Energy          =    -439.1335141953501306 [Eh]
	 Singles Energy            =      -0.0000000000000000 [Eh]
	 Same-Spin Energy          =      -0.4464919418932345 [Eh]
	 Opposite-Spin Energy      =      -1.4643302168746597 [Eh]
	 Correlation Energy        =      -1.9108221587678942 [Eh]
	 Total Energy              =    -441.0443363541180020 [Eh]

	 ================> DF-SCS-MP2 Energies <==================
	-----------------------------------------------------------
	 SCS Same-Spin Scale       =       0.3333333333333333 [-]
	 SCS Opposite-Spin Scale   =       1.2000000000000000 [-]
	 SCS Same-Spin Energy      =      -0.1488306472977448 [Eh]
	 SCS Opposite-Spin Energy  =      -1.7571962602495916 [Eh]
	 SCS Correlation Energy    =      -1.9060269075473364 [Eh]
	 SCS Total Energy          =    -441.0395411028974877 [Eh]
	-----------------------------------------------------------

  Dipole Moment: [D]
     X:     3.6184      Y:     2.9304      Z:    -0.2351     Total:     4.6622

*** Psi4 exiting successfully. Buy a developer a beer!
