                               Psi4 1.3.2 release

  ==> Input File <==

--------------------------------------------------------------------------
#psi4
#
memory 32 gb

molecule  {
0 1
  O       -2.8968130    -0.3474360    -0.2563530
  O       -0.5393709    -1.5150577     0.0831764
  N        0.6646380     0.3451110    -0.3514860
  C        1.9521820    -0.3066060    -0.1296730
  C       -1.7574902     0.5637524    -0.3511284
  C        2.3087340    -0.3110910     1.3526080
  C        3.0072020     0.3769410    -0.9846900
  C       -0.5092170    -0.3043550    -0.1811720
  C       -1.8991130     1.5929580     0.7362800
  H        1.8182130    -1.3395260    -0.4626630
  H        0.6508110     1.3528600    -0.4628320
  H       -1.7688680     0.9937940    -1.3356380
  H        2.4085440     0.7136460     1.7243230
  H        1.5276200    -0.8195050     1.9221530
  H        3.2560570    -0.8319740     1.5215790
  H        3.1304270     1.4235350    -0.6835410
  H        2.7315590     0.3479870    -2.0412990
  H        3.9738610    -0.1182480    -0.8633910
  H       -1.8420940     1.1254490     1.7220580
  H       -2.8670940     2.0889060     0.6442650
  H       -1.1140830     2.3514110     0.6543310
  H       -2.4990480    -1.2315890    -0.0938460
units angstrom
no_reorient  #important for SAPT in psi4, default
symmetry c1  #important for SAPT in psi4, default
}

set PROPERTIES_ORIGIN ["COM"]
properties('MP2/aug-cc-pvtz', properties = ['dipole'])
--------------------------------------------------------------------------

    Molecular point group: c1
  Charge       = 0
  Multiplicity = 1
  Basis Set: AUG-CC-PVTZ
    Blend: AUG-CC-PVTZ
  Basis Set: (AUG-CC-PVTZ AUX)
    Blend: AUG-CC-PVTZ-JKFIT

    Orbital Energies [Eh]
    ---------------------

    Doubly Occupied:

       1A    -20.545125     2A    -20.532680     3A    -15.593813
       4A    -11.359479     5A    -11.299312     6A    -11.275696
       7A    -11.233197     8A    -11.231498     9A    -11.221432
      10A     -1.393594    11A     -1.331610    12A     -1.246130
      13A     -1.074371    14A     -1.029516    15A     -0.948981
      16A     -0.898175    17A     -0.822053    18A     -0.794688
      19A     -0.731080    20A     -0.677713    21A     -0.649382
      22A     -0.631657    23A     -0.627488    24A     -0.596625
      25A     -0.579812    26A     -0.568378    27A     -0.554063
      28A     -0.548830    29A     -0.534679    30A     -0.531037
      31A     -0.510252    32A     -0.501862    33A     -0.489953
      34A     -0.451017    35A     -0.436143    36A     -0.400332

  @DF-RHF Final Energy:  -439.13326999088923

   => Energetics <=

    Nuclear Repulsion Energy =            485.0863118394497633
    One-Electron Energy =               -1560.7358579882468348
    Two-Electron Energy =                 636.5162761579077824
    Total Energy =                       -439.1332699908892891
  Basis Set: (AUG-CC-PVTZ AUX)
    Blend: AUG-CC-PVTZ-RI
    Molecular point group: c1

    Geometry (in Angstrom), charge = 0, multiplicity = 1:

       Center              X                  Y                   Z               Mass
    ------------   -----------------  -----------------  -----------------  -----------------
         O           -2.904842216170    -0.351139585718    -0.255421885584    15.994914619570
         O           -0.547400116170    -1.518761285718     0.084107514416    15.994914619570
         N            0.656608783830     0.341407414282    -0.350554885584    14.003074004430
         C            1.944152783830    -0.310309585718    -0.128741885584    12.000000000000
         C           -1.765519416170     0.560048814282    -0.350197285584    12.000000000000
         C            2.300704783830    -0.314794585718     1.353539114416    12.000000000000
         C            2.999172783830     0.373237414282    -0.983758885584    12.000000000000
         C           -0.517246216170    -0.308058585718    -0.180240885584    12.000000000000
         C           -1.907142216170     1.589254414282     0.737211114416    12.000000000000
         H            1.810183783830    -1.343229585718    -0.461731885584     1.007825032230
         H            0.642781783830     1.349156414282    -0.461900885584     1.007825032230
         H           -1.776897216170     0.990090414282    -1.334706885584     1.007825032230
         H            2.400514783830     0.709942414282     1.725254114416     1.007825032230
         H            1.519590783830    -0.823208585718     1.923084114416     1.007825032230
         H            3.248027783830    -0.835677585718     1.522510114416     1.007825032230
         H            3.122397783830     1.419831414282    -0.682609885584     1.007825032230
         H            2.723529783830     0.344283414282    -2.040367885584     1.007825032230
         H            3.965831783830    -0.121951585718    -0.862459885584     1.007825032230
         H           -1.850123216170     1.121745414282     1.722989114416     1.007825032230
         H           -2.875123216170     2.085202414282     0.645196114416     1.007825032230
         H           -1.122112216170     2.347707414282     0.655262114416     1.007825032230
         H           -2.507077216170    -1.235292585718    -0.092914885584     1.007825032230

  Basis Set: AUG-CC-PVTZ
    Blend: AUG-CC-PVTZ
  Basis Set: (AUG-CC-PVTZ AUX)
    Blend: AUG-CC-PVTZ-JKFIT
	 Reference Energy          =    -439.1332699908892323 [Eh]
	 Singles Energy            =      -0.0000000000000000 [Eh]
	 Same-Spin Energy          =      -0.4462758910782856 [Eh]
	 Opposite-Spin Energy      =      -1.4648986148630969 [Eh]
	 Correlation Energy        =      -1.9111745059413825 [Eh]
	 Total Energy              =    -441.0444444968306357 [Eh]

	 ================> DF-SCS-MP2 Energies <==================
	-----------------------------------------------------------
	 SCS Same-Spin Scale       =       0.3333333333333333 [-]
	 SCS Opposite-Spin Scale   =       1.2000000000000000 [-]
	 SCS Same-Spin Energy      =      -0.1487586303594285 [Eh]
	 SCS Opposite-Spin Energy  =      -1.7578783378357163 [Eh]
	 SCS Correlation Energy    =      -1.9066369681951449 [Eh]
	 SCS Total Energy          =    -441.0399069590843624 [Eh]
	-----------------------------------------------------------

  Dipole Moment: [D]
     X:     3.5326      Y:     3.0541      Z:    -0.2233     Total:     4.6751

*** Psi4 exiting successfully. Buy a developer a beer!
