                               Psi4 1.3.2 release

  ==> Input File <==

--------------------------------------------------------------------------
#psi4
#
memory 32 gb

molecule  {
0 1
  O       -2.8968130    -0.3474360    -0.2563530
  O       -0.5825960    -1.5131530     0.0834280
  N        0.6646380     0.3451110    -0.3514860
  C        1.9521820    -0.3066060    -0.1296730
  C       -1.7875910     0.5207530    -0.3412920
  C        2.3087340    -0.3110910     1.3526080
  C        3.0072020     0.3769410    -0.9846900
  C       -0.5092170    -0.3043550    -0.1811720
  C       -1.8996115     1.6480003     0.6785056
  H        1.8182130    -1.3395260    -0.4626630
  H        0.6508110     1.3528600    -0.4628320
  H       -1.7730223     1.0450897    -1.3096417
  H        2.4085440     0.7136460     1.7243230
  H        1.5276200    -0.8195050     1.9221530
  H        3.2560570    -0.8319740     1.5215790
  H        3.1304270     1.4235350    -0.6835410
  H        2.7315590     0.3479870    -2.0412990
  H        3.9738610    -0.1182480    -0.8633910
  H       -1.8420940     1.1254490     1.7220580
  H       -2.8670940     2.0889060     0.6442650
  H       -1.1140830     2.3514110     0.6543310
  H       -2.4990480    -1.2315890    -0.0938460
units angstrom
no_reorient  #important for SAPT in psi4, default
symmetry c1  #important for SAPT in psi4, default
}

set PROPERTIES_ORIGIN ["COM"]
properties('MP2/aug-cc-pvtz', properties = ['dipole'])
--------------------------------------------------------------------------

    Molecular point group: c1
  Charge       = 0
  Multiplicity = 1
  Basis Set: AUG-CC-PVTZ
    Blend: AUG-CC-PVTZ
  Basis Set: (AUG-CC-PVTZ AUX)
    Blend: AUG-CC-PVTZ-JKFIT

    Orbital Energies [Eh]
    ---------------------

    Doubly Occupied:

       1A    -20.549963     2A    -20.533369     3A    -15.596371
       4A    -11.359922     5A    -11.298129     6A    -11.277514
       7A    -11.232537     8A    -11.231264     9A    -11.222356
      10A     -1.397876    11A     -1.346564    12A     -1.248560
      13A     -1.072789    14A     -1.025576    15A     -0.950025
      16A     -0.895012    17A     -0.822540    18A     -0.795303
      19A     -0.737634    20A     -0.679408    21A     -0.649363
      22A     -0.634075    23A     -0.628863    24A     -0.599394
      25A     -0.583965    26A     -0.577659    27A     -0.555188
      28A     -0.552131    29A     -0.535751    30A     -0.519670
      31A     -0.510431    32A     -0.503077    33A     -0.492062
      34A     -0.441463    35A     -0.435792    36A     -0.401553

  @DF-RHF Final Energy:  -439.13025187324854

   => Energetics <=

    Nuclear Repulsion Energy =            485.0030793211151945
    One-Electron Energy =               -1560.4803605848787811
    Two-Electron Energy =                 636.3470293905151038
    Total Energy =                       -439.1302518732485396
  Basis Set: (AUG-CC-PVTZ AUX)
    Blend: AUG-CC-PVTZ-RI
    Molecular point group: c1

    Geometry (in Angstrom), charge = 0, multiplicity = 1:

       Center              X                  Y                   Z               Mass
    ------------   -----------------  -----------------  -----------------  -----------------
         O           -2.896735398963    -0.352868698548    -0.251264339519    15.994914619570
         O           -0.582518398963    -1.518585698548     0.088516660481    15.994914619570
         N            0.664715601037     0.339678301452    -0.346397339519    14.003074004430
         C            1.952259601037    -0.312038698548    -0.124584339519    12.000000000000
         C           -1.787513398963     0.515320301452    -0.336203339519    12.000000000000
         C            2.308811601037    -0.316523698548     1.357696660481    12.000000000000
         C            3.007279601037     0.371508301452    -0.979601339519    12.000000000000
         C           -0.509139398963    -0.309787698548    -0.176083339519    12.000000000000
         C           -1.899533898963     1.642567601452     0.683594260481    12.000000000000
         H            1.818290601037    -1.344958698548    -0.457574339519     1.007825032230
         H            0.650888601037     1.347427301452    -0.457743339519     1.007825032230
         H           -1.772944698963     1.039657001452    -1.304553039519     1.007825032230
         H            2.408621601037     0.708213301452     1.729411660481     1.007825032230
         H            1.527697601037    -0.824937698548     1.927241660481     1.007825032230
         H            3.256134601037    -0.837406698548     1.526667660481     1.007825032230
         H            3.130504601037     1.418102301452    -0.678452339519     1.007825032230
         H            2.731636601037     0.342554301452    -2.036210339519     1.007825032230
         H            3.973938601037    -0.123680698548    -0.858302339519     1.007825032230
         H           -1.842016398963     1.120016301452     1.727146660481     1.007825032230
         H           -2.867016398963     2.083473301452     0.649353660481     1.007825032230
         H           -1.114005398963     2.345978301452     0.659419660481     1.007825032230
         H           -2.498970398963    -1.237021698548    -0.088757339519     1.007825032230

  Basis Set: AUG-CC-PVTZ
    Blend: AUG-CC-PVTZ
  Basis Set: (AUG-CC-PVTZ AUX)
    Blend: AUG-CC-PVTZ-JKFIT
	 Reference Energy          =    -439.1302518732485396 [Eh]
	 Singles Energy            =      -0.0000000000000000 [Eh]
	 Same-Spin Energy          =      -0.4461787187585244 [Eh]
	 Opposite-Spin Energy      =      -1.4640391170791058 [Eh]
	 Correlation Energy        =      -1.9102178358376303 [Eh]
	 Total Energy              =    -441.0404697090861532 [Eh]

	 ================> DF-SCS-MP2 Energies <==================
	-----------------------------------------------------------
	 SCS Same-Spin Scale       =       0.3333333333333333 [-]
	 SCS Opposite-Spin Scale   =       1.2000000000000000 [-]
	 SCS Same-Spin Energy      =      -0.1487262395861748 [Eh]
	 SCS Opposite-Spin Energy  =      -1.7568469404949270 [Eh]
	 SCS Correlation Energy    =      -1.9055731800811018 [Eh]
	 SCS Total Energy          =    -441.0358250533296314 [Eh]
	-----------------------------------------------------------

  Dipole Moment: [D]
     X:     3.5875      Y:     2.9279      Z:    -0.2558     Total:     4.6377

*** Psi4 exiting successfully. Buy a developer a beer!
