                               Psi4 1.3.2 release

  ==> Input File <==

--------------------------------------------------------------------------
#psi4
#
memory 32 gb

molecule  {
0 1
  O       -2.8968130    -0.3474360    -0.2563530
  O       -0.5825960    -1.5131530     0.0834280
  N        0.6405091     0.3847885    -0.3599443
  C        1.9521820    -0.3066060    -0.1296730
  C       -1.7574983     0.5636527    -0.3515782
  C        2.3087340    -0.3110910     1.3526080
  C        3.0072020     0.3769410    -0.9846900
  C       -0.5092170    -0.3043550    -0.1811720
  C       -1.8991130     1.5929580     0.7362800
  H        1.8182130    -1.3395260    -0.4626630
  H        0.6508110     1.3528600    -0.4628320
  H       -1.7688680     0.9937940    -1.3356380
  H        2.4085440     0.7136460     1.7243230
  H        1.5276200    -0.8195050     1.9221530
  H        3.2560570    -0.8319740     1.5215790
  H        3.1304270     1.4235350    -0.6835410
  H        2.7315590     0.3479870    -2.0412990
  H        3.9738610    -0.1182480    -0.8633910
  H       -1.8420940     1.1254490     1.7220580
  H       -2.8670940     2.0889060     0.6442650
  H       -1.1140830     2.3514110     0.6543310
  H       -2.4990480    -1.2315890    -0.0938460
units angstrom
no_reorient  #important for SAPT in psi4, default
symmetry c1  #important for SAPT in psi4, default
}

set PROPERTIES_ORIGIN ["COM"]
properties('MP2/aug-cc-pvtz', properties = ['dipole'])
--------------------------------------------------------------------------

    Molecular point group: c1
  Charge       = 0
  Multiplicity = 1
  Basis Set: AUG-CC-PVTZ
    Blend: AUG-CC-PVTZ
  Basis Set: (AUG-CC-PVTZ AUX)
    Blend: AUG-CC-PVTZ-JKFIT

    Orbital Energies [Eh]
    ---------------------

    Doubly Occupied:

       1A    -20.540626     2A    -20.535358     3A    -15.593498
       4A    -11.360280     5A    -11.294286     6A    -11.280831
       7A    -11.233031     8A    -11.230961     9A    -11.224069
      10A     -1.393239    11A     -1.327094    12A     -1.247745
      13A     -1.074930    14A     -1.028418    15A     -0.950610
      16A     -0.895513    17A     -0.820912    18A     -0.803902
      19A     -0.728762    20A     -0.677006    21A     -0.647880
      22A     -0.633854    23A     -0.626686    24A     -0.600066
      25A     -0.578477    26A     -0.566309    27A     -0.555693
      28A     -0.546956    29A     -0.535145    30A     -0.529818
      31A     -0.507501    32A     -0.502510    33A     -0.491867
      34A     -0.447869    35A     -0.434338    36A     -0.405738

  @DF-RHF Final Energy:  -439.13152932013537

   => Energetics <=

    Nuclear Repulsion Energy =            484.6089816303139060
    One-Electron Energy =               -1559.7774662494034601
    Two-Electron Energy =                 636.0369552989543536
    Total Energy =                       -439.1315293201353143
  Basis Set: (AUG-CC-PVTZ AUX)
    Blend: AUG-CC-PVTZ-RI
    Molecular point group: c1

    Geometry (in Angstrom), charge = 0, multiplicity = 1:

       Center              X                  Y                   Z               Mass
    ------------   -----------------  -----------------  -----------------  -----------------
         O           -2.896990195330    -0.355601065861    -0.254507923803    15.994914619570
         O           -0.582773195330    -1.521318065861     0.085273076197    15.994914619570
         N            0.640331904670     0.376623434139    -0.358099223803    14.003074004430
         C            1.952004804670    -0.314771065861    -0.127827923803    12.000000000000
         C           -1.757675495330     0.555487634139    -0.349733123803    12.000000000000
         C            2.308556804670    -0.319256065861     1.354453076197    12.000000000000
         C            3.007024804670     0.368775934139    -0.982844923803    12.000000000000
         C           -0.509394195330    -0.312520065861    -0.179326923803    12.000000000000
         C           -1.899290195330     1.584792934139     0.738125076197    12.000000000000
         H            1.818035804670    -1.347691065861    -0.460817923803     1.007825032230
         H            0.650633804670     1.344694934139    -0.460986923803     1.007825032230
         H           -1.769045195330     0.985628934139    -1.333792923803     1.007825032230
         H            2.408366804670     0.705480934139     1.726168076197     1.007825032230
         H            1.527442804670    -0.827670065861     1.923998076197     1.007825032230
         H            3.255879804670    -0.840139065861     1.523424076197     1.007825032230
         H            3.130249804670     1.415369934139    -0.681695923803     1.007825032230
         H            2.731381804670     0.339821934139    -2.039453923803     1.007825032230
         H            3.973683804670    -0.126413065861    -0.861545923803     1.007825032230
         H           -1.842271195330     1.117283934139     1.723903076197     1.007825032230
         H           -2.867271195330     2.080740934139     0.646110076197     1.007825032230
         H           -1.114260195330     2.343245934139     0.656176076197     1.007825032230
         H           -2.499225195330    -1.239754065861    -0.092000923803     1.007825032230

  Basis Set: AUG-CC-PVTZ
    Blend: AUG-CC-PVTZ
  Basis Set: (AUG-CC-PVTZ AUX)
    Blend: AUG-CC-PVTZ-JKFIT
	 Reference Energy          =    -439.1315293201353711 [Eh]
	 Singles Energy            =      -0.0000000000000000 [Eh]
	 Same-Spin Energy          =      -0.4458757985907355 [Eh]
	 Opposite-Spin Energy      =      -1.4644987427235170 [Eh]
	 Correlation Energy        =      -1.9103745413142525 [Eh]
	 Total Energy              =    -441.0419038614496117 [Eh]

	 ================> DF-SCS-MP2 Energies <==================
	-----------------------------------------------------------
	 SCS Same-Spin Scale       =       0.3333333333333333 [-]
	 SCS Opposite-Spin Scale   =       1.2000000000000000 [-]
	 SCS Same-Spin Energy      =      -0.1486252661969118 [Eh]
	 SCS Opposite-Spin Energy  =      -1.7573984912682203 [Eh]
	 SCS Correlation Energy    =      -1.9060237574651322 [Eh]
	 SCS Total Energy          =    -441.0375530776004780 [Eh]
	-----------------------------------------------------------

  Dipole Moment: [D]
     X:     3.7894      Y:     2.9744      Z:    -0.1968     Total:     4.8214

*** Psi4 exiting successfully. Buy a developer a beer!
