                               Psi4 1.3.2 release

  ==> Input File <==

--------------------------------------------------------------------------
#psi4
#
memory 32 gb

molecule  {
0 1
  O       -2.8968130    -0.3474360    -0.2563530
  O       -0.5825960    -1.5131530     0.0834280
  N        0.6646380     0.3451110    -0.3514860
  C        1.9281062    -0.3514753    -0.1276083
  C       -1.7875910     0.5207530    -0.3412920
  C        2.3087340    -0.3110910     1.3526080
  C        3.0072020     0.3769410    -0.9846900
  C       -0.5092170    -0.3043550    -0.1811720
  C       -1.8991130     1.5929580     0.7362800
  H        1.8182130    -1.3395260    -0.4626630
  H        0.6156731     1.3513200    -0.4667812
  H       -1.7688680     0.9937940    -1.3356380
  H        2.4085440     0.7136460     1.7243230
  H        1.5276200    -0.8195050     1.9221530
  H        3.2560570    -0.8319740     1.5215790
  H        3.1304270     1.4235350    -0.6835410
  H        2.7315590     0.3479870    -2.0412990
  H        3.9738610    -0.1182480    -0.8633910
  H       -1.8420940     1.1254490     1.7220580
  H       -2.8670940     2.0889060     0.6442650
  H       -1.1140830     2.3514110     0.6543310
  H       -2.4990480    -1.2315890    -0.0938460
units angstrom
no_reorient  #important for SAPT in psi4, default
symmetry c1  #important for SAPT in psi4, default
}

set PROPERTIES_ORIGIN ["COM"]
properties('MP2/aug-cc-pvtz', properties = ['dipole'])
--------------------------------------------------------------------------

    Molecular point group: c1
  Charge       = 0
  Multiplicity = 1
  Basis Set: AUG-CC-PVTZ
    Blend: AUG-CC-PVTZ
  Basis Set: (AUG-CC-PVTZ AUX)
    Blend: AUG-CC-PVTZ-JKFIT

    Orbital Energies [Eh]
    ---------------------

    Doubly Occupied:

       1A    -20.547827     2A    -20.532098     3A    -15.595795
       4A    -11.356812     5A    -11.297277     6A    -11.276916
       7A    -11.232498     8A    -11.231143     9A    -11.222303
      10A     -1.397344    11A     -1.345862    12A     -1.247703
      13A     -1.069286    14A     -1.022889    15A     -0.945942
      16A     -0.894386    17A     -0.828319    18A     -0.793164
      19A     -0.736292    20A     -0.682301    21A     -0.651760
      22A     -0.632935    23A     -0.624119    24A     -0.596504
      25A     -0.580564    26A     -0.567203    27A     -0.554861
      28A     -0.547743    29A     -0.538828    30A     -0.531331
      31A     -0.514599    32A     -0.503100    33A     -0.490762
      34A     -0.445028    35A     -0.433942    36A     -0.400829

  @DF-RHF Final Energy:  -439.13521248687124

   => Energetics <=

    Nuclear Repulsion Energy =            485.2757586295280134
    One-Electron Energy =               -1561.0814149657273902
    Two-Electron Energy =                 636.6704438493280804
    Total Energy =                       -439.1352124868711826
  Basis Set: (AUG-CC-PVTZ AUX)
    Blend: AUG-CC-PVTZ-RI
    Molecular point group: c1

    Geometry (in Angstrom), charge = 0, multiplicity = 1:

       Center              X                  Y                   Z               Mass
    ------------   -----------------  -----------------  -----------------  -----------------
         O           -2.894339010561    -0.343316908716    -0.256511613053    15.994914619570
         O           -0.580122010561    -1.509033908716     0.083269386947    15.994914619570
         N            0.667111989439     0.349230091284    -0.351644613053    14.003074004430
         C            1.930580189439    -0.347356208716    -0.127766913053    12.000000000000
         C           -1.785117010561     0.524872091284    -0.341450613053    12.000000000000
         C            2.311207989439    -0.306971908716     1.352449386947    12.000000000000
         C            3.009675989439     0.381060091284    -0.984848613053    12.000000000000
         C           -0.506743010561    -0.300235908716    -0.181330613053    12.000000000000
         C           -1.896639010561     1.597077091284     0.736121386947    12.000000000000
         H            1.820686989439    -1.335406908716    -0.462821613053     1.007825032230
         H            0.618147089439     1.355439091284    -0.466939813053     1.007825032230
         H           -1.766394010561     0.997913091284    -1.335796613053     1.007825032230
         H            2.411017989439     0.717765091284     1.724164386947     1.007825032230
         H            1.530093989439    -0.815385908716     1.921994386947     1.007825032230
         H            3.258530989439    -0.827854908716     1.521420386947     1.007825032230
         H            3.132900989439     1.427654091284    -0.683699613053     1.007825032230
         H            2.734032989439     0.352106091284    -2.041457613053     1.007825032230
         H            3.976334989439    -0.114128908716    -0.863549613053     1.007825032230
         H           -1.839620010561     1.129568091284     1.721899386947     1.007825032230
         H           -2.864620010561     2.093025091284     0.644106386947     1.007825032230
         H           -1.111609010561     2.355530091284     0.654172386947     1.007825032230
         H           -2.496574010561    -1.227469908716    -0.094004613053     1.007825032230

  Basis Set: AUG-CC-PVTZ
    Blend: AUG-CC-PVTZ
  Basis Set: (AUG-CC-PVTZ AUX)
    Blend: AUG-CC-PVTZ-JKFIT
	 Reference Energy          =    -439.1352124868712394 [Eh]
	 Singles Energy            =      -0.0000000000000000 [Eh]
	 Same-Spin Energy          =      -0.4457713210104806 [Eh]
	 Opposite-Spin Energy      =      -1.4634288397195574 [Eh]
	 Correlation Energy        =      -1.9092001607300380 [Eh]
	 Total Energy              =    -441.0444126476012912 [Eh]

	 ================> DF-SCS-MP2 Energies <==================
	-----------------------------------------------------------
	 SCS Same-Spin Scale       =       0.3333333333333333 [-]
	 SCS Opposite-Spin Scale   =       1.2000000000000000 [-]
	 SCS Same-Spin Energy      =      -0.1485904403368268 [Eh]
	 SCS Opposite-Spin Energy  =      -1.7561146076634688 [Eh]
	 SCS Correlation Energy    =      -1.9047050480002956 [Eh]
	 SCS Total Energy          =    -441.0399175348715630 [Eh]
	-----------------------------------------------------------

  Dipole Moment: [D]
     X:     3.5293      Y:     2.9044      Z:    -0.2134     Total:     4.5757

*** Psi4 exiting successfully. Buy a developer a beer!
