                               Psi4 1.3.2 release

  ==> Input File <==

--------------------------------------------------------------------------
#psi4
#
memory 32 gb

molecule  {
0 1
  O       -2.8968130    -0.3474360    -0.2563530
  O       -0.5825960    -1.5131530     0.0834280
  N        0.6646380     0.3451110    -0.3514860
  C        1.9521820    -0.3066060    -0.1296730
  C       -1.7875910     0.5207530    -0.3412920
  C        2.3087340    -0.3110910     1.3526080
  C        3.0072020     0.3769410    -0.9846900
  C       -0.5092170    -0.3043550    -0.1811720
  C       -1.9137464     1.7336477     0.8776740
  H        1.8182130    -1.3395260    -0.4626630
  H        0.6508110     1.3528600    -0.4628320
  H       -1.7688680     0.9937940    -1.3356380
  H        2.4085440     0.7136460     1.7243230
  H        1.5276200    -0.8195050     1.9221530
  H        3.2560570    -0.8319740     1.5215790
  H        3.1304270     1.4235350    -0.6835410
  H        2.7315590     0.3479870    -2.0412990
  H        3.9738610    -0.1182480    -0.8633910
  H       -1.8420940     1.1254490     1.7220580
  H       -2.8670940     2.0889060     0.6442650
  H       -1.1140830     2.3514110     0.6543310
  H       -2.4990480    -1.2315890    -0.0938460
units angstrom
no_reorient  #important for SAPT in psi4, default
symmetry c1  #important for SAPT in psi4, default
}

set PROPERTIES_ORIGIN ["COM"]
properties('MP2/aug-cc-pvtz', properties = ['dipole'])
--------------------------------------------------------------------------

    Molecular point group: c1
  Charge       = 0
  Multiplicity = 1
  Basis Set: AUG-CC-PVTZ
    Blend: AUG-CC-PVTZ
  Basis Set: (AUG-CC-PVTZ AUX)
    Blend: AUG-CC-PVTZ-JKFIT

    Orbital Energies [Eh]
    ---------------------

    Doubly Occupied:

       1A    -20.549236     2A    -20.531307     3A    -15.595084
       4A    -11.357615     5A    -11.303349     6A    -11.276941
       7A    -11.232127     8A    -11.230164     9A    -11.222119
      10A     -1.395624    11A     -1.344061    12A     -1.247056
      13A     -1.068080    14A     -1.005273    15A     -0.949697
      16A     -0.904604    17A     -0.822467    18A     -0.794652
      19A     -0.732155    20A     -0.676293    21A     -0.646202
      22A     -0.629129    23A     -0.627649    24A     -0.603628
      25A     -0.589955    26A     -0.569837    27A     -0.565033
      28A     -0.554216    29A     -0.541801    30A     -0.529546
      31A     -0.510991    32A     -0.502113    33A     -0.491239
      34A     -0.437437    35A     -0.415305    36A     -0.397631

  @DF-RHF Final Energy:  -439.11139768608621

   => Energetics <=

    Nuclear Repulsion Energy =            482.0350653035519031
    One-Electron Energy =               -1554.5936907457685265
    Two-Electron Energy =                 633.4472277561304736
    Total Energy =                       -439.1113976860862067
  Basis Set: (AUG-CC-PVTZ AUX)
    Blend: AUG-CC-PVTZ-RI
    Molecular point group: c1

    Geometry (in Angstrom), charge = 0, multiplicity = 1:

       Center              X                  Y                   Z               Mass
    ------------   -----------------  -----------------  -----------------  -----------------
         O           -2.895473470887    -0.360314249288    -0.269295750128    15.994914619570
         O           -0.581256470887    -1.526031249288     0.070485249872    15.994914619570
         N            0.665977529113     0.332232750712    -0.364428750128    14.003074004430
         C            1.953521529113    -0.319484249288    -0.142615750128    12.000000000000
         C           -1.786251470887     0.507874750712    -0.354234750128    12.000000000000
         C            2.310073529113    -0.323969249288     1.339665249872    12.000000000000
         C            3.008541529113     0.364062750712    -0.997632750128    12.000000000000
         C           -0.507877470887    -0.317233249288    -0.194114750128    12.000000000000
         C           -1.912406870887     1.720769450712     0.864731249872    12.000000000000
         H            1.819552529113    -1.352404249288    -0.475605750128     1.007825032230
         H            0.652150529113     1.339981750712    -0.475774750128     1.007825032230
         H           -1.767528470887     0.980915750712    -1.348580750128     1.007825032230
         H            2.409883529113     0.700767750712     1.711380249872     1.007825032230
         H            1.528959529113    -0.832383249288     1.909210249872     1.007825032230
         H            3.257396529113    -0.844852249288     1.508636249872     1.007825032230
         H            3.131766529113     1.410656750712    -0.696483750128     1.007825032230
         H            2.732898529113     0.335108750712    -2.054241750128     1.007825032230
         H            3.975200529113    -0.131126249288    -0.876333750128     1.007825032230
         H           -1.840754470887     1.112570750712     1.709115249872     1.007825032230
         H           -2.865754470887     2.076027750712     0.631322249872     1.007825032230
         H           -1.112743470887     2.338532750712     0.641388249872     1.007825032230
         H           -2.497708470887    -1.244467249288    -0.106788750128     1.007825032230

  Basis Set: AUG-CC-PVTZ
    Blend: AUG-CC-PVTZ
  Basis Set: (AUG-CC-PVTZ AUX)
    Blend: AUG-CC-PVTZ-JKFIT
	 Reference Energy          =    -439.1113976860862067 [Eh]
	 Singles Energy            =      -0.0000000000000000 [Eh]
	 Same-Spin Energy          =      -0.4461449196729150 [Eh]
	 Opposite-Spin Energy      =      -1.4650795806275101 [Eh]
	 Correlation Energy        =      -1.9112245003004251 [Eh]
	 Total Energy              =    -441.0226221863866272 [Eh]

	 ================> DF-SCS-MP2 Energies <==================
	-----------------------------------------------------------
	 SCS Same-Spin Scale       =       0.3333333333333333 [-]
	 SCS Opposite-Spin Scale   =       1.2000000000000000 [-]
	 SCS Same-Spin Energy      =      -0.1487149732243050 [Eh]
	 SCS Opposite-Spin Energy  =      -1.7580954967530120 [Eh]
	 SCS Correlation Energy    =      -1.9068104699773170 [Eh]
	 SCS Total Energy          =    -441.0182081560635083 [Eh]
	-----------------------------------------------------------

  Dipole Moment: [D]
     X:     3.5347      Y:     2.8192      Z:    -0.3184     Total:     4.5324

*** Psi4 exiting successfully. Buy a developer a beer!
