                               Psi4 1.3.2 release

  ==> Input File <==

--------------------------------------------------------------------------
#psi4
#
memory 32 gb

molecule  {
0 1
  O       -2.8968130    -0.3474360    -0.2563530
  O       -0.5825960    -1.5131530     0.0834280
  N        0.6646380     0.3451110    -0.3514860
  C        1.7758105    -0.2173319    -0.1600576
  C       -1.7875910     0.5207530    -0.3412920
  C        2.3087340    -0.3110910     1.3526080
  C        3.0072020     0.3769410    -0.9846900
  C       -0.5092170    -0.3043550    -0.1811720
  C       -1.8991130     1.5929580     0.7362800
  H        1.8182130    -1.3395260    -0.4626630
  H        0.6508110     1.3528600    -0.4628320
  H       -1.7688680     0.9937940    -1.3356380
  H        2.4085440     0.7136460     1.7243230
  H        1.5276200    -0.8195050     1.9221530
  H        3.2560570    -0.8319740     1.5215790
  H        3.1304270     1.4235350    -0.6835410
  H        2.7315590     0.3479870    -2.0412990
  H        3.9738610    -0.1182480    -0.8633910
  H       -1.8420940     1.1254490     1.7220580
  H       -2.8670940     2.0889060     0.6442650
  H       -1.1140830     2.3514110     0.6543310
  H       -2.4990480    -1.2315890    -0.0938460
units angstrom
no_reorient  #important for SAPT in psi4, default
symmetry c1  #important for SAPT in psi4, default
}

set PROPERTIES_ORIGIN ["COM"]
properties('MP2/aug-cc-pvtz', properties = ['dipole'])
--------------------------------------------------------------------------

    Molecular point group: c1
  Charge       = 0
  Multiplicity = 1
  Basis Set: AUG-CC-PVTZ
    Blend: AUG-CC-PVTZ
  Basis Set: (AUG-CC-PVTZ AUX)
    Blend: AUG-CC-PVTZ-JKFIT

    Orbital Energies [Eh]
    ---------------------

    Doubly Occupied:

       1A    -20.553276     2A    -20.543436     3A    -15.604331
       4A    -11.368037     5A    -11.303992     6A    -11.273882
       7A    -11.235742     8A    -11.230900     9A    -11.216312
      10A     -1.411879    11A     -1.355516    12A     -1.302241
      13A     -1.065404    14A     -1.017481    15A     -0.934348
      16A     -0.915931    17A     -0.838540    18A     -0.817747
      19A     -0.741750    20A     -0.688489    21A     -0.659557
      22A     -0.647937    23A     -0.631352    24A     -0.591026
      25A     -0.584830    26A     -0.571926    27A     -0.562971
      28A     -0.544349    29A     -0.543035    30A     -0.533195
      31A     -0.524797    32A     -0.489188    33A     -0.456758
      34A     -0.450001    35A     -0.445354    36A     -0.380477

  @DF-RHF Final Energy:  -439.08819123654496

   => Energetics <=

    Nuclear Repulsion Energy =            487.9582557841407606
    One-Electron Energy =               -1566.0209180435408598
    Two-Electron Energy =                 638.9744710228550275
    Total Energy =                       -439.0881912365449580
  Basis Set: (AUG-CC-PVTZ AUX)
    Blend: AUG-CC-PVTZ-RI
    Molecular point group: c1

    Geometry (in Angstrom), charge = 0, multiplicity = 1:

       Center              X                  Y                   Z               Mass
    ------------   -----------------  -----------------  -----------------  -----------------
         O           -2.880668461561    -0.355607823050    -0.253571664244    15.994914619570
         O           -0.566451461561    -1.521324823050     0.086209335756    15.994914619570
         N            0.680782538439     0.336939176950    -0.348704664244    14.003074004430
         C            1.791955038439    -0.225503723050    -0.157276264244    12.000000000000
         C           -1.771446461561     0.512581176950    -0.338510664244    12.000000000000
         C            2.324878538439    -0.319262823050     1.355389335756    12.000000000000
         C            3.023346538439     0.368769176950    -0.981908664244    12.000000000000
         C           -0.493072461561    -0.312526823050    -0.178390664244    12.000000000000
         C           -1.882968461561     1.584786176950     0.739061335756    12.000000000000
         H            1.834357538439    -1.347697823050    -0.459881664244     1.007825032230
         H            0.666955538439     1.344688176950    -0.460050664244     1.007825032230
         H           -1.752723461561     0.985622176950    -1.332856664244     1.007825032230
         H            2.424688538439     0.705474176950     1.727104335756     1.007825032230
         H            1.543764538439    -0.827676823050     1.924934335756     1.007825032230
         H            3.272201538439    -0.840145823050     1.524360335756     1.007825032230
         H            3.146571538439     1.415363176950    -0.680759664244     1.007825032230
         H            2.747703538439     0.339815176950    -2.038517664244     1.007825032230
         H            3.990005538439    -0.126419823050    -0.860609664244     1.007825032230
         H           -1.825949461561     1.117277176950     1.724839335756     1.007825032230
         H           -2.850949461561     2.080734176950     0.647046335756     1.007825032230
         H           -1.097938461561     2.343239176950     0.657112335756     1.007825032230
         H           -2.482903461561    -1.239760823050    -0.091064664244     1.007825032230

  Basis Set: AUG-CC-PVTZ
    Blend: AUG-CC-PVTZ
  Basis Set: (AUG-CC-PVTZ AUX)
    Blend: AUG-CC-PVTZ-JKFIT
	 Reference Energy          =    -439.0881912365449580 [Eh]
	 Singles Energy            =      -0.0000000000000000 [Eh]
	 Same-Spin Energy          =      -0.4484643434859578 [Eh]
	 Opposite-Spin Energy      =      -1.4667067308699568 [Eh]
	 Correlation Energy        =      -1.9151710743559147 [Eh]
	 Total Energy              =    -441.0033623109008545 [Eh]

	 ================> DF-SCS-MP2 Energies <==================
	-----------------------------------------------------------
	 SCS Same-Spin Scale       =       0.3333333333333333 [-]
	 SCS Opposite-Spin Scale   =       1.2000000000000000 [-]
	 SCS Same-Spin Energy      =      -0.1494881144953192 [Eh]
	 SCS Opposite-Spin Energy  =      -1.7600480770439482 [Eh]
	 SCS Correlation Energy    =      -1.9095361915392675 [Eh]
	 SCS Total Energy          =    -440.9977274280842039 [Eh]
	-----------------------------------------------------------

  Dipole Moment: [D]
     X:     2.8631      Y:     2.9914      Z:    -0.3546     Total:     4.1559

*** Psi4 exiting successfully. Buy a developer a beer!
