                               Psi4 1.4a3.dev225

  ==> Input File <==

--------------------------------------------------------------------------
#psi4
#
memory 32 gb

molecule  {
0 1
  O       -1.7446660    -1.3796590    -0.7880960
  O       -0.4296620     1.7569970     0.2600660
  N        0.4723820    -0.3330750    -0.0012650
  C        1.8394770     0.0732600     0.3013020
  C       -1.9099390    -0.0103690    -0.3967440
  C        2.4958720     0.7244850    -0.9128940
  C        2.6145980    -1.1365250     0.8043010
  C       -0.5442740     0.5588710    -0.0269710
  C       -2.8608870     0.1360220     0.7815810
  H        1.7638430     0.8203410     1.0982830
  H        0.2750420    -1.2730860    -0.3263580
  H       -2.2557424     0.5592794    -1.2072011
  H        2.5570320     0.0100450    -1.7401110
  H        1.9072700     1.5874400    -1.2316560
  H        3.5085800     1.0627310    -0.6705710
  H        2.6773940    -1.9046250     0.0252330
  H        2.1327900    -1.5715010     1.6841320
  H        3.6348850    -0.8497170     1.0733550
  H       -2.5011890    -0.4705790     1.6169940
  H       -3.8694610    -0.1962540     0.5126420
  H       -2.9055320     1.1820880     1.0905810
  H       -2.6295620    -1.7449530    -0.9570530
units angstrom
no_reorient  #important for SAPT in psi4, default
symmetry c1  #important for SAPT in psi4, default
}

set PROPERTIES_ORIGIN ["COM"]
properties('MP2/aug-cc-pvtz', properties = ['dipole'])
--------------------------------------------------------------------------

    Molecular point group: c1
  Charge       = 0
  Multiplicity = 1
  Basis Set: AUG-CC-PVTZ
    Blend: AUG-CC-PVTZ
  Basis Set: (AUG-CC-PVTZ AUX)
    Blend: AUG-CC-PVTZ-JKFIT

    Orbital Energies [Eh]
    ---------------------

    Doubly Occupied:

       1A    -20.580250     2A    -20.509446     3A    -15.575457
       4A    -11.342625     5A    -11.295055     6A    -11.263865
       7A    -11.228531     8A    -11.221270     9A    -11.209250
      10A     -1.387633    11A     -1.358669    12A     -1.227718
      13A     -1.058248    14A     -1.029680    15A     -0.937094
      16A     -0.898576    17A     -0.815936    18A     -0.778250
      19A     -0.716760    20A     -0.690299    21A     -0.645915
      22A     -0.640483    23A     -0.614151    24A     -0.594438
      25A     -0.578406    26A     -0.562953    27A     -0.551425
      28A     -0.542310    29A     -0.527080    30A     -0.520614
      31A     -0.517643    32A     -0.491026    33A     -0.480156
      34A     -0.461699    35A     -0.413620    36A     -0.382497

  @DF-RHF Final Energy:  -439.13732020677855

   => Energetics <=

    Nuclear Repulsion Energy =            486.2048401650682763
    One-Electron Energy =               -1563.3862668583296909
    Two-Electron Energy =                 638.0441064864829741
    Total Energy =                       -439.1373202067785542
  Basis Set: (AUG-CC-PVTZ AUX)
    Blend: AUG-CC-PVTZ-RI
    Molecular point group: c1

    Geometry (in Angstrom), charge = 0, multiplicity = 1:

       Center              X                  Y                   Z               Mass
    ------------   -----------------  -----------------  -----------------  -----------------
         O           -1.712503997601    -1.400329032556    -0.781377479028    15.994914619570
         O           -0.397499997601     1.736326967444     0.266784520972    15.994914619570
         N            0.504544002399    -0.353745032556     0.005453520972    14.003074004430
         C            1.871639002399     0.052589967444     0.308020520972    12.000000000000
         C           -1.877776997601    -0.031039032556    -0.390025479028    12.000000000000
         C            2.528034002399     0.703814967444    -0.906175479028    12.000000000000
         C            2.646760002399    -1.157195032556     0.811019520972    12.000000000000
         C           -0.512111997601     0.538200967444    -0.020252479028    12.000000000000
         C           -2.828724997601     0.115351967444     0.788299520972    12.000000000000
         H            1.796005002399     0.799670967444     1.105001520972     1.007825032230
         H            0.307204002399    -1.293756032556    -0.319639479028     1.007825032230
         H           -2.223580397601     0.538609367444    -1.200482579028     1.007825032230
         H            2.589194002399    -0.010625032556    -1.733392479028     1.007825032230
         H            1.939432002399     1.566769967444    -1.224937479028     1.007825032230
         H            3.540742002399     1.042060967444    -0.663852479028     1.007825032230
         H            2.709556002399    -1.925295032556     0.031951520972     1.007825032230
         H            2.164952002399    -1.592171032556     1.690850520972     1.007825032230
         H            3.667047002399    -0.870387032556     1.080073520972     1.007825032230
         H           -2.469026997601    -0.491249032556     1.623712520972     1.007825032230
         H           -3.837298997601    -0.216924032556     0.519360520972     1.007825032230
         H           -2.873369997601     1.161417967444     1.097299520972     1.007825032230
         H           -2.597399997601    -1.765623032556    -0.950334479028     1.007825032230

  Basis Set: AUG-CC-PVTZ
    Blend: AUG-CC-PVTZ
  Basis Set: (AUG-CC-PVTZ AUX)
    Blend: AUG-CC-PVTZ-JKFIT
	 Reference Energy          =    -439.1373202067785542 [Eh]
	 Singles Energy            =      -0.0000000000000000 [Eh]
	 Same-Spin Energy          =      -0.4454220025354789 [Eh]
	 Opposite-Spin Energy      =      -1.4631018656844459 [Eh]
	 Correlation Energy        =      -1.9085238682199248 [Eh]
	 Total Energy              =    -441.0458440749984561 [Eh]

	 ================> DF-SCS-MP2 Energies <==================
	-----------------------------------------------------------
	 SCS Same-Spin Scale       =       0.3333333333333333 [-]
	 SCS Opposite-Spin Scale   =       1.2000000000000000 [-]
	 SCS Same-Spin Energy      =      -0.1484740008451596 [Eh]
	 SCS Opposite-Spin Energy  =      -1.7557222388213349 [Eh]
	 SCS Correlation Energy    =      -1.9041962396664946 [Eh]
	 SCS Total Energy          =    -441.0415164464450299 [Eh]
	-----------------------------------------------------------

  Dipole Moment: [D]
     X:    -0.6767      Y:    -2.8569      Z:    -0.4777     Total:     2.9746

*** Psi4 exiting successfully. Buy a developer a beer!
