                               Psi4 1.3.2 release

  ==> Input File <==

--------------------------------------------------------------------------
#psi4
#
memory 32 gb

molecule  {
0 1
  O       -2.8968130    -0.3474360    -0.2563530
  O       -0.5825960    -1.5131530     0.0834280
  N        0.6694241     0.3559981    -0.3469141
  C        1.9521820    -0.3066060    -0.1296730
  C       -1.7875910     0.5207530    -0.3412920
  C        2.3087340    -0.3110910     1.3526080
  C        3.0072020     0.3769410    -0.9846900
  C       -0.5092170    -0.3043550    -0.1811720
  C       -1.8991130     1.5929580     0.7362800
  H        1.8272754    -1.3414063    -0.4603397
  H        0.6508110     1.3528600    -0.4628320
  H       -1.7688680     0.9937940    -1.3356380
  H        2.4085440     0.7136460     1.7243230
  H        1.5276200    -0.8195050     1.9221530
  H        3.2560570    -0.8319740     1.5215790
  H        3.1304270     1.4235350    -0.6835410
  H        2.7315590     0.3479870    -2.0412990
  H        3.9738610    -0.1182480    -0.8633910
  H       -1.8420940     1.1254490     1.7220580
  H       -2.8670940     2.0889060     0.6442650
  H       -1.1140830     2.3514110     0.6543310
  H       -2.4990480    -1.2315890    -0.0938460
units angstrom
no_reorient  #important for SAPT in psi4, default
symmetry c1  #important for SAPT in psi4, default
}

set PROPERTIES_ORIGIN ["COM"]
properties('MP2/aug-cc-pvtz', properties = ['dipole'])
--------------------------------------------------------------------------

    Molecular point group: c1
  Charge       = 0
  Multiplicity = 1
  Basis Set: AUG-CC-PVTZ
    Blend: AUG-CC-PVTZ
  Basis Set: (AUG-CC-PVTZ AUX)
    Blend: AUG-CC-PVTZ-JKFIT

    Orbital Energies [Eh]
    ---------------------

    Doubly Occupied:

       1A    -20.548078     2A    -20.534199     3A    -15.594734
       4A    -11.359762     5A    -11.297551     6A    -11.276935
       7A    -11.231816     8A    -11.230872     9A    -11.221736
      10A     -1.397395    11A     -1.345960    12A     -1.247484
      13A     -1.071581    14A     -1.023833    15A     -0.949494
      16A     -0.894818    17A     -0.822059    18A     -0.795562
      19A     -0.736285    20A     -0.679488    21A     -0.650242
      22A     -0.633517    23A     -0.627972    24A     -0.597001
      25A     -0.581710    26A     -0.567603    27A     -0.554810
      28A     -0.547534    29A     -0.539240    30A     -0.529925
      31A     -0.513438    32A     -0.502682    33A     -0.490948
      34A     -0.445165    35A     -0.434853    36A     -0.401296

  @DF-RHF Final Energy:  -439.13768991617439

   => Energetics <=

    Nuclear Repulsion Energy =            485.1652037788042549
    One-Electron Energy =               -1560.8506347396453293
    Two-Electron Energy =                 636.5477410446667363
    Total Energy =                       -439.1376899161743950
  Basis Set: (AUG-CC-PVTZ AUX)
    Blend: AUG-CC-PVTZ-RI
    Molecular point group: c1

    Geometry (in Angstrom), charge = 0, multiplicity = 1:

       Center              X                  Y                   Z               Mass
    ------------   -----------------  -----------------  -----------------  -----------------
         O           -2.897393871659    -0.348584412894    -0.256859192790    15.994914619570
         O           -0.583176871659    -1.514301412894     0.082921807210    15.994914619570
         N            0.668843228341     0.354849687106    -0.347420292790    14.003074004430
         C            1.951601128341    -0.307754412894    -0.130179192790    12.000000000000
         C           -1.788171871659     0.519604587106    -0.341798192790    12.000000000000
         C            2.308153128341    -0.312239412894     1.352101807210    12.000000000000
         C            3.006621128341     0.375792587106    -0.985196192790    12.000000000000
         C           -0.509797871659    -0.305503412894    -0.181678192790    12.000000000000
         C           -1.899693871659     1.591809587106     0.735773807210    12.000000000000
         H            1.826694528341    -1.342554712894    -0.460845892790     1.007825032230
         H            0.650230128341     1.351711587106    -0.463338192790     1.007825032230
         H           -1.769448871659     0.992645587106    -1.336144192790     1.007825032230
         H            2.407963128341     0.712497587106     1.723816807210     1.007825032230
         H            1.527039128341    -0.820653412894     1.921646807210     1.007825032230
         H            3.255476128341    -0.833122412894     1.521072807210     1.007825032230
         H            3.129846128341     1.422386587106    -0.684047192790     1.007825032230
         H            2.730978128341     0.346838587106    -2.041805192790     1.007825032230
         H            3.973280128341    -0.119396412894    -0.863897192790     1.007825032230
         H           -1.842674871659     1.124300587106     1.721551807210     1.007825032230
         H           -2.867674871659     2.087757587106     0.643758807210     1.007825032230
         H           -1.114663871659     2.350262587106     0.653824807210     1.007825032230
         H           -2.499628871659    -1.232737412894    -0.094352192790     1.007825032230

  Basis Set: AUG-CC-PVTZ
    Blend: AUG-CC-PVTZ
  Basis Set: (AUG-CC-PVTZ AUX)
    Blend: AUG-CC-PVTZ-JKFIT
	 Reference Energy          =    -439.1376899161743950 [Eh]
	 Singles Energy            =      -0.0000000000000000 [Eh]
	 Same-Spin Energy          =      -0.4459854059268740 [Eh]
	 Opposite-Spin Energy      =      -1.4636420433894979 [Eh]
	 Correlation Energy        =      -1.9096274493163718 [Eh]
	 Total Energy              =    -441.0473173654907555 [Eh]

	 ================> DF-SCS-MP2 Energies <==================
	-----------------------------------------------------------
	 SCS Same-Spin Scale       =       0.3333333333333333 [-]
	 SCS Opposite-Spin Scale   =       1.2000000000000000 [-]
	 SCS Same-Spin Energy      =      -0.1486618019756246 [Eh]
	 SCS Opposite-Spin Energy  =      -1.7563704520673975 [Eh]
	 SCS Correlation Energy    =      -1.9050322540430222 [Eh]
	 SCS Total Energy          =    -441.0427221702174165 [Eh]
	-----------------------------------------------------------

  Dipole Moment: [D]
     X:     3.5359      Y:     2.8872      Z:    -0.2302     Total:     4.5707

*** Psi4 exiting successfully. Buy a developer a beer!
