                               Psi4 1.3.2 release

  ==> Input File <==

--------------------------------------------------------------------------
#psi4
#
memory 32 gb

molecule  {
0 1
  O       -2.8968130    -0.3474360    -0.2563530
  O       -0.5825960    -1.5131530     0.0834280
  N        0.6646380     0.3451110    -0.3514860
  C        1.9521820    -0.3066060    -0.1296730
  C       -1.7875910     0.5207530    -0.3412920
  C        2.3087340    -0.3110910     1.3526080
  C        3.0072020     0.3769410    -0.9846900
  C       -0.4224135    -0.2563287    -0.1937663
  C       -1.8991130     1.5929580     0.7362800
  H        1.8182130    -1.3395260    -0.4626630
  H        0.6508110     1.3528600    -0.4628320
  H       -1.7688680     0.9937940    -1.3356380
  H        2.4085440     0.7136460     1.7243230
  H        1.5276200    -0.8195050     1.9221530
  H        3.2560570    -0.8319740     1.5215790
  H        3.1304270     1.4235350    -0.6835410
  H        2.7315590     0.3479870    -2.0412990
  H        3.9738610    -0.1182480    -0.8633910
  H       -1.8420940     1.1254490     1.7220580
  H       -2.8670940     2.0889060     0.6442650
  H       -1.1140830     2.3514110     0.6543310
  H       -2.4990480    -1.2315890    -0.0938460
units angstrom
no_reorient  #important for SAPT in psi4, default
symmetry c1  #important for SAPT in psi4, default
}

set PROPERTIES_ORIGIN ["COM"]
properties('MP2/aug-cc-pvtz', properties = ['dipole'])
--------------------------------------------------------------------------

    Molecular point group: c1
  Charge       = 0
  Multiplicity = 1
  Basis Set: AUG-CC-PVTZ
    Blend: AUG-CC-PVTZ
  Basis Set: (AUG-CC-PVTZ AUX)
    Blend: AUG-CC-PVTZ-JKFIT

    Orbital Energies [Eh]
    ---------------------

    Doubly Occupied:

       1A    -20.543382     2A    -20.512386     3A    -15.612431
       4A    -11.350637     5A    -11.296122     6A    -11.285949
       7A    -11.239184     8A    -11.228574     9A    -11.227340
      10A     -1.377492    11A     -1.339624    12A     -1.263582
      13A     -1.085074    14A     -1.022151    15A     -0.956838
      16A     -0.891496    17A     -0.829997    18A     -0.820762
      19A     -0.727200    20A     -0.679548    21A     -0.651403
      22A     -0.637323    23A     -0.622747    24A     -0.597579
      25A     -0.576811    26A     -0.564375    27A     -0.561780
      28A     -0.553904    29A     -0.541248    30A     -0.530725
      31A     -0.505732    32A     -0.498458    33A     -0.490413
      34A     -0.438975    35A     -0.415990    36A     -0.405970

  @DF-RHF Final Energy:  -439.12016840979641

   => Energetics <=

    Nuclear Repulsion Energy =            485.5664357208960951
    One-Electron Energy =               -1561.6068014885443063
    Two-Electron Energy =                 636.9201973578517482
    Total Energy =                       -439.1201684097964062
  Basis Set: (AUG-CC-PVTZ AUX)
    Blend: AUG-CC-PVTZ-RI
    Molecular point group: c1

    Geometry (in Angstrom), charge = 0, multiplicity = 1:

       Center              X                  Y                   Z               Mass
    ------------   -----------------  -----------------  -----------------  -----------------
         O           -2.904758693420    -0.351832126021    -0.255200133711    15.994914619570
         O           -0.590541693420    -1.517549126021     0.084580866289    15.994914619570
         N            0.656692306580     0.340714873979    -0.350333133711    14.003074004430
         C            1.944236306580    -0.311002126021    -0.128520133711    12.000000000000
         C           -1.795536693420     0.516356873979    -0.340139133711    12.000000000000
         C            2.300788306580    -0.315487126021     1.353760866289    12.000000000000
         C            2.999256306580     0.372544873979    -0.983537133711    12.000000000000
         C           -0.430359193420    -0.260724826021    -0.192613433711    12.000000000000
         C           -1.907058693420     1.588561873979     0.737432866289    12.000000000000
         H            1.810267306580    -1.343922126021    -0.461510133711     1.007825032230
         H            0.642865306580     1.348463873979    -0.461679133711     1.007825032230
         H           -1.776813693420     0.989397873979    -1.334485133711     1.007825032230
         H            2.400598306580     0.709249873979     1.725475866289     1.007825032230
         H            1.519674306580    -0.823901126021     1.923305866289     1.007825032230
         H            3.248111306580    -0.836370126021     1.522731866289     1.007825032230
         H            3.122481306580     1.419138873979    -0.682388133711     1.007825032230
         H            2.723613306580     0.343590873979    -2.040146133711     1.007825032230
         H            3.965915306580    -0.122644126021    -0.862238133711     1.007825032230
         H           -1.850039693420     1.121052873979     1.723210866289     1.007825032230
         H           -2.875039693420     2.084509873979     0.645417866289     1.007825032230
         H           -1.122028693420     2.347014873979     0.655483866289     1.007825032230
         H           -2.506993693420    -1.235985126021    -0.092693133711     1.007825032230

  Basis Set: AUG-CC-PVTZ
    Blend: AUG-CC-PVTZ
  Basis Set: (AUG-CC-PVTZ AUX)
    Blend: AUG-CC-PVTZ-JKFIT
	 Reference Energy          =    -439.1201684097964062 [Eh]
	 Singles Energy            =      -0.0000000000000000 [Eh]
	 Same-Spin Energy          =      -0.4468195961426967 [Eh]
	 Opposite-Spin Energy      =      -1.4649567357210225 [Eh]
	 Correlation Energy        =      -1.9117763318637193 [Eh]
	 Total Energy              =    -441.0319447416601406 [Eh]

	 ================> DF-SCS-MP2 Energies <==================
	-----------------------------------------------------------
	 SCS Same-Spin Scale       =       0.3333333333333333 [-]
	 SCS Opposite-Spin Scale   =       1.2000000000000000 [-]
	 SCS Same-Spin Energy      =      -0.1489398653808989 [Eh]
	 SCS Opposite-Spin Energy  =      -1.7579480828652270 [Eh]
	 SCS Correlation Energy    =      -1.9068879482461258 [Eh]
	 SCS Total Energy          =    -441.0270563580425573 [Eh]
	-----------------------------------------------------------

  Dipole Moment: [D]
     X:     4.3097      Y:     3.2993      Z:    -0.3103     Total:     5.4365

*** Psi4 exiting successfully. Buy a developer a beer!
