                               Psi4 1.3.2 release

  ==> Input File <==

--------------------------------------------------------------------------
#psi4
#
memory 32 gb

molecule  {
0 1
  O       -2.9408795    -0.2889475    -0.2661187
  O       -0.5825960    -1.5131530     0.0834280
  N        0.6646380     0.3451110    -0.3514860
  C        1.9521820    -0.3066060    -0.1296730
  C       -1.7875910     0.5207530    -0.3412920
  C        2.3087340    -0.3110910     1.3526080
  C        3.0072020     0.3769410    -0.9846900
  C       -0.4670633    -0.2367329    -0.1892937
  C       -1.8991130     1.5929580     0.7362800
  H        1.8182130    -1.3395260    -0.4626630
  H        0.6508110     1.3528600    -0.4628320
  H       -1.7688680     0.9937940    -1.3356380
  H        2.4085440     0.7136460     1.7243230
  H        1.5276200    -0.8195050     1.9221530
  H        3.2560570    -0.8319740     1.5215790
  H        3.1304270     1.4235350    -0.6835410
  H        2.7315590     0.3479870    -2.0412990
  H        3.9738610    -0.1182480    -0.8633910
  H       -1.8420940     1.1254490     1.7220580
  H       -2.8670940     2.0889060     0.6442650
  H       -1.1140830     2.3514110     0.6543310
  H       -2.4990480    -1.2315890    -0.0938460
units angstrom
no_reorient  #important for SAPT in psi4, default
symmetry c1  #important for SAPT in psi4, default
}

set PROPERTIES_ORIGIN ["COM"]
properties('MP2/aug-cc-pvtz', properties = ['dipole'])
--------------------------------------------------------------------------

    Molecular point group: c1
  Charge       = 0
  Multiplicity = 1
  Basis Set: AUG-CC-PVTZ
    Blend: AUG-CC-PVTZ
  Basis Set: (AUG-CC-PVTZ AUX)
    Blend: AUG-CC-PVTZ-JKFIT

    Orbital Energies [Eh]
    ---------------------

    Doubly Occupied:

       1A    -20.551719     2A    -20.517083     3A    -15.611674
       4A    -11.357448     5A    -11.296651     6A    -11.285380
       7A    -11.238261     8A    -11.228665     9A    -11.227431
      10A     -1.371162    11A     -1.331496    12A     -1.255742
      13A     -1.083503    14A     -1.023847    15A     -0.955569
      16A     -0.897373    17A     -0.829557    18A     -0.811264
      19A     -0.726593    20A     -0.678973    21A     -0.647932
      22A     -0.635342    23A     -0.620292    24A     -0.593320
      25A     -0.578068    26A     -0.560817    27A     -0.560608
      28A     -0.553144    29A     -0.540197    30A     -0.529390
      31A     -0.504064    32A     -0.498336    33A     -0.491794
      34A     -0.438548    35A     -0.425454    36A     -0.404510

  @DF-RHF Final Energy:  -439.11354137667905

   => Energetics <=

    Nuclear Repulsion Energy =            484.5043035514290750
    One-Electron Energy =               -1559.5132767407837946
    Two-Electron Energy =                 635.8954318126756107
    Total Energy =                       -439.1135413766791089
  Basis Set: (AUG-CC-PVTZ AUX)
    Blend: AUG-CC-PVTZ-RI
    Molecular point group: c1

    Geometry (in Angstrom), charge = 0, multiplicity = 1:

       Center              X                  Y                   Z               Mass
    ------------   -----------------  -----------------  -----------------  -----------------
         O           -2.939361514261    -0.302273573614    -0.264183724339    15.994914619570
         O           -0.581078014261    -1.526479073614     0.085362975661    15.994914619570
         N            0.666155985739     0.331784926386    -0.349551024339    14.003074004430
         C            1.953699985739    -0.319932073614    -0.127738024339    12.000000000000
         C           -1.786073014261     0.507426926386    -0.339357024339    12.000000000000
         C            2.310251985739    -0.324417073614     1.354542975661    12.000000000000
         C            3.008719985739     0.363614926386    -0.982755024339    12.000000000000
         C           -0.465545314261    -0.250058973614    -0.187358724339    12.000000000000
         C           -1.897595014261     1.579631926386     0.738214975661    12.000000000000
         H            1.819730985739    -1.352852073614    -0.460728024339     1.007825032230
         H            0.652328985739     1.339533926386    -0.460897024339     1.007825032230
         H           -1.767350014261     0.980467926386    -1.333703024339     1.007825032230
         H            2.410061985739     0.700319926386     1.726257975661     1.007825032230
         H            1.529137985739    -0.832831073614     1.924087975661     1.007825032230
         H            3.257574985739    -0.845300073614     1.523513975661     1.007825032230
         H            3.131944985739     1.410208926386    -0.681606024339     1.007825032230
         H            2.733076985739     0.334660926386    -2.039364024339     1.007825032230
         H            3.975378985739    -0.131574073614    -0.861456024339     1.007825032230
         H           -1.840576014261     1.112122926386     1.723992975661     1.007825032230
         H           -2.865576014261     2.075579926386     0.646199975661     1.007825032230
         H           -1.112565014261     2.338084926386     0.656265975661     1.007825032230
         H           -2.497530014261    -1.244915073614    -0.091911024339     1.007825032230

  Basis Set: AUG-CC-PVTZ
    Blend: AUG-CC-PVTZ
  Basis Set: (AUG-CC-PVTZ AUX)
    Blend: AUG-CC-PVTZ-JKFIT
	 Reference Energy          =    -439.1135413766790521 [Eh]
	 Singles Energy            =      -0.0000000000000000 [Eh]
	 Same-Spin Energy          =      -0.4485221716783626 [Eh]
	 Opposite-Spin Energy      =      -1.4686682000447115 [Eh]
	 Correlation Energy        =      -1.9171903717230743 [Eh]
	 Total Energy              =    -441.0307317484021041 [Eh]

	 ================> DF-SCS-MP2 Energies <==================
	-----------------------------------------------------------
	 SCS Same-Spin Scale       =       0.3333333333333333 [-]
	 SCS Opposite-Spin Scale   =       1.2000000000000000 [-]
	 SCS Same-Spin Energy      =      -0.1495073905594542 [Eh]
	 SCS Opposite-Spin Energy  =      -1.7624018400536539 [Eh]
	 SCS Correlation Energy    =      -1.9119092306131080 [Eh]
	 SCS Total Energy          =    -441.0254506072921572 [Eh]
	-----------------------------------------------------------

  Dipole Moment: [D]
     X:     4.2079      Y:     3.2135      Z:    -0.2911     Total:     5.3026

*** Psi4 exiting successfully. Buy a developer a beer!
