                               Psi4 1.4a3.dev225

  ==> Input File <==

--------------------------------------------------------------------------
#psi4
#
memory 32 gb

molecule  {
0 1
  O       -1.7446660    -1.3796590    -0.7880960
  O       -0.4296620     1.7569970     0.2600660
  N        0.4723820    -0.3330750    -0.0012650
  C        1.8394770     0.0732600     0.3013020
  C       -1.9076334    -0.0294708    -0.4022034
  C        2.4958720     0.7244850    -0.9128940
  C        2.6145980    -1.1365250     0.8043010
  C       -0.5442740     0.5588710    -0.0269710
  C       -2.8608870     0.1360220     0.7815810
  H        1.7638430     0.8203410     1.0982830
  H        0.2750420    -1.2730860    -0.3263580
  H       -2.2722210     0.5864250    -1.2458220
  H        2.5570320     0.0100450    -1.7401110
  H        1.9072700     1.5874400    -1.2316560
  H        3.5085800     1.0627310    -0.6705710
  H        2.6773940    -1.9046250     0.0252330
  H        2.1327900    -1.5715010     1.6841320
  H        3.6348850    -0.8497170     1.0733550
  H       -2.5011890    -0.4705790     1.6169940
  H       -3.8694610    -0.1962540     0.5126420
  H       -2.9055320     1.1820880     1.0905810
  H       -2.6295620    -1.7449530    -0.9570530
units angstrom
no_reorient  #important for SAPT in psi4, default
symmetry c1  #important for SAPT in psi4, default
}

set PROPERTIES_ORIGIN ["COM"]
properties('MP2/aug-cc-pvtz', properties = ['dipole'])
--------------------------------------------------------------------------

    Molecular point group: c1
  Charge       = 0
  Multiplicity = 1
  Basis Set: AUG-CC-PVTZ
    Blend: AUG-CC-PVTZ
  Basis Set: (AUG-CC-PVTZ AUX)
    Blend: AUG-CC-PVTZ-JKFIT

    Orbital Energies [Eh]
    ---------------------

    Doubly Occupied:

       1A    -20.583518     2A    -20.509200     3A    -15.575304
       4A    -11.342705     5A    -11.301049     6A    -11.263735
       7A    -11.228500     8A    -11.221254     9A    -11.209171
      10A     -1.394528    11A     -1.359636    12A     -1.227725
      13A     -1.056839    14A     -1.026186    15A     -0.937046
      16A     -0.896566    17A     -0.813456    18A     -0.777860
      19A     -0.714976    20A     -0.692075    21A     -0.645178
      22A     -0.641687    23A     -0.614338    24A     -0.594528
      25A     -0.578461    26A     -0.562166    27A     -0.552352
      28A     -0.542282    29A     -0.528038    30A     -0.520124
      31A     -0.516620    32A     -0.490882    33A     -0.479975
      34A     -0.456510    35A     -0.412418    36A     -0.382415

  @DF-RHF Final Energy:  -439.13785019805982

   => Energetics <=

    Nuclear Repulsion Energy =            486.0063810048849291
    One-Electron Energy =               -1562.9898596670839197
    Two-Electron Energy =                 637.8456284641392813
    Total Energy =                       -439.1378501980598230
  Basis Set: (AUG-CC-PVTZ AUX)
    Blend: AUG-CC-PVTZ-RI
    Molecular point group: c1

    Geometry (in Angstrom), charge = 0, multiplicity = 1:

       Center              X                  Y                   Z               Mass
    ------------   -----------------  -----------------  -----------------  -----------------
         O           -1.712588361503    -1.398789201467    -0.780580833804    15.994914619570
         O           -0.397584361503     1.737866798533     0.267581166196    15.994914619570
         N            0.504459638497    -0.352205201467     0.006250166196    14.003074004430
         C            1.871554638497     0.054129798533     0.308817166196    12.000000000000
         C           -1.875555761503    -0.048601001467    -0.394688233804    12.000000000000
         C            2.527949638497     0.705354798533    -0.905378833804    12.000000000000
         C            2.646675638497    -1.155655201467     0.811816166196    12.000000000000
         C           -0.512196361503     0.539740798533    -0.019455833804    12.000000000000
         C           -2.828809361503     0.116891798533     0.789096166196    12.000000000000
         H            1.795920638497     0.801210798533     1.105798166196     1.007825032230
         H            0.307119638497    -1.292216201467    -0.318842833804     1.007825032230
         H           -2.240143361503     0.567294798533    -1.238306833804     1.007825032230
         H            2.589109638497    -0.009085201467    -1.732595833804     1.007825032230
         H            1.939347638497     1.568309798533    -1.224140833804     1.007825032230
         H            3.540657638497     1.043600798533    -0.663055833804     1.007825032230
         H            2.709471638497    -1.923755201467     0.032748166196     1.007825032230
         H            2.164867638497    -1.590631201467     1.691647166196     1.007825032230
         H            3.666962638497    -0.868847201467     1.080870166196     1.007825032230
         H           -2.469111361503    -0.489709201467     1.624509166196     1.007825032230
         H           -3.837383361503    -0.215384201467     0.520157166196     1.007825032230
         H           -2.873454361503     1.162957798533     1.098096166196     1.007825032230
         H           -2.597484361503    -1.764083201467    -0.949537833804     1.007825032230

  Basis Set: AUG-CC-PVTZ
    Blend: AUG-CC-PVTZ
  Basis Set: (AUG-CC-PVTZ AUX)
    Blend: AUG-CC-PVTZ-JKFIT
	 Reference Energy          =    -439.1378501980598230 [Eh]
	 Singles Energy            =      -0.0000000000000000 [Eh]
	 Same-Spin Energy          =      -0.4454807361147722 [Eh]
	 Opposite-Spin Energy      =      -1.4632147565686733 [Eh]
	 Correlation Energy        =      -1.9086954926834454 [Eh]
	 Total Energy              =    -441.0465456907432440 [Eh]

	 ================> DF-SCS-MP2 Energies <==================
	-----------------------------------------------------------
	 SCS Same-Spin Scale       =       0.3333333333333333 [-]
	 SCS Opposite-Spin Scale   =       1.2000000000000000 [-]
	 SCS Same-Spin Energy      =      -0.1484935787049241 [Eh]
	 SCS Opposite-Spin Energy  =      -1.7558577078824078 [Eh]
	 SCS Correlation Energy    =      -1.9043512865873318 [Eh]
	 SCS Total Energy          =    -441.0422014846471370 [Eh]
	-----------------------------------------------------------

  Dipole Moment: [D]
     X:    -0.6667      Y:    -2.9407      Z:    -0.4907     Total:     3.0550

*** Psi4 exiting successfully. Buy a developer a beer!
