                               Psi4 1.3.2 release

  ==> Input File <==

--------------------------------------------------------------------------
#psi4
#
memory 32 gb

molecule  {
0 1
  O       -2.9011414    -0.3408901    -0.2468628
  O       -0.5825960    -1.5131530     0.0834280
  N        0.6646380     0.3451110    -0.3514860
  C        1.9521820    -0.3066060    -0.1296730
  C       -1.7875910     0.5207530    -0.3412920
  C        2.3087340    -0.3110910     1.3526080
  C        3.0072020     0.3769410    -0.9846900
  C       -0.5092170    -0.3043550    -0.1811720
  C       -1.9105390     1.5875407     0.7404057
  H        1.8182130    -1.3395260    -0.4626630
  H        0.6508110     1.3528600    -0.4628320
  H       -1.7688680     0.9937940    -1.3356380
  H        2.4085440     0.7136460     1.7243230
  H        1.5276200    -0.8195050     1.9221530
  H        3.2560570    -0.8319740     1.5215790
  H        3.1304270     1.4235350    -0.6835410
  H        2.7315590     0.3479870    -2.0412990
  H        3.9738610    -0.1182480    -0.8633910
  H       -1.8420940     1.1254490     1.7220580
  H       -2.8670940     2.0889060     0.6442650
  H       -1.1140830     2.3514110     0.6543310
  H       -2.4990480    -1.2315890    -0.0938460
units angstrom
no_reorient  #important for SAPT in psi4, default
symmetry c1  #important for SAPT in psi4, default
}

set PROPERTIES_ORIGIN ["COM"]
properties('MP2/aug-cc-pvtz', properties = ['dipole'])
--------------------------------------------------------------------------

    Molecular point group: c1
  Charge       = 0
  Multiplicity = 1
  Basis Set: AUG-CC-PVTZ
    Blend: AUG-CC-PVTZ
  Basis Set: (AUG-CC-PVTZ AUX)
    Blend: AUG-CC-PVTZ-JKFIT

    Orbital Energies [Eh]
    ---------------------

    Doubly Occupied:

       1A    -20.548038     2A    -20.532854     3A    -15.595898
       4A    -11.358651     5A    -11.297118     6A    -11.277335
       7A    -11.232387     8A    -11.230426     9A    -11.222318
      10A     -1.397125    11A     -1.345125    12A     -1.248131
      13A     -1.072111    14A     -1.023272    15A     -0.949928
      16A     -0.895184    17A     -0.822133    18A     -0.795030
      19A     -0.735852    20A     -0.678728    21A     -0.649465
      22A     -0.632392    23A     -0.628830    24A     -0.596946
      25A     -0.581333    26A     -0.567203    27A     -0.555143
      28A     -0.548677    29A     -0.538693    30A     -0.529506
      31A     -0.512617    32A     -0.502923    33A     -0.491645
      34A     -0.444465    35A     -0.434943    36A     -0.401597

  @DF-RHF Final Energy:  -439.13713664205147

   => Energetics <=

    Nuclear Repulsion Energy =            485.2256588610604808
    One-Electron Energy =               -1560.9775450299750901
    Two-Electron Energy =                 636.6147495268630792
    Total Energy =                       -439.1371366420514732
  Basis Set: (AUG-CC-PVTZ AUX)
    Blend: AUG-CC-PVTZ-RI
    Molecular point group: c1

    Geometry (in Angstrom), charge = 0, multiplicity = 1:

       Center              X                  Y                   Z               Mass
    ------------   -----------------  -----------------  -----------------  -----------------
         O           -2.899567356409    -0.341192831091    -0.248398334771    15.994914619570
         O           -0.581021956409    -1.513455731091     0.081892465229    15.994914619570
         N            0.666212043591     0.344808268909    -0.353021534771    14.003074004430
         C            1.953756043591    -0.306908731091    -0.131208534771    12.000000000000
         C           -1.786016956409     0.520450268909    -0.342827534771    12.000000000000
         C            2.310308043591    -0.311393731091     1.351072465229    12.000000000000
         C            3.008776043591     0.376638268909    -0.986225534771    12.000000000000
         C           -0.507642956409    -0.304657731091    -0.182707534771    12.000000000000
         C           -1.908964956409     1.587237968909     0.738870165229    12.000000000000
         H            1.819787043591    -1.339828731091    -0.464198534771     1.007825032230
         H            0.652385043591     1.352557268909    -0.464367534771     1.007825032230
         H           -1.767293956409     0.993491268909    -1.337173534771     1.007825032230
         H            2.410118043591     0.713343268909     1.722787465229     1.007825032230
         H            1.529194043591    -0.819807731091     1.920617465229     1.007825032230
         H            3.257631043591    -0.832276731091     1.520043465229     1.007825032230
         H            3.132001043591     1.423232268909    -0.685076534771     1.007825032230
         H            2.733133043591     0.347684268909    -2.042834534771     1.007825032230
         H            3.975435043591    -0.118550731091    -0.864926534771     1.007825032230
         H           -1.840519956409     1.125146268909     1.720522465229     1.007825032230
         H           -2.865519956409     2.088603268909     0.642729465229     1.007825032230
         H           -1.112508956409     2.351108268909     0.652795465229     1.007825032230
         H           -2.497473956409    -1.231891731091    -0.095381534771     1.007825032230

  Basis Set: AUG-CC-PVTZ
    Blend: AUG-CC-PVTZ
  Basis Set: (AUG-CC-PVTZ AUX)
    Blend: AUG-CC-PVTZ-JKFIT
	 Reference Energy          =    -439.1371366420514732 [Eh]
	 Singles Energy            =      -0.0000000000000000 [Eh]
	 Same-Spin Energy          =      -0.4461246575607127 [Eh]
	 Opposite-Spin Energy      =      -1.4638729970623641 [Eh]
	 Correlation Energy        =      -1.9099976546230768 [Eh]
	 Total Energy              =    -441.0471342966745283 [Eh]

	 ================> DF-SCS-MP2 Energies <==================
	-----------------------------------------------------------
	 SCS Same-Spin Scale       =       0.3333333333333333 [-]
	 SCS Opposite-Spin Scale   =       1.2000000000000000 [-]
	 SCS Same-Spin Energy      =      -0.1487082191869042 [Eh]
	 SCS Opposite-Spin Energy  =      -1.7566475964748369 [Eh]
	 SCS Correlation Energy    =      -1.9053558156617412 [Eh]
	 SCS Total Energy          =    -441.0424924577131947 [Eh]
	-----------------------------------------------------------

  Dipole Moment: [D]
     X:     3.5862      Y:     2.8948      Z:    -0.2443     Total:     4.6152

*** Psi4 exiting successfully. Buy a developer a beer!
