                               Psi4 1.4a3.dev225

  ==> Input File <==

--------------------------------------------------------------------------
#psi4
#
memory 32 gb

molecule  {
0 1
  O       -1.7446660    -1.3796590    -0.7880960
  O       -0.4296620     1.7569970     0.2600660
  N        0.4723820    -0.3330750    -0.0012650
  C        1.8394770     0.0732600     0.3013020
  C       -1.9099390    -0.0103690    -0.3967440
  C        2.4958720     0.7244850    -0.9128940
  C        2.6145980    -1.1365250     0.8043010
  C       -0.5442740     0.5588710    -0.0269710
  C       -2.8608870     0.1360220     0.7815810
  H        1.7638430     0.8203410     1.0982830
  H        0.2750420    -1.2730860    -0.3263580
  H       -2.2788125     0.5972832    -1.2612704
  H        2.5570320     0.0100450    -1.7401110
  H        1.9072700     1.5874400    -1.2316560
  H        3.5085800     1.0627310    -0.6705710
  H        2.6773940    -1.9046250     0.0252330
  H        2.1327900    -1.5715010     1.6841320
  H        3.6348850    -0.8497170     1.0733550
  H       -2.5011890    -0.4705790     1.6169940
  H       -3.8694610    -0.1962540     0.5126420
  H       -2.9055320     1.1820880     1.0905810
  H       -2.6295620    -1.7449530    -0.9570530
units angstrom
no_reorient  #important for SAPT in psi4, default
symmetry c1  #important for SAPT in psi4, default
}

set PROPERTIES_ORIGIN ["COM"]
properties('MP2/aug-cc-pvtz', properties = ['dipole'])
--------------------------------------------------------------------------

    Molecular point group: c1
  Charge       = 0
  Multiplicity = 1
  Basis Set: AUG-CC-PVTZ
    Blend: AUG-CC-PVTZ
  Basis Set: (AUG-CC-PVTZ AUX)
    Blend: AUG-CC-PVTZ-JKFIT

    Orbital Energies [Eh]
    ---------------------

    Doubly Occupied:

       1A    -20.581318     2A    -20.509316     3A    -15.575731
       4A    -11.343106     5A    -11.303398     6A    -11.264006
       7A    -11.229129     8A    -11.221377     9A    -11.209299
      10A     -1.387937    11A     -1.358805    12A     -1.227909
      13A     -1.057470    14A     -1.027884    15A     -0.937173
      16A     -0.896752    17A     -0.812879    18A     -0.777683
      19A     -0.710597    20A     -0.690324    21A     -0.643854
      22A     -0.640767    23A     -0.614210    24A     -0.594551
      25A     -0.578401    26A     -0.563216    27A     -0.551550
      28A     -0.542399    29A     -0.525533    30A     -0.520535
      31A     -0.516950    32A     -0.491002    33A     -0.480178
      34A     -0.458059    35A     -0.413776    36A     -0.382566

  @DF-RHF Final Energy:  -439.13732265821403

   => Energetics <=

    Nuclear Repulsion Energy =            485.8167052307325662
    One-Electron Energy =               -1562.6287805075530741
    Two-Electron Energy =                 637.6747526186063624
    Total Energy =                       -439.1373226582140887
  Basis Set: (AUG-CC-PVTZ AUX)
    Blend: AUG-CC-PVTZ-RI
    Molecular point group: c1

    Geometry (in Angstrom), charge = 0, multiplicity = 1:

       Center              X                  Y                   Z               Mass
    ------------   -----------------  -----------------  -----------------  -----------------
         O           -1.712326640035    -1.400621196936    -0.780961806818    15.994914619570
         O           -0.397322640035     1.736034803064     0.267200193182    15.994914619570
         N            0.504721359965    -0.354037196936     0.005869193182    14.003074004430
         C            1.871816359965     0.052297803064     0.308436193182    12.000000000000
         C           -1.877599640035    -0.031331196936    -0.389609806818    12.000000000000
         C            2.528211359965     0.703522803064    -0.905759806818    12.000000000000
         C            2.646937359965    -1.157487196936     0.811435193182    12.000000000000
         C           -0.511934640035     0.537908803064    -0.019836806818    12.000000000000
         C           -2.828547640035     0.115059803064     0.788715193182    12.000000000000
         H            1.796182359965     0.799378803064     1.105417193182     1.007825032230
         H            0.307381359965    -1.294048196936    -0.319223806818     1.007825032230
         H           -2.246473140035     0.576321003064    -1.254136206818     1.007825032230
         H            2.589371359965    -0.010917196936    -1.732976806818     1.007825032230
         H            1.939609359965     1.566477803064    -1.224521806818     1.007825032230
         H            3.540919359965     1.041768803064    -0.663436806818     1.007825032230
         H            2.709733359965    -1.925587196936     0.032367193182     1.007825032230
         H            2.165129359965    -1.592463196936     1.691266193182     1.007825032230
         H            3.667224359965    -0.870679196936     1.080489193182     1.007825032230
         H           -2.468849640035    -0.491541196936     1.624128193182     1.007825032230
         H           -3.837121640035    -0.217216196936     0.519776193182     1.007825032230
         H           -2.873192640035     1.161125803064     1.097715193182     1.007825032230
         H           -2.597222640035    -1.765915196936    -0.949918806818     1.007825032230

  Basis Set: AUG-CC-PVTZ
    Blend: AUG-CC-PVTZ
  Basis Set: (AUG-CC-PVTZ AUX)
    Blend: AUG-CC-PVTZ-JKFIT
	 Reference Energy          =    -439.1373226582140319 [Eh]
	 Singles Energy            =      -0.0000000000000000 [Eh]
	 Same-Spin Energy          =      -0.4455337741874513 [Eh]
	 Opposite-Spin Energy      =      -1.4636346417030630 [Eh]
	 Correlation Energy        =      -1.9091684158905142 [Eh]
	 Total Energy              =    -441.0464910741045514 [Eh]

	 ================> DF-SCS-MP2 Energies <==================
	-----------------------------------------------------------
	 SCS Same-Spin Scale       =       0.3333333333333333 [-]
	 SCS Opposite-Spin Scale   =       1.2000000000000000 [-]
	 SCS Same-Spin Energy      =      -0.1485112580624837 [Eh]
	 SCS Opposite-Spin Energy  =      -1.7563615700436757 [Eh]
	 SCS Correlation Energy    =      -1.9048728281061593 [Eh]
	 SCS Total Energy          =    -441.0421954863201677 [Eh]
	-----------------------------------------------------------

  Dipole Moment: [D]
     X:    -0.6665      Y:    -2.8837      Z:    -0.4564     Total:     2.9947

*** Psi4 exiting successfully. Buy a developer a beer!
