                               Psi4 1.3.2 release

  ==> Input File <==

--------------------------------------------------------------------------
#psi4
#
memory 32 gb

molecule  {
0 1
  O       -2.8968130    -0.3474360    -0.2563530
  O       -0.5177413    -1.5154569     0.0829297
  N        0.6646380     0.3451110    -0.3514860
  C        1.9521820    -0.3066060    -0.1296730
  C       -1.7418672     0.5848587    -0.3559697
  C        2.3087340    -0.3110910     1.3526080
  C        3.0072020     0.3769410    -0.9846900
  C       -0.5092170    -0.3043550    -0.1811720
  C       -1.8991130     1.5929580     0.7362800
  H        1.8182130    -1.3395260    -0.4626630
  H        0.6508110     1.3528600    -0.4628320
  H       -1.7688680     0.9937940    -1.3356380
  H        2.4085440     0.7136460     1.7243230
  H        1.5276200    -0.8195050     1.9221530
  H        3.2560570    -0.8319740     1.5215790
  H        3.1304270     1.4235350    -0.6835410
  H        2.7315590     0.3479870    -2.0412990
  H        3.9738610    -0.1182480    -0.8633910
  H       -1.8420940     1.1254490     1.7220580
  H       -2.8670940     2.0889060     0.6442650
  H       -1.1140830     2.3514110     0.6543310
  H       -2.4990480    -1.2315890    -0.0938460
units angstrom
no_reorient  #important for SAPT in psi4, default
symmetry c1  #important for SAPT in psi4, default
}

set PROPERTIES_ORIGIN ["COM"]
properties('MP2/aug-cc-pvtz', properties = ['dipole'])
--------------------------------------------------------------------------

    Molecular point group: c1
  Charge       = 0
  Multiplicity = 1
  Basis Set: AUG-CC-PVTZ
    Blend: AUG-CC-PVTZ
  Basis Set: (AUG-CC-PVTZ AUX)
    Blend: AUG-CC-PVTZ-JKFIT

    Orbital Energies [Eh]
    ---------------------

    Doubly Occupied:

       1A    -20.543735     2A    -20.532810     3A    -15.592897
       4A    -11.360224     5A    -11.300689     6A    -11.274944
       7A    -11.234439     8A    -11.231094     9A    -11.221044
      10A     -1.392722    11A     -1.324632    12A     -1.245258
      13A     -1.075724    14A     -1.031990    15A     -0.948558
      16A     -0.899831    17A     -0.822051    18A     -0.794660
      19A     -0.729325    20A     -0.676942    21A     -0.649398
      22A     -0.631324    23A     -0.626914    24A     -0.596674
      25A     -0.580249    26A     -0.568650    27A     -0.553647
      28A     -0.549124    29A     -0.532520    30A     -0.531900
      31A     -0.507839    32A     -0.501331    33A     -0.489091
      34A     -0.452871    35A     -0.436677    36A     -0.399760

  @DF-RHF Final Energy:  -439.12853788559505

   => Energetics <=

    Nuclear Repulsion Energy =            485.0065366245087262
    One-Electron Energy =               -1560.5870717627221893
    Two-Electron Energy =                 636.4519972526184119
    Total Energy =                       -439.1285378855950512
  Basis Set: (AUG-CC-PVTZ AUX)
    Blend: AUG-CC-PVTZ-RI
    Molecular point group: c1

    Geometry (in Angstrom), charge = 0, multiplicity = 1:

       Center              X                  Y                   Z               Mass
    ------------   -----------------  -----------------  -----------------  -----------------
         O           -2.908911334873    -0.353022885077    -0.254948627861    15.994914619570
         O           -0.529839634873    -1.521043785077     0.084334072139    15.994914619570
         N            0.652539665127     0.339524114923    -0.350081627861    14.003074004430
         C            1.940083665127    -0.312192885077    -0.128268627861    12.000000000000
         C           -1.753965534873     0.579271814923    -0.354565327861    12.000000000000
         C            2.296635665127    -0.316677885077     1.354012372139    12.000000000000
         C            2.995103665127     0.371354114923    -0.983285627861    12.000000000000
         C           -0.521315334873    -0.309941885077    -0.179767627861    12.000000000000
         C           -1.911211334873     1.587371114923     0.737684372139    12.000000000000
         H            1.806114665127    -1.345112885077    -0.461258627861     1.007825032230
         H            0.638712665127     1.347273114923    -0.461427627861     1.007825032230
         H           -1.780966334873     0.988207114923    -1.334233627861     1.007825032230
         H            2.396445665127     0.708059114923     1.725727372139     1.007825032230
         H            1.515521665127    -0.825091885077     1.923557372139     1.007825032230
         H            3.243958665127    -0.837560885077     1.522983372139     1.007825032230
         H            3.118328665127     1.417948114923    -0.682136627861     1.007825032230
         H            2.719460665127     0.342400114923    -2.039894627861     1.007825032230
         H            3.961762665127    -0.123834885077    -0.861986627861     1.007825032230
         H           -1.854192334873     1.119862114923     1.723462372139     1.007825032230
         H           -2.879192334873     2.083319114923     0.645669372139     1.007825032230
         H           -1.126181334873     2.345824114923     0.655735372139     1.007825032230
         H           -2.511146334873    -1.237175885077    -0.092441627861     1.007825032230

  Basis Set: AUG-CC-PVTZ
    Blend: AUG-CC-PVTZ
  Basis Set: (AUG-CC-PVTZ AUX)
    Blend: AUG-CC-PVTZ-JKFIT
	 Reference Energy          =    -439.1285378855950512 [Eh]
	 Singles Energy            =      -0.0000000000000000 [Eh]
	 Same-Spin Energy          =      -0.4465065441167672 [Eh]
	 Opposite-Spin Energy      =      -1.4657283453985321 [Eh]
	 Correlation Energy        =      -1.9122348895152994 [Eh]
	 Total Energy              =    -441.0407727751103266 [Eh]

	 ================> DF-SCS-MP2 Energies <==================
	-----------------------------------------------------------
	 SCS Same-Spin Scale       =       0.3333333333333333 [-]
	 SCS Opposite-Spin Scale   =       1.2000000000000000 [-]
	 SCS Same-Spin Energy      =      -0.1488355147055891 [Eh]
	 SCS Opposite-Spin Energy  =      -1.7588740144782384 [Eh]
	 SCS Correlation Energy    =      -1.9077095291838275 [Eh]
	 SCS Total Energy          =    -441.0362474147788703 [Eh]
	-----------------------------------------------------------

  Dipole Moment: [D]
     X:     3.5085      Y:     3.1160      Z:    -0.2198     Total:     4.6976

*** Psi4 exiting successfully. Buy a developer a beer!
