                               Psi4 1.3.2 release

  ==> Input File <==

--------------------------------------------------------------------------
#psi4
#
memory 32 gb

molecule  {
0 1
  O       -2.8968130    -0.3474360    -0.2563530
  O       -0.5825960    -1.5131530     0.0834280
  N        0.6646380     0.3451110    -0.3514860
  C        1.9521820    -0.3066060    -0.1296730
  C       -1.7875910     0.5207530    -0.3412920
  C        2.3087340    -0.3110910     1.3526080
  C        3.0072020     0.3769410    -0.9846900
  C       -0.5092170    -0.3043550    -0.1811720
  C       -1.8992174     1.6023400     0.7268519
  H        1.8182130    -1.3395260    -0.4626630
  H        0.6508110     1.3528600    -0.4628320
  H       -1.7695571     1.0024372    -1.3314927
  H        2.4085440     0.7136460     1.7243230
  H        1.5276200    -0.8195050     1.9221530
  H        3.2560570    -0.8319740     1.5215790
  H        3.1304270     1.4235350    -0.6835410
  H        2.7315590     0.3479870    -2.0412990
  H        3.9738610    -0.1182480    -0.8633910
  H       -1.8420940     1.1254490     1.7220580
  H       -2.8670940     2.0889060     0.6442650
  H       -1.1140830     2.3514110     0.6543310
  H       -2.4990480    -1.2315890    -0.0938460
units angstrom
no_reorient  #important for SAPT in psi4, default
symmetry c1  #important for SAPT in psi4, default
}

set PROPERTIES_ORIGIN ["COM"]
properties('MP2/aug-cc-pvtz', properties = ['dipole'])
--------------------------------------------------------------------------

    Molecular point group: c1
  Charge       = 0
  Multiplicity = 1
  Basis Set: AUG-CC-PVTZ
    Blend: AUG-CC-PVTZ
  Basis Set: (AUG-CC-PVTZ AUX)
    Blend: AUG-CC-PVTZ-JKFIT

    Orbital Energies [Eh]
    ---------------------

    Doubly Occupied:

       1A    -20.548143     2A    -20.532620     3A    -15.595826
       4A    -11.358544     5A    -11.297400     6A    -11.277274
       7A    -11.232359     8A    -11.230674     9A    -11.222270
      10A     -1.397312    11A     -1.345877    12A     -1.248070
      13A     -1.072320    14A     -1.024062    15A     -0.949887
      16A     -0.894903    17A     -0.822359    18A     -0.794993
      19A     -0.736582    20A     -0.678959    21A     -0.649493
      22A     -0.632650    23A     -0.628802    24A     -0.597196
      25A     -0.581670    26A     -0.568500    27A     -0.555129
      28A     -0.549088    29A     -0.538374    30A     -0.529254
      31A     -0.512529    32A     -0.502827    33A     -0.491611
      34A     -0.444441    35A     -0.434757    36A     -0.401465

  @DF-RHF Final Energy:  -439.13761301043041

   => Energetics <=

    Nuclear Repulsion Energy =            485.2527060651062243
    One-Electron Energy =               -1561.0241951851533031
    Two-Electron Energy =                 636.6338761096167218
    Total Energy =                       -439.1376130104304139
  Basis Set: (AUG-CC-PVTZ AUX)
    Blend: AUG-CC-PVTZ-RI
    Molecular point group: c1

    Geometry (in Angstrom), charge = 0, multiplicity = 1:

       Center              X                  Y                   Z               Mass
    ------------   -----------------  -----------------  -----------------  -----------------
         O           -2.896798113319    -0.348361192305    -0.255521826045    15.994914619570
         O           -0.582581113319    -1.514078192305     0.084259173955    15.994914619570
         N            0.664652886681     0.344185807695    -0.350654826045    14.003074004430
         C            1.952196886681    -0.307531192305    -0.128841826045    12.000000000000
         C           -1.787576113319     0.519827807695    -0.340460826045    12.000000000000
         C            2.308748886681    -0.312016192305     1.353439173955    12.000000000000
         C            3.007216886681     0.376015807695    -0.983858826045    12.000000000000
         C           -0.509202113319    -0.305280192305    -0.180340826045    12.000000000000
         C           -1.899202513319     1.601414807695     0.727683073955    12.000000000000
         H            1.818227886681    -1.340451192305    -0.461831826045     1.007825032230
         H            0.650825886681     1.351934807695    -0.462000826045     1.007825032230
         H           -1.769542213319     1.001512007695    -1.330661526045     1.007825032230
         H            2.408558886681     0.712720807695     1.725154173955     1.007825032230
         H            1.527634886681    -0.820430192305     1.922984173955     1.007825032230
         H            3.256071886681    -0.832899192305     1.522410173955     1.007825032230
         H            3.130441886681     1.422609807695    -0.682709826045     1.007825032230
         H            2.731573886681     0.347061807695    -2.040467826045     1.007825032230
         H            3.973875886681    -0.119173192305    -0.862559826045     1.007825032230
         H           -1.842079113319     1.124523807695     1.722889173955     1.007825032230
         H           -2.867079113319     2.087980807695     0.645096173955     1.007825032230
         H           -1.114068113319     2.350485807695     0.655162173955     1.007825032230
         H           -2.499033113319    -1.232514192305    -0.093014826045     1.007825032230

  Basis Set: AUG-CC-PVTZ
    Blend: AUG-CC-PVTZ
  Basis Set: (AUG-CC-PVTZ AUX)
    Blend: AUG-CC-PVTZ-JKFIT
	 Reference Energy          =    -439.1376130104304139 [Eh]
	 Singles Energy            =      -0.0000000000000000 [Eh]
	 Same-Spin Energy          =      -0.4460310428700398 [Eh]
	 Opposite-Spin Energy      =      -1.4636556941068430 [Eh]
	 Correlation Energy        =      -1.9096867369768828 [Eh]
	 Total Energy              =    -441.0472997474072940 [Eh]

	 ================> DF-SCS-MP2 Energies <==================
	-----------------------------------------------------------
	 SCS Same-Spin Scale       =       0.3333333333333333 [-]
	 SCS Opposite-Spin Scale   =       1.2000000000000000 [-]
	 SCS Same-Spin Energy      =      -0.1486770142900133 [Eh]
	 SCS Opposite-Spin Energy  =      -1.7563868329282115 [Eh]
	 SCS Correlation Energy    =      -1.9050638472182249 [Eh]
	 SCS Total Energy          =    -441.0426768576486438 [Eh]
	-----------------------------------------------------------

  Dipole Moment: [D]
     X:     3.5790      Y:     2.9191      Z:    -0.2286     Total:     4.6241

*** Psi4 exiting successfully. Buy a developer a beer!
