                               Psi4 1.3.2 release

  ==> Input File <==

--------------------------------------------------------------------------
#psi4
#
memory 32 gb

molecule  {
0 1
  O       -2.8968130    -0.3474360    -0.2563530
  O       -0.5825960    -1.5131530     0.0834280
  N        0.6646380     0.3451110    -0.3514860
  C        1.9521820    -0.3066060    -0.1296730
  C       -1.8186147     0.5582493    -0.3488882
  C        2.3087340    -0.3110910     1.3526080
  C        3.0072020     0.3769410    -0.9846900
  C       -0.5092170    -0.3043550    -0.1811720
  C       -1.8991130     1.5929580     0.7362800
  H        1.8182130    -1.3395260    -0.4626630
  H        0.6508110     1.3528600    -0.4628320
  H       -1.7688680     0.9937940    -1.3356380
  H        2.4085440     0.7136460     1.7243230
  H        1.5276200    -0.8195050     1.9221530
  H        3.2560570    -0.8319740     1.5215790
  H        3.1304270     1.4235350    -0.6835410
  H        2.7315590     0.3479870    -2.0412990
  H        3.9738610    -0.1182480    -0.8633910
  H       -1.8420940     1.1254490     1.7220580
  H       -2.8670940     2.0889060     0.6442650
  H       -1.1140830     2.3514110     0.6543310
  H       -2.5306185    -1.2450166    -0.0932496
units angstrom
no_reorient  #important for SAPT in psi4, default
symmetry c1  #important for SAPT in psi4, default
}

set PROPERTIES_ORIGIN ["COM"]
properties('MP2/aug-cc-pvtz', properties = ['dipole'])
--------------------------------------------------------------------------

    Molecular point group: c1
  Charge       = 0
  Multiplicity = 1
  Basis Set: AUG-CC-PVTZ
    Blend: AUG-CC-PVTZ
  Basis Set: (AUG-CC-PVTZ AUX)
    Blend: AUG-CC-PVTZ-JKFIT

    Orbital Energies [Eh]
    ---------------------

    Doubly Occupied:

       1A    -20.546198     2A    -20.530987     3A    -15.594569
       4A    -11.357097     5A    -11.298139     6A    -11.276271
       7A    -11.231742     8A    -11.229784     9A    -11.221662
      10A     -1.392990    11A     -1.343837    12A     -1.246208
      13A     -1.070627    14A     -1.027476    15A     -0.949245
      16A     -0.888654    17A     -0.823086    18A     -0.794800
      19A     -0.731204    20A     -0.679821    21A     -0.651972
      22A     -0.631439    23A     -0.627832    24A     -0.596254
      25A     -0.584617    26A     -0.569529    27A     -0.554419
      28A     -0.546756    29A     -0.539044    30A     -0.531403
      31A     -0.506363    32A     -0.501972    33A     -0.490116
      34A     -0.449764    35A     -0.425740    36A     -0.400426

  @DF-RHF Final Energy:  -439.13563762569834

   => Energetics <=

    Nuclear Repulsion Energy =            484.6042428755849869
    One-Electron Energy =               -1559.7956746791289788
    Two-Electron Energy =                 636.0557941778456552
    Total Energy =                       -439.1356376256983367
  Basis Set: (AUG-CC-PVTZ AUX)
    Blend: AUG-CC-PVTZ-RI
    Molecular point group: c1

    Geometry (in Angstrom), charge = 0, multiplicity = 1:

       Center              X                  Y                   Z               Mass
    ------------   -----------------  -----------------  -----------------  -----------------
         O           -2.893730446459    -0.350765013868    -0.255662229431    15.994914619570
         O           -0.579513446459    -1.516482013868     0.084118770569    15.994914619570
         N            0.667720553541     0.341781986132    -0.350795229431    14.003074004430
         C            1.955264553541    -0.309935013868    -0.128982229431    12.000000000000
         C           -1.815532146459     0.554920286132    -0.348197429431    12.000000000000
         C            2.311816553541    -0.314420013868     1.353298770569    12.000000000000
         C            3.010284553541     0.373611986132    -0.983999229431    12.000000000000
         C           -0.506134446459    -0.307684013868    -0.180481229431    12.000000000000
         C           -1.896030446459     1.589628986132     0.736970770569    12.000000000000
         H            1.821295553541    -1.342855013868    -0.461972229431     1.007825032230
         H            0.653893553541     1.349530986132    -0.462141229431     1.007825032230
         H           -1.765785446459     0.990464986132    -1.334947229431     1.007825032230
         H            2.411626553541     0.710316986132     1.725013770569     1.007825032230
         H            1.530702553541    -0.822834013868     1.922843770569     1.007825032230
         H            3.259139553541    -0.835303013868     1.522269770569     1.007825032230
         H            3.133509553541     1.420205986132    -0.682850229431     1.007825032230
         H            2.734641553541     0.344657986132    -2.040608229431     1.007825032230
         H            3.976943553541    -0.121577013868    -0.862700229431     1.007825032230
         H           -1.839011446459     1.122119986132     1.722748770569     1.007825032230
         H           -2.864011446459     2.085576986132     0.644955770569     1.007825032230
         H           -1.111000446459     2.348081986132     0.655021770569     1.007825032230
         H           -2.527535946459    -1.248345613868    -0.092558829431     1.007825032230

  Basis Set: AUG-CC-PVTZ
    Blend: AUG-CC-PVTZ
  Basis Set: (AUG-CC-PVTZ AUX)
    Blend: AUG-CC-PVTZ-JKFIT
	 Reference Energy          =    -439.1356376256983367 [Eh]
	 Singles Energy            =      -0.0000000000000000 [Eh]
	 Same-Spin Energy          =      -0.4459014399282365 [Eh]
	 Opposite-Spin Energy      =      -1.4634546831526478 [Eh]
	 Correlation Energy        =      -1.9093561230808844 [Eh]
	 Total Energy              =    -441.0449937487792340 [Eh]

	 ================> DF-SCS-MP2 Energies <==================
	-----------------------------------------------------------
	 SCS Same-Spin Scale       =       0.3333333333333333 [-]
	 SCS Opposite-Spin Scale   =       1.2000000000000000 [-]
	 SCS Same-Spin Energy      =      -0.1486338133094122 [Eh]
	 SCS Opposite-Spin Energy  =      -1.7561456197831773 [Eh]
	 SCS Correlation Energy    =      -1.9047794330925893 [Eh]
	 SCS Total Energy          =    -441.0404170587909221 [Eh]
	-----------------------------------------------------------

  Dipole Moment: [D]
     X:     3.5226      Y:     2.9217      Z:    -0.2227     Total:     4.5820

*** Psi4 exiting successfully. Buy a developer a beer!
