                               Psi4 1.3.2 release

  ==> Input File <==

--------------------------------------------------------------------------
#psi4
#
memory 32 gb

molecule  {
0 1
  O       -2.8968130    -0.3474360    -0.2563530
  O       -0.5825960    -1.5131530     0.0834280
  N        0.6981410     0.2841265    -0.3384128
  C        1.9521820    -0.3066060    -0.1296730
  C       -1.8297988     0.4545353    -0.3255008
  C        2.3087340    -0.3110910     1.3526080
  C        3.0072020     0.3769410    -0.9846900
  C       -0.5092170    -0.3043550    -0.1811720
  C       -1.8991130     1.5929580     0.7362800
  H        1.8182130    -1.3395260    -0.4626630
  H        0.6508110     1.3528600    -0.4628320
  H       -1.7688680     0.9937940    -1.3356380
  H        2.4085440     0.7136460     1.7243230
  H        1.5276200    -0.8195050     1.9221530
  H        3.2560570    -0.8319740     1.5215790
  H        3.1304270     1.4235350    -0.6835410
  H        2.7315590     0.3479870    -2.0412990
  H        3.9738610    -0.1182480    -0.8633910
  H       -1.8420940     1.1254490     1.7220580
  H       -2.8670940     2.0889060     0.6442650
  H       -1.1140830     2.3514110     0.6543310
  H       -2.4990480    -1.2315890    -0.0938460
units angstrom
no_reorient  #important for SAPT in psi4, default
symmetry c1  #important for SAPT in psi4, default
}

set PROPERTIES_ORIGIN ["COM"]
properties('MP2/aug-cc-pvtz', properties = ['dipole'])
--------------------------------------------------------------------------

    Molecular point group: c1
  Charge       = 0
  Multiplicity = 1
  Basis Set: AUG-CC-PVTZ
    Blend: AUG-CC-PVTZ
  Basis Set: (AUG-CC-PVTZ AUX)
    Blend: AUG-CC-PVTZ-JKFIT

    Orbital Energies [Eh]
    ---------------------

    Doubly Occupied:

       1A    -20.558895     2A    -20.528609     3A    -15.599027
       4A    -11.356802     5A    -11.304060     6A    -11.272151
       7A    -11.231466     8A    -11.230569     9A    -11.219625
      10A     -1.413320    11A     -1.369771    12A     -1.251417
      13A     -1.067924    14A     -1.016984    15A     -0.948952
      16A     -0.896267    17A     -0.829609    18A     -0.780345
      19A     -0.753973    20A     -0.680746    21A     -0.651478
      22A     -0.632884    23A     -0.631609    24A     -0.596254
      25A     -0.592021    26A     -0.567770    27A     -0.554171
      28A     -0.548647    29A     -0.546349    30A     -0.531276
      31A     -0.513992    32A     -0.502637    33A     -0.488785
      34A     -0.434977    35A     -0.431948    36A     -0.394573

  @DF-RHF Final Energy:  -439.12275732710992

   => Energetics <=

    Nuclear Repulsion Energy =            486.4825926676651306
    One-Electron Energy =               -1563.3509358484454879
    Two-Electron Energy =                 637.7455858536704909
    Total Energy =                       -439.1227573271098663
  Basis Set: (AUG-CC-PVTZ AUX)
    Blend: AUG-CC-PVTZ-RI
    Molecular point group: c1

    Geometry (in Angstrom), charge = 0, multiplicity = 1:

       Center              X                  Y                   Z               Mass
    ------------   -----------------  -----------------  -----------------  -----------------
         O           -2.896528069308    -0.334860427872    -0.259194889197    15.994914619570
         O           -0.582311069308    -1.500577427872     0.080586110803    15.994914619570
         N            0.698425930692     0.296702072128    -0.341254689197    14.003074004430
         C            1.952466930692    -0.294030427872    -0.132514889197    12.000000000000
         C           -1.829513869308     0.467110872128    -0.328342689197    12.000000000000
         C            2.309018930692    -0.298515427872     1.349766110803    12.000000000000
         C            3.007486930692     0.389516572128    -0.987531889197    12.000000000000
         C           -0.508932069308    -0.291779427872    -0.184013889197    12.000000000000
         C           -1.898828069308     1.605533572128     0.733438110803    12.000000000000
         H            1.818497930692    -1.326950427872    -0.465504889197     1.007825032230
         H            0.651095930692     1.365435572128    -0.465673889197     1.007825032230
         H           -1.768583069308     1.006369572128    -1.338479889197     1.007825032230
         H            2.408828930692     0.726221572128     1.721481110803     1.007825032230
         H            1.527904930692    -0.806929427872     1.919311110803     1.007825032230
         H            3.256341930692    -0.819398427872     1.518737110803     1.007825032230
         H            3.130711930692     1.436110572128    -0.686382889197     1.007825032230
         H            2.731843930692     0.360562572128    -2.044140889197     1.007825032230
         H            3.974145930692    -0.105672427872    -0.866232889197     1.007825032230
         H           -1.841809069308     1.138024572128     1.719216110803     1.007825032230
         H           -2.866809069308     2.101481572128     0.641423110803     1.007825032230
         H           -1.113798069308     2.363986572128     0.651489110803     1.007825032230
         H           -2.498763069308    -1.219013427872    -0.096687889197     1.007825032230

  Basis Set: AUG-CC-PVTZ
    Blend: AUG-CC-PVTZ
  Basis Set: (AUG-CC-PVTZ AUX)
    Blend: AUG-CC-PVTZ-JKFIT
	 Reference Energy          =    -439.1227573271099232 [Eh]
	 Singles Energy            =      -0.0000000000000000 [Eh]
	 Same-Spin Energy          =      -0.4470652440836083 [Eh]
	 Opposite-Spin Energy      =      -1.4641068390526024 [Eh]
	 Correlation Energy        =      -1.9111720831362107 [Eh]
	 Total Energy              =    -441.0339294102461167 [Eh]

	 ================> DF-SCS-MP2 Energies <==================
	-----------------------------------------------------------
	 SCS Same-Spin Scale       =       0.3333333333333333 [-]
	 SCS Opposite-Spin Scale   =       1.2000000000000000 [-]
	 SCS Same-Spin Energy      =      -0.1490217480278694 [Eh]
	 SCS Opposite-Spin Energy  =      -1.7569282068631229 [Eh]
	 SCS Correlation Energy    =      -1.9059499548909924 [Eh]
	 SCS Total Energy          =    -441.0287072820009371 [Eh]
	-----------------------------------------------------------

  Dipole Moment: [D]
     X:     3.2433      Y:     2.7885      Z:    -0.2532     Total:     4.2847

*** Psi4 exiting successfully. Buy a developer a beer!
