                               Psi4 1.3.2 release

  ==> Input File <==

--------------------------------------------------------------------------
#psi4
#
memory 32 gb

molecule  {
0 1
  O       -2.8968130    -0.3474360    -0.2563530
  O       -0.5825960    -1.5131530     0.0834280
  N        0.6646380     0.3451110    -0.3514860
  C        1.9521820    -0.3066060    -0.1296730
  C       -1.7875910     0.5207530    -0.3412920
  C        2.3087340    -0.3110910     1.3526080
  C        3.0072020     0.3769410    -0.9846900
  C       -0.5092170    -0.3043550    -0.1811720
  C       -1.8986107     1.5546208     0.7731649
  H        1.8182130    -1.3395260    -0.4626630
  H        0.6508110     1.3528600    -0.4628320
  H       -1.7661263     0.9588677    -1.3514589
  H        2.4085440     0.7136460     1.7243230
  H        1.5276200    -0.8195050     1.9221530
  H        3.2560570    -0.8319740     1.5215790
  H        3.1304270     1.4235350    -0.6835410
  H        2.7315590     0.3479870    -2.0412990
  H        3.9738610    -0.1182480    -0.8633910
  H       -1.8420940     1.1254490     1.7220580
  H       -2.8670940     2.0889060     0.6442650
  H       -1.1140830     2.3514110     0.6543310
  H       -2.4990480    -1.2315890    -0.0938460
units angstrom
no_reorient  #important for SAPT in psi4, default
symmetry c1  #important for SAPT in psi4, default
}

set PROPERTIES_ORIGIN ["COM"]
properties('MP2/aug-cc-pvtz', properties = ['dipole'])
--------------------------------------------------------------------------

    Molecular point group: c1
  Charge       = 0
  Multiplicity = 1
  Basis Set: AUG-CC-PVTZ
    Blend: AUG-CC-PVTZ
  Basis Set: (AUG-CC-PVTZ AUX)
    Blend: AUG-CC-PVTZ-JKFIT

    Orbital Energies [Eh]
    ---------------------

    Doubly Occupied:

       1A    -20.546552     2A    -20.531974     3A    -15.595336
       4A    -11.357325     5A    -11.297412     6A    -11.277062
       7A    -11.232201     8A    -11.231819     9A    -11.222173
      10A     -1.396926    11A     -1.345470    12A     -1.247652
      13A     -1.072067    14A     -1.023420    15A     -0.949756
      16A     -0.895828    17A     -0.822603    18A     -0.794998
      19A     -0.736223    20A     -0.678598    21A     -0.649337
      22A     -0.631669    23A     -0.628873    24A     -0.597973
      25A     -0.584723    26A     -0.567223    27A     -0.554937
      28A     -0.544580    29A     -0.539242    30A     -0.529929
      31A     -0.511729    32A     -0.502559    33A     -0.491058
      34A     -0.446273    35A     -0.432663    36A     -0.401330

  @DF-RHF Final Energy:  -439.13423374880205

   => Energetics <=

    Nuclear Repulsion Energy =            485.5263728826699889
    One-Electron Energy =               -1561.5822248996007602
    Two-Electron Energy =                 636.9216182681285545
    Total Energy =                       -439.1342337488021030
  Basis Set: (AUG-CC-PVTZ AUX)
    Blend: AUG-CC-PVTZ-RI
    Molecular point group: c1

    Geometry (in Angstrom), charge = 0, multiplicity = 1:

       Center              X                  Y                   Z               Mass
    ------------   -----------------  -----------------  -----------------  -----------------
         O           -2.896880023968    -0.343658170991    -0.259607680434    15.994914619570
         O           -0.582663023968    -1.509375170991     0.080173319566    15.994914619570
         N            0.664570976032     0.348888829009    -0.354740680434    14.003074004430
         C            1.952114976032    -0.302828170991    -0.132927680434    12.000000000000
         C           -1.787658023968     0.524530829009    -0.344546680434    12.000000000000
         C            2.308666976032    -0.307313170991     1.349353319566    12.000000000000
         C            3.007134976032     0.380718829009    -0.987944680434    12.000000000000
         C           -0.509284023968    -0.300577170991    -0.184426680434    12.000000000000
         C           -1.898677723968     1.558398629009     0.769910219566    12.000000000000
         H            1.818145976032    -1.335748170991    -0.465917680434     1.007825032230
         H            0.650743976032     1.356637829009    -0.466086680434     1.007825032230
         H           -1.766193323968     0.962645529009    -1.354713580434     1.007825032230
         H            2.408476976032     0.717423829009     1.721068319566     1.007825032230
         H            1.527552976032    -0.815727170991     1.918898319566     1.007825032230
         H            3.255989976032    -0.828196170991     1.518324319566     1.007825032230
         H            3.130359976032     1.427312829009    -0.686795680434     1.007825032230
         H            2.731491976032     0.351764829009    -2.044553680434     1.007825032230
         H            3.973793976032    -0.114470170991    -0.866645680434     1.007825032230
         H           -1.842161023968     1.129226829009     1.718803319566     1.007825032230
         H           -2.867161023968     2.092683829009     0.641010319566     1.007825032230
         H           -1.114150023968     2.355188829009     0.651076319566     1.007825032230
         H           -2.499115023968    -1.227811170991    -0.097100680434     1.007825032230

  Basis Set: AUG-CC-PVTZ
    Blend: AUG-CC-PVTZ
  Basis Set: (AUG-CC-PVTZ AUX)
    Blend: AUG-CC-PVTZ-JKFIT
	 Reference Energy          =    -439.1342337488020462 [Eh]
	 Singles Energy            =      -0.0000000000000000 [Eh]
	 Same-Spin Energy          =      -0.4460988835385525 [Eh]
	 Opposite-Spin Energy      =      -1.4638149515641241 [Eh]
	 Correlation Energy        =      -1.9099138351026765 [Eh]
	 Total Energy              =    -441.0441475839047030 [Eh]

	 ================> DF-SCS-MP2 Energies <==================
	-----------------------------------------------------------
	 SCS Same-Spin Scale       =       0.3333333333333333 [-]
	 SCS Opposite-Spin Scale   =       1.2000000000000000 [-]
	 SCS Same-Spin Energy      =      -0.1486996278461842 [Eh]
	 SCS Opposite-Spin Energy  =      -1.7565779418769489 [Eh]
	 SCS Correlation Energy    =      -1.9052775697231330 [Eh]
	 SCS Total Energy          =    -441.0395113185251716 [Eh]
	-----------------------------------------------------------

  Dipole Moment: [D]
     X:     3.5675      Y:     2.9041      Z:    -0.2165     Total:     4.6052

*** Psi4 exiting successfully. Buy a developer a beer!
