                               Psi4 1.3.2 release

  ==> Input File <==

--------------------------------------------------------------------------
#psi4
#
memory 32 gb

molecule  {
0 1
  O       -2.8968130    -0.3474360    -0.2563530
  O       -0.5825960    -1.5131530     0.0834280
  N        0.6626691     0.3492543    -0.3264202
  C        1.9521820    -0.3066060    -0.1296730
  C       -1.7875910     0.5207530    -0.3412920
  C        2.2859433    -0.2984145     1.3578897
  C        3.0072020     0.3769410    -0.9846900
  C       -0.5092170    -0.3043550    -0.1811720
  C       -1.8991130     1.5929580     0.7362800
  H        1.8182130    -1.3395260    -0.4626630
  H        0.6508110     1.3528600    -0.4628320
  H       -1.7688680     0.9937940    -1.3356380
  H        2.4085440     0.7136460     1.7243230
  H        1.5276200    -0.8195050     1.9221530
  H        3.2560570    -0.8319740     1.5215790
  H        3.1304270     1.4235350    -0.6835410
  H        2.7315590     0.3479870    -2.0412990
  H        3.9738610    -0.1182480    -0.8633910
  H       -1.8420940     1.1254490     1.7220580
  H       -2.8670940     2.0889060     0.6442650
  H       -1.1140830     2.3514110     0.6543310
  H       -2.4990480    -1.2315890    -0.0938460
units angstrom
no_reorient  #important for SAPT in psi4, default
symmetry c1  #important for SAPT in psi4, default
}

set PROPERTIES_ORIGIN ["COM"]
properties('MP2/aug-cc-pvtz', properties = ['dipole'])
--------------------------------------------------------------------------

    Molecular point group: c1
  Charge       = 0
  Multiplicity = 1
  Basis Set: AUG-CC-PVTZ
    Blend: AUG-CC-PVTZ
  Basis Set: (AUG-CC-PVTZ AUX)
    Blend: AUG-CC-PVTZ-JKFIT

    Orbital Energies [Eh]
    ---------------------

    Doubly Occupied:

       1A    -20.547508     2A    -20.531577     3A    -15.595148
       4A    -11.357588     5A    -11.297030     6A    -11.277592
       7A    -11.233396     8A    -11.230423     9A    -11.221867
      10A     -1.396881    11A     -1.345485    12A     -1.248506
      13A     -1.072427    14A     -1.023422    15A     -0.950579
      16A     -0.894561    17A     -0.822495    18A     -0.795938
      19A     -0.736238    20A     -0.678980    21A     -0.649646
      22A     -0.632267    23A     -0.629188    24A     -0.597904
      25A     -0.581933    26A     -0.567313    27A     -0.557155
      28A     -0.545559    29A     -0.538471    30A     -0.526994
      31A     -0.511508    32A     -0.505438    33A     -0.493604
      34A     -0.444691    35A     -0.433677    36A     -0.400261

  @DF-RHF Final Energy:  -439.13698363368900

   => Energetics <=

    Nuclear Repulsion Energy =            485.5962499213648584
    One-Electron Energy =               -1561.7199638407025759
    Two-Electron Energy =                 636.9867302856487186
    Total Energy =                       -439.1369836336889421
  Basis Set: (AUG-CC-PVTZ AUX)
    Blend: AUG-CC-PVTZ-RI
    Molecular point group: c1

    Geometry (in Angstrom), charge = 0, multiplicity = 1:

       Center              X                  Y                   Z               Mass
    ------------   -----------------  -----------------  -----------------  -----------------
         O           -2.894516465603    -0.349038886762    -0.259513889798    15.994914619570
         O           -0.580299465603    -1.514755886762     0.080267110202    15.994914619570
         N            0.664965634397     0.347651413238    -0.329581089798    14.003074004430
         C            1.954478534397    -0.308208886762    -0.132833889798    12.000000000000
         C           -1.785294465603     0.519150113238    -0.344452889798    12.000000000000
         C            2.288239834397    -0.300017386762     1.354728810202    12.000000000000
         C            3.009498534397     0.375338113238    -0.987850889798    12.000000000000
         C           -0.506920465603    -0.305957886762    -0.184332889798    12.000000000000
         C           -1.896816465603     1.591355113238     0.733119110202    12.000000000000
         H            1.820509534397    -1.341128886762    -0.465823889798     1.007825032230
         H            0.653107534397     1.351257113238    -0.465992889798     1.007825032230
         H           -1.766571465603     0.992191113238    -1.338798889798     1.007825032230
         H            2.410840534397     0.712043113238     1.721162110202     1.007825032230
         H            1.529916534397    -0.821107886762     1.918992110202     1.007825032230
         H            3.258353534397    -0.833576886762     1.518418110202     1.007825032230
         H            3.132723534397     1.421932113238    -0.686701889798     1.007825032230
         H            2.733855534397     0.346384113238    -2.044459889798     1.007825032230
         H            3.976157534397    -0.119850886762    -0.866551889798     1.007825032230
         H           -1.839797465603     1.123846113238     1.718897110202     1.007825032230
         H           -2.864797465603     2.087303113238     0.641104110202     1.007825032230
         H           -1.111786465603     2.349808113238     0.651170110202     1.007825032230
         H           -2.496751465603    -1.233191886762    -0.097006889798     1.007825032230

  Basis Set: AUG-CC-PVTZ
    Blend: AUG-CC-PVTZ
  Basis Set: (AUG-CC-PVTZ AUX)
    Blend: AUG-CC-PVTZ-JKFIT
	 Reference Energy          =    -439.1369836336889989 [Eh]
	 Singles Energy            =      -0.0000000000000000 [Eh]
	 Same-Spin Energy          =      -0.4460706719500415 [Eh]
	 Opposite-Spin Energy      =      -1.4636940322183949 [Eh]
	 Correlation Energy        =      -1.9097647041684365 [Eh]
	 Total Energy              =    -441.0467483378574229 [Eh]

	 ================> DF-SCS-MP2 Energies <==================
	-----------------------------------------------------------
	 SCS Same-Spin Scale       =       0.3333333333333333 [-]
	 SCS Opposite-Spin Scale   =       1.2000000000000000 [-]
	 SCS Same-Spin Energy      =      -0.1486902239833471 [Eh]
	 SCS Opposite-Spin Energy  =      -1.7564328386620738 [Eh]
	 SCS Correlation Energy    =      -1.9051230626454210 [Eh]
	 SCS Total Energy          =    -441.0421066963344288 [Eh]
	-----------------------------------------------------------

  Dipole Moment: [D]
     X:     3.6104      Y:     2.9401      Z:    -0.2838     Total:     4.6648

*** Psi4 exiting successfully. Buy a developer a beer!
