                               Psi4 1.3.2 release

  ==> Input File <==

--------------------------------------------------------------------------
#psi4
#
memory 32 gb

molecule  {
0 1
  O       -2.8968130    -0.3474360    -0.2563530
  O       -0.5825960    -1.5131530     0.0834280
  N        0.6646380     0.3451110    -0.3514860
  C        1.9463090    -0.3178999    -0.1291314
  C       -1.7875910     0.5207530    -0.3412920
  C        2.3087340    -0.3110910     1.3526080
  C        3.0072020     0.3769410    -0.9846900
  C       -0.5092170    -0.3043550    -0.1811720
  C       -1.8991130     1.5929580     0.7362800
  H        1.8182130    -1.3395260    -0.4626630
  H        0.6420233     1.3525901    -0.4638322
  H       -1.7688680     0.9937940    -1.3356380
  H        2.4085440     0.7136460     1.7243230
  H        1.5276200    -0.8195050     1.9221530
  H        3.2560570    -0.8319740     1.5215790
  H        3.1304270     1.4235350    -0.6835410
  H        2.7315590     0.3479870    -2.0412990
  H        3.9738610    -0.1182480    -0.8633910
  H       -1.8420940     1.1254490     1.7220580
  H       -2.8670940     2.0889060     0.6442650
  H       -1.1140830     2.3514110     0.6543310
  H       -2.4990480    -1.2315890    -0.0938460
units angstrom
no_reorient  #important for SAPT in psi4, default
symmetry c1  #important for SAPT in psi4, default
}

set PROPERTIES_ORIGIN ["COM"]
properties('MP2/aug-cc-pvtz', properties = ['dipole'])
--------------------------------------------------------------------------

    Molecular point group: c1
  Charge       = 0
  Multiplicity = 1
  Basis Set: AUG-CC-PVTZ
    Blend: AUG-CC-PVTZ
  Basis Set: (AUG-CC-PVTZ AUX)
    Blend: AUG-CC-PVTZ-JKFIT

    Orbital Energies [Eh]
    ---------------------

    Doubly Occupied:

       1A    -20.547805     2A    -20.532375     3A    -15.595715
       4A    -11.357905     5A    -11.297317     6A    -11.277084
       7A    -11.232367     8A    -11.230856     9A    -11.222222
      10A     -1.397237    11A     -1.345786    12A     -1.247878
      13A     -1.071449    14A     -1.023612    15A     -0.948888
      16A     -0.894814    17A     -0.823715    18A     -0.794613
      19A     -0.736395    20A     -0.679612    21A     -0.650009
      22A     -0.632530    23A     -0.627611    24A     -0.596944
      25A     -0.581303    26A     -0.567439    27A     -0.555059
      28A     -0.548045    29A     -0.539220    30A     -0.530370
      31A     -0.512797    32A     -0.501177    33A     -0.493465
      34A     -0.444945    35A     -0.434271    36A     -0.401363

  @DF-RHF Final Energy:  -439.13786163609342

   => Energetics <=

    Nuclear Repulsion Energy =            485.2968268821459219
    One-Electron Energy =               -1561.1209934033693116
    Two-Electron Energy =                 636.6863048851299709
    Total Energy =                       -439.1378616360933620
  Basis Set: (AUG-CC-PVTZ AUX)
    Blend: AUG-CC-PVTZ-RI
    Molecular point group: c1

    Geometry (in Angstrom), charge = 0, multiplicity = 1:

       Center              X                  Y                   Z               Mass
    ------------   -----------------  -----------------  -----------------  -----------------
         O           -2.896207813224    -0.346400062029    -0.256394864380    15.994914619570
         O           -0.581990813224    -1.512117062029     0.083386135620    15.994914619570
         N            0.665243186776     0.346146937971    -0.351527864380    14.003074004430
         C            1.946914186776    -0.316863962029    -0.129173264380    12.000000000000
         C           -1.786985813224     0.521788937971    -0.341333864380    12.000000000000
         C            2.309339186776    -0.310055062029     1.352566135620    12.000000000000
         C            3.007807186776     0.377976937971    -0.984731864380    12.000000000000
         C           -0.508611813224    -0.303319062029    -0.181213864380    12.000000000000
         C           -1.898507813224     1.593993937971     0.736238135620    12.000000000000
         H            1.818818186776    -1.338490062029    -0.462704864380     1.007825032230
         H            0.642628486776     1.353626037971    -0.463874064380     1.007825032230
         H           -1.768262813224     0.994829937971    -1.335679864380     1.007825032230
         H            2.409149186776     0.714681937971     1.724281135620     1.007825032230
         H            1.528225186776    -0.818469062029     1.922111135620     1.007825032230
         H            3.256662186776    -0.830938062029     1.521537135620     1.007825032230
         H            3.131032186776     1.424570937971    -0.683582864380     1.007825032230
         H            2.732164186776     0.349022937971    -2.041340864380     1.007825032230
         H            3.974466186776    -0.117212062029    -0.863432864380     1.007825032230
         H           -1.841488813224     1.126484937971     1.722016135620     1.007825032230
         H           -2.866488813224     2.089941937971     0.644223135620     1.007825032230
         H           -1.113477813224     2.352446937971     0.654289135620     1.007825032230
         H           -2.498442813224    -1.230553062029    -0.093887864380     1.007825032230

  Basis Set: AUG-CC-PVTZ
    Blend: AUG-CC-PVTZ
  Basis Set: (AUG-CC-PVTZ AUX)
    Blend: AUG-CC-PVTZ-JKFIT
	 Reference Energy          =    -439.1378616360934188 [Eh]
	 Singles Energy            =      -0.0000000000000000 [Eh]
	 Same-Spin Energy          =      -0.4459435753000621 [Eh]
	 Opposite-Spin Energy      =      -1.4635439329956443 [Eh]
	 Correlation Energy        =      -1.9094875082957063 [Eh]
	 Total Energy              =    -441.0473491443891021 [Eh]

	 ================> DF-SCS-MP2 Energies <==================
	-----------------------------------------------------------
	 SCS Same-Spin Scale       =       0.3333333333333333 [-]
	 SCS Opposite-Spin Scale   =       1.2000000000000000 [-]
	 SCS Same-Spin Energy      =      -0.1486478584333540 [Eh]
	 SCS Opposite-Spin Energy  =      -1.7562527195947732 [Eh]
	 SCS Correlation Energy    =      -1.9049005780281272 [Eh]
	 SCS Total Energy          =    -441.0427622141215238 [Eh]
	-----------------------------------------------------------

  Dipole Moment: [D]
     X:     3.5656      Y:     2.9135      Z:    -0.2222     Total:     4.6099

*** Psi4 exiting successfully. Buy a developer a beer!
