                               Psi4 1.4a3.dev225

  ==> Input File <==

--------------------------------------------------------------------------
#psi4
#
memory 32 gb

molecule  {
0 1
  O       -1.7446660    -1.3796590    -0.7880960
  O       -0.4296620     1.7569970     0.2600660
  N        0.4723820    -0.3330750    -0.0012650
  C        1.8394770     0.0732600     0.3013020
  C       -1.9099390    -0.0103690    -0.3967440
  C        2.4958720     0.7244850    -0.9128940
  C        2.6145980    -1.1365250     0.8043010
  C       -0.5442740     0.5588710    -0.0269710
  C       -2.8608870     0.1360220     0.7815810
  H        1.7638430     0.8203410     1.0982830
  H        0.2653115    -1.3194364    -0.3423878
  H       -2.2722210     0.5864250    -1.2458220
  H        2.5570320     0.0100450    -1.7401110
  H        1.9072700     1.5874400    -1.2316560
  H        3.5085800     1.0627310    -0.6705710
  H        2.6773940    -1.9046250     0.0252330
  H        2.1327900    -1.5715010     1.6841320
  H        3.6348850    -0.8497170     1.0733550
  H       -2.5011890    -0.4705790     1.6169940
  H       -3.8694610    -0.1962540     0.5126420
  H       -2.9055320     1.1820880     1.0905810
  H       -2.6295620    -1.7449530    -0.9570530
units angstrom
no_reorient  #important for SAPT in psi4, default
symmetry c1  #important for SAPT in psi4, default
}

set PROPERTIES_ORIGIN ["COM"]
properties('MP2/aug-cc-pvtz', properties = ['dipole'])
--------------------------------------------------------------------------

    Molecular point group: c1
  Charge       = 0
  Multiplicity = 1
  Basis Set: AUG-CC-PVTZ
    Blend: AUG-CC-PVTZ
  Basis Set: (AUG-CC-PVTZ AUX)
    Blend: AUG-CC-PVTZ-JKFIT

    Orbital Energies [Eh]
    ---------------------

    Doubly Occupied:

       1A    -20.581382     2A    -20.508877     3A    -15.579226
       4A    -11.342576     5A    -11.300966     6A    -11.263651
       7A    -11.228874     8A    -11.221062     9A    -11.208963
      10A     -1.387861    11A     -1.358318    12A     -1.222652
      13A     -1.056816    14A     -1.027575    15A     -0.936711
      16A     -0.896756    17A     -0.812786    18A     -0.767825
      19A     -0.712493    20A     -0.689643    21A     -0.643796
      22A     -0.638742    23A     -0.613679    24A     -0.592807
      25A     -0.577155    26A     -0.563199    27A     -0.550877
      28A     -0.542084    29A     -0.525498    30A     -0.520260
      31A     -0.516270    32A     -0.490714    33A     -0.479567
      34A     -0.459206    35A     -0.413148    36A     -0.381361

  @DF-RHF Final Energy:  -439.13397801230968

   => Energetics <=

    Nuclear Repulsion Energy =            485.6501560674207099
    One-Electron Energy =               -1562.3415140155516383
    Two-Electron Energy =                 637.5573799358212455
    Total Energy =                       -439.1339780123096261
  Basis Set: (AUG-CC-PVTZ AUX)
    Blend: AUG-CC-PVTZ-RI
    Molecular point group: c1

    Geometry (in Angstrom), charge = 0, multiplicity = 1:

       Center              X                  Y                   Z               Mass
    ------------   -----------------  -----------------  -----------------  -----------------
         O           -1.712302508133    -1.400181390518    -0.780957337150    15.994914619570
         O           -0.397298508133     1.736474609482     0.267204662850    15.994914619570
         N            0.504745491867    -0.353597390518     0.005873662850    14.003074004430
         C            1.871840491867     0.052737609482     0.308440662850    12.000000000000
         C           -1.877575508133    -0.030891390518    -0.389605337150    12.000000000000
         C            2.528235491867     0.703962609482    -0.905755337150    12.000000000000
         C            2.646961491867    -1.157047390518     0.811439662850    12.000000000000
         C           -0.511910508133     0.538348609482    -0.019832337150    12.000000000000
         C           -2.828523508133     0.115499609482     0.788719662850    12.000000000000
         H            1.796206491867     0.799818609482     1.105421662850     1.007825032230
         H            0.297674991867    -1.339958790518    -0.335249137150     1.007825032230
         H           -2.239857508133     0.565902609482    -1.238683337150     1.007825032230
         H            2.589395491867    -0.010477390518    -1.732972337150     1.007825032230
         H            1.939633491867     1.566917609482    -1.224517337150     1.007825032230
         H            3.540943491867     1.042208609482    -0.663432337150     1.007825032230
         H            2.709757491867    -1.925147390518     0.032371662850     1.007825032230
         H            2.165153491867    -1.592023390518     1.691270662850     1.007825032230
         H            3.667248491867    -0.870239390518     1.080493662850     1.007825032230
         H           -2.468825508133    -0.491101390518     1.624132662850     1.007825032230
         H           -3.837097508133    -0.216776390518     0.519780662850     1.007825032230
         H           -2.873168508133     1.161565609482     1.097719662850     1.007825032230
         H           -2.597198508133    -1.765475390518    -0.949914337150     1.007825032230

  Basis Set: AUG-CC-PVTZ
    Blend: AUG-CC-PVTZ
  Basis Set: (AUG-CC-PVTZ AUX)
    Blend: AUG-CC-PVTZ-JKFIT
	 Reference Energy          =    -439.1339780123096830 [Eh]
	 Singles Energy            =      -0.0000000000000000 [Eh]
	 Same-Spin Energy          =      -0.4460235865066524 [Eh]
	 Opposite-Spin Energy      =      -1.4645204829563019 [Eh]
	 Correlation Energy        =      -1.9105440694629543 [Eh]
	 Total Energy              =    -441.0445220817726408 [Eh]

	 ================> DF-SCS-MP2 Energies <==================
	-----------------------------------------------------------
	 SCS Same-Spin Scale       =       0.3333333333333333 [-]
	 SCS Opposite-Spin Scale   =       1.2000000000000000 [-]
	 SCS Same-Spin Energy      =      -0.1486745288355508 [Eh]
	 SCS Opposite-Spin Energy  =      -1.7574245795475623 [Eh]
	 SCS Correlation Energy    =      -1.9060991083831131 [Eh]
	 SCS Total Energy          =    -441.0400771206927857 [Eh]
	-----------------------------------------------------------

  Dipole Moment: [D]
     X:    -0.6876      Y:    -2.9266      Z:    -0.4809     Total:     3.0445

*** Psi4 exiting successfully. Buy a developer a beer!
