                               Psi4 1.3.2 release

  ==> Input File <==

--------------------------------------------------------------------------
#psi4
#
memory 32 gb

molecule  {
0 1
  O       -2.8968130    -0.3474360    -0.2563530
  O       -0.5609953    -1.5143319     0.0831483
  N        0.6761632     0.3249269    -0.3473842
  C        1.9521820    -0.3066060    -0.1296730
  C       -1.7875910     0.5207530    -0.3412920
  C        2.3087340    -0.3110910     1.3526080
  C        3.0072020     0.3769410    -0.9846900
  C       -0.5092170    -0.3043550    -0.1811720
  C       -1.8991130     1.5929580     0.7362800
  H        1.8182130    -1.3395260    -0.4626630
  H        0.6508110     1.3528600    -0.4628320
  H       -1.7688680     0.9937940    -1.3356380
  H        2.4085440     0.7136460     1.7243230
  H        1.5276200    -0.8195050     1.9221530
  H        3.2560570    -0.8319740     1.5215790
  H        3.1304270     1.4235350    -0.6835410
  H        2.7315590     0.3479870    -2.0412990
  H        3.9738610    -0.1182480    -0.8633910
  H       -1.8420940     1.1254490     1.7220580
  H       -2.8670940     2.0889060     0.6442650
  H       -1.1140830     2.3514110     0.6543310
  H       -2.4990480    -1.2315890    -0.0938460
units angstrom
no_reorient  #important for SAPT in psi4, default
symmetry c1  #important for SAPT in psi4, default
}

set PROPERTIES_ORIGIN ["COM"]
properties('MP2/aug-cc-pvtz', properties = ['dipole'])
--------------------------------------------------------------------------

    Molecular point group: c1
  Charge       = 0
  Multiplicity = 1
  Basis Set: AUG-CC-PVTZ
    Blend: AUG-CC-PVTZ
  Basis Set: (AUG-CC-PVTZ AUX)
    Blend: AUG-CC-PVTZ-JKFIT

    Orbital Energies [Eh]
    ---------------------

    Doubly Occupied:

       1A    -20.550052     2A    -20.531183     3A    -15.595843
       4A    -11.358059     5A    -11.299862     6A    -11.274704
       7A    -11.231901     8A    -11.231588     9A    -11.220947
      10A     -1.397515    11A     -1.348035    12A     -1.247667
      13A     -1.071762    14A     -1.024555    15A     -0.949079
      16A     -0.896688    17A     -0.824150    18A     -0.789597
      19A     -0.737831    20A     -0.679217    21A     -0.650035
      22A     -0.631608    23A     -0.629221    24A     -0.595000
      25A     -0.582508    26A     -0.568446    27A     -0.554291
      28A     -0.548921    29A     -0.539706    30A     -0.530358
      31A     -0.513903    32A     -0.502255    33A     -0.490079
      34A     -0.446424    35A     -0.435155    36A     -0.398654

  @DF-RHF Final Energy:  -439.13625684347170

   => Energetics <=

    Nuclear Repulsion Energy =            485.5479630203683996
    One-Electron Energy =               -1561.6148398366956371
    Two-Electron Energy =                 636.9306199728555384
    Total Energy =                       -439.1362568434717559
  Basis Set: (AUG-CC-PVTZ AUX)
    Blend: AUG-CC-PVTZ-RI
    Molecular point group: c1

    Geometry (in Angstrom), charge = 0, multiplicity = 1:

       Center              X                  Y                   Z               Mass
    ------------   -----------------  -----------------  -----------------  -----------------
         O           -2.900679560471    -0.345136112158    -0.256756991024    15.994914619570
         O           -0.564861860471    -1.512032012158     0.082744308976    15.994914619570
         N            0.672296639529     0.327226787842    -0.347788191024    14.003074004430
         C            1.948315439529    -0.304306112158    -0.130076991024    12.000000000000
         C           -1.791457560471     0.523052887842    -0.341695991024    12.000000000000
         C            2.304867439529    -0.308791112158     1.352204008976    12.000000000000
         C            3.003335439529     0.379240887842    -0.985093991024    12.000000000000
         C           -0.513083560471    -0.302055112158    -0.181575991024    12.000000000000
         C           -1.902979560471     1.595257887842     0.735876008976    12.000000000000
         H            1.814346439529    -1.337226112158    -0.463066991024     1.007825032230
         H            0.646944439529     1.355159887842    -0.463235991024     1.007825032230
         H           -1.772734560471     0.996093887842    -1.336041991024     1.007825032230
         H            2.404677439529     0.715945887842     1.723919008976     1.007825032230
         H            1.523753439529    -0.817205112158     1.921749008976     1.007825032230
         H            3.252190439529    -0.829674112158     1.521175008976     1.007825032230
         H            3.126560439529     1.425834887842    -0.683944991024     1.007825032230
         H            2.727692439529     0.350286887842    -2.041702991024     1.007825032230
         H            3.969994439529    -0.115948112158    -0.863794991024     1.007825032230
         H           -1.845960560471     1.127748887842     1.721654008976     1.007825032230
         H           -2.870960560471     2.091205887842     0.643861008976     1.007825032230
         H           -1.117949560471     2.353710887842     0.653927008976     1.007825032230
         H           -2.502914560471    -1.229289112158    -0.094249991024     1.007825032230

  Basis Set: AUG-CC-PVTZ
    Blend: AUG-CC-PVTZ
  Basis Set: (AUG-CC-PVTZ AUX)
    Blend: AUG-CC-PVTZ-JKFIT
	 Reference Energy          =    -439.1362568434716991 [Eh]
	 Singles Energy            =      -0.0000000000000000 [Eh]
	 Same-Spin Energy          =      -0.4462952247046776 [Eh]
	 Opposite-Spin Energy      =      -1.4640081548515709 [Eh]
	 Correlation Energy        =      -1.9103033795562485 [Eh]
	 Total Energy              =    -441.0465602230279387 [Eh]

	 ================> DF-SCS-MP2 Energies <==================
	-----------------------------------------------------------
	 SCS Same-Spin Scale       =       0.3333333333333333 [-]
	 SCS Opposite-Spin Scale   =       1.2000000000000000 [-]
	 SCS Same-Spin Energy      =      -0.1487650749015592 [Eh]
	 SCS Opposite-Spin Energy  =      -1.7568097858218850 [Eh]
	 SCS Correlation Energy    =      -1.9055748607234442 [Eh]
	 SCS Total Energy          =    -441.0418317041951468 [Eh]
	-----------------------------------------------------------

  Dipole Moment: [D]
     X:     3.4483      Y:     2.9545      Z:    -0.2377     Total:     4.5471

*** Psi4 exiting successfully. Buy a developer a beer!
