                               Psi4 1.3.2 release

  ==> Input File <==

--------------------------------------------------------------------------
#psi4
#
memory 32 gb

molecule  {
0 1
  O       -2.8968130    -0.3474360    -0.2563530
  O       -0.5825960    -1.5131530     0.0834280
  N        0.6697516     0.3362301    -0.4014073
  C        1.9521820    -0.3066060    -0.1296730
  C       -1.7875910     0.5207530    -0.3412920
  C        2.3539827    -0.3364361     1.3406919
  C        3.0072020     0.3769410    -0.9846900
  C       -0.5092170    -0.3043550    -0.1811720
  C       -1.8991130     1.5929580     0.7362800
  H        1.8182130    -1.3395260    -0.4626630
  H        0.6508110     1.3528600    -0.4628320
  H       -1.7688680     0.9937940    -1.3356380
  H        2.4085440     0.7136460     1.7243230
  H        1.5276200    -0.8195050     1.9221530
  H        3.2560570    -0.8319740     1.5215790
  H        3.1304270     1.4235350    -0.6835410
  H        2.7315590     0.3479870    -2.0412990
  H        3.9738610    -0.1182480    -0.8633910
  H       -1.8420940     1.1254490     1.7220580
  H       -2.8670940     2.0889060     0.6442650
  H       -1.1140830     2.3514110     0.6543310
  H       -2.4990480    -1.2315890    -0.0938460
units angstrom
no_reorient  #important for SAPT in psi4, default
symmetry c1  #important for SAPT in psi4, default
}

set PROPERTIES_ORIGIN ["COM"]
properties('MP2/aug-cc-pvtz', properties = ['dipole'])
--------------------------------------------------------------------------

    Molecular point group: c1
  Charge       = 0
  Multiplicity = 1
  Basis Set: AUG-CC-PVTZ
    Blend: AUG-CC-PVTZ
  Basis Set: (AUG-CC-PVTZ AUX)
    Blend: AUG-CC-PVTZ-JKFIT

    Orbital Energies [Eh]
    ---------------------

    Doubly Occupied:

       1A    -20.548646     2A    -20.534992     3A    -15.597284
       4A    -11.360120     5A    -11.298245     6A    -11.276652
       7A    -11.231609     8A    -11.230128     9A    -11.223752
      10A     -1.398250    11A     -1.346624    12A     -1.246739
      13A     -1.071905    14A     -1.024897    15A     -0.948841
      16A     -0.895911    17A     -0.822333    18A     -0.792115
      19A     -0.737126    20A     -0.678877    21A     -0.649053
      22A     -0.634100    23A     -0.629024    24A     -0.595846
      25A     -0.582546    26A     -0.567885    27A     -0.556903
      28A     -0.550365    29A     -0.539292    30A     -0.533083
      31A     -0.513756    32A     -0.497522    33A     -0.485535
      34A     -0.445605    35A     -0.436258    36A     -0.403675

  @DF-RHF Final Energy:  -439.13341726027068

   => Energetics <=

    Nuclear Repulsion Energy =            484.6996175032486462
    One-Electron Energy =               -1559.8950810111205101
    Two-Electron Energy =                 636.0620462476011880
    Total Energy =                       -439.1334172602706758
  Basis Set: (AUG-CC-PVTZ AUX)
    Blend: AUG-CC-PVTZ-RI
    Molecular point group: c1

    Geometry (in Angstrom), charge = 0, multiplicity = 1:

       Center              X                  Y                   Z               Mass
    ------------   -----------------  -----------------  -----------------  -----------------
         O           -2.901501111587    -0.344167306263    -0.249929793764    15.994914619570
         O           -0.587284111587    -1.509884306263     0.089851206236    15.994914619570
         N            0.665063488413     0.339498793737    -0.394984093764    14.003074004430
         C            1.947493888413    -0.303337306263    -0.123249793764    12.000000000000
         C           -1.792279111587     0.524021693737    -0.334868793764    12.000000000000
         C            2.349294588413    -0.333167406263     1.347115106236    12.000000000000
         C            3.002513888413     0.380209693737    -0.978266793764    12.000000000000
         C           -0.513905111587    -0.301086306263    -0.174748793764    12.000000000000
         C           -1.903801111587     1.596226693737     0.742703206236    12.000000000000
         H            1.813524888413    -1.336257306263    -0.456239793764     1.007825032230
         H            0.646122888413     1.356128693737    -0.456408793764     1.007825032230
         H           -1.773556111587     0.997062693737    -1.329214793764     1.007825032230
         H            2.403855888413     0.716914693737     1.730746206236     1.007825032230
         H            1.522931888413    -0.816236306263     1.928576206236     1.007825032230
         H            3.251368888413    -0.828705306263     1.528002206236     1.007825032230
         H            3.125738888413     1.426803693737    -0.677117793764     1.007825032230
         H            2.726870888413     0.351255693737    -2.034875793764     1.007825032230
         H            3.969172888413    -0.114979306263    -0.856967793764     1.007825032230
         H           -1.846782111587     1.128717693737     1.728481206236     1.007825032230
         H           -2.871782111587     2.092174693737     0.650688206236     1.007825032230
         H           -1.118771111587     2.354679693737     0.660754206236     1.007825032230
         H           -2.503736111587    -1.228320306263    -0.087422793764     1.007825032230

  Basis Set: AUG-CC-PVTZ
    Blend: AUG-CC-PVTZ
  Basis Set: (AUG-CC-PVTZ AUX)
    Blend: AUG-CC-PVTZ-JKFIT
	 Reference Energy          =    -439.1334172602706758 [Eh]
	 Singles Energy            =      -0.0000000000000000 [Eh]
	 Same-Spin Energy          =      -0.4460923423190172 [Eh]
	 Opposite-Spin Energy      =      -1.4639750162743361 [Eh]
	 Correlation Energy        =      -1.9100673585933534 [Eh]
	 Total Energy              =    -441.0434846188640563 [Eh]

	 ================> DF-SCS-MP2 Energies <==================
	-----------------------------------------------------------
	 SCS Same-Spin Scale       =       0.3333333333333333 [-]
	 SCS Opposite-Spin Scale   =       1.2000000000000000 [-]
	 SCS Same-Spin Energy      =      -0.1486974474396724 [Eh]
	 SCS Opposite-Spin Energy  =      -1.7567700195292033 [Eh]
	 SCS Correlation Energy    =      -1.9054674669688758 [Eh]
	 SCS Total Energy          =    -441.0388847272395765 [Eh]
	-----------------------------------------------------------

  Dipole Moment: [D]
     X:     3.4787      Y:     2.8645      Z:    -0.1138     Total:     4.5077

*** Psi4 exiting successfully. Buy a developer a beer!
