                               Psi4 1.3.2 release

  ==> Input File <==

--------------------------------------------------------------------------
#psi4
#
memory 32 gb

molecule  {
0 1
  O       -2.8968130    -0.3474360    -0.2563530
  O       -0.5825960    -1.5131530     0.0834280
  N        0.6646380     0.3451110    -0.3514860
  C        1.9403384    -0.3291433    -0.1286067
  C       -1.7875910     0.5207530    -0.3412920
  C        2.3087340    -0.3110910     1.3526080
  C        3.0072020     0.3769410    -0.9846900
  C       -0.5092170    -0.3043550    -0.1811720
  C       -1.8991130     1.5929580     0.7362800
  H        1.8182130    -1.3395260    -0.4626630
  H        0.6332373     1.3522434    -0.4648239
  H       -1.7688680     0.9937940    -1.3356380
  H        2.4085440     0.7136460     1.7243230
  H        1.5276200    -0.8195050     1.9221530
  H        3.2560570    -0.8319740     1.5215790
  H        3.1304270     1.4235350    -0.6835410
  H        2.7315590     0.3479870    -2.0412990
  H        3.9738610    -0.1182480    -0.8633910
  H       -1.8420940     1.1254490     1.7220580
  H       -2.8670940     2.0889060     0.6442650
  H       -1.1140830     2.3514110     0.6543310
  H       -2.4990480    -1.2315890    -0.0938460
units angstrom
no_reorient  #important for SAPT in psi4, default
symmetry c1  #important for SAPT in psi4, default
}

set PROPERTIES_ORIGIN ["COM"]
properties('MP2/aug-cc-pvtz', properties = ['dipole'])
--------------------------------------------------------------------------

    Molecular point group: c1
  Charge       = 0
  Multiplicity = 1
  Basis Set: AUG-CC-PVTZ
    Blend: AUG-CC-PVTZ
  Basis Set: (AUG-CC-PVTZ AUX)
    Blend: AUG-CC-PVTZ-JKFIT

    Orbital Energies [Eh]
    ---------------------

    Doubly Occupied:

       1A    -20.547808     2A    -20.532275     3A    -15.595724
       4A    -11.357533     5A    -11.297299     6A    -11.276983
       7A    -11.232410     8A    -11.230947     9A    -11.222221
      10A     -1.397263    11A     -1.345805    12A     -1.247798
      13A     -1.070687    14A     -1.023366    15A     -0.947909
      16A     -0.894653    17A     -0.825164    18A     -0.794184
      19A     -0.736347    20A     -0.680419    21A     -0.650564
      22A     -0.632662    23A     -0.626427    24A     -0.596804
      25A     -0.581023    26A     -0.567349    27A     -0.555001
      28A     -0.547950    29A     -0.539093    30A     -0.530640
      31A     -0.513261    32A     -0.500729    33A     -0.493988
      34A     -0.444971    35A     -0.434161    36A     -0.401236

  @DF-RHF Final Energy:  -439.13742634453001

   => Energetics <=

    Nuclear Repulsion Energy =            485.2890368718445870
    One-Electron Energy =               -1561.1076217317090595
    Two-Electron Energy =                 636.6811585153345732
    Total Energy =                       -439.1374263445300130
  Basis Set: (AUG-CC-PVTZ AUX)
    Blend: AUG-CC-PVTZ-RI
    Molecular point group: c1

    Geometry (in Angstrom), charge = 0, multiplicity = 1:

       Center              X                  Y                   Z               Mass
    ------------   -----------------  -----------------  -----------------  -----------------
         O           -2.895593738097    -0.345368210348    -0.256435269849    15.994914619570
         O           -0.581376738097    -1.511085210348     0.083345730151    15.994914619570
         N            0.665857261903     0.347178789652    -0.351568269849    14.003074004430
         C            1.941557661903    -0.327075510348    -0.128688969849    12.000000000000
         C           -1.786371738097     0.522820789652    -0.341374269849    12.000000000000
         C            2.309953261903    -0.309023210348     1.352525730151    12.000000000000
         C            3.008421261903     0.379008789652    -0.984772269849    12.000000000000
         C           -0.507997738097    -0.302287210348    -0.181254269849    12.000000000000
         C           -1.897893738097     1.595025789652     0.736197730151    12.000000000000
         H            1.819432261903    -1.337458210348    -0.462745269849     1.007825032230
         H            0.634456561903     1.354311189652    -0.464906169849     1.007825032230
         H           -1.767648738097     0.995861789652    -1.335720269849     1.007825032230
         H            2.409763261903     0.715713789652     1.724240730151     1.007825032230
         H            1.528839261903    -0.817437210348     1.922070730151     1.007825032230
         H            3.257276261903    -0.829906210348     1.521496730151     1.007825032230
         H            3.131646261903     1.425602789652    -0.683623269849     1.007825032230
         H            2.732778261903     0.350054789652    -2.041381269849     1.007825032230
         H            3.975080261903    -0.116180210348    -0.863473269849     1.007825032230
         H           -1.840874738097     1.127516789652     1.721975730151     1.007825032230
         H           -2.865874738097     2.090973789652     0.644182730151     1.007825032230
         H           -1.112863738097     2.353478789652     0.654248730151     1.007825032230
         H           -2.497828738097    -1.229521210348    -0.093928269849     1.007825032230

  Basis Set: AUG-CC-PVTZ
    Blend: AUG-CC-PVTZ
  Basis Set: (AUG-CC-PVTZ AUX)
    Blend: AUG-CC-PVTZ-JKFIT
	 Reference Energy          =    -439.1374263445300130 [Eh]
	 Singles Energy            =      -0.0000000000000000 [Eh]
	 Same-Spin Energy          =      -0.4458729735944953 [Eh]
	 Opposite-Spin Energy      =      -1.4634750325621386 [Eh]
	 Correlation Energy        =      -1.9093480061566339 [Eh]
	 Total Energy              =    -441.0467743506866327 [Eh]

	 ================> DF-SCS-MP2 Energies <==================
	-----------------------------------------------------------
	 SCS Same-Spin Scale       =       0.3333333333333333 [-]
	 SCS Opposite-Spin Scale   =       1.2000000000000000 [-]
	 SCS Same-Spin Energy      =      -0.1486243245314984 [Eh]
	 SCS Opposite-Spin Energy  =      -1.7561700390745663 [Eh]
	 SCS Correlation Energy    =      -1.9047943636060647 [Eh]
	 SCS Total Energy          =    -441.0422207081360852 [Eh]
	-----------------------------------------------------------

  Dipole Moment: [D]
     X:     3.5539      Y:     2.9104      Z:    -0.2193     Total:     4.5987

*** Psi4 exiting successfully. Buy a developer a beer!
