                               Psi4 1.3.2 release

  ==> Input File <==

--------------------------------------------------------------------------
#psi4
#
memory 32 gb

molecule  {
0 1
  O       -2.8968130    -0.3474360    -0.2563530
  O       -0.5825960    -1.5131530     0.0834280
  N        0.6646380     0.3451110    -0.3514860
  C        1.9521820    -0.3066060    -0.1296730
  C       -1.7875910     0.5207530    -0.3412920
  C        2.3087340    -0.3110910     1.3526080
  C        3.0072020     0.3769410    -0.9846900
  C       -0.5149500    -0.2940619    -0.1818433
  C       -1.8991130     1.5929580     0.7362800
  H        1.8182130    -1.3395260    -0.4626630
  H        0.6419940     1.3527823    -0.4620886
  H       -1.7688680     0.9937940    -1.3356380
  H        2.4085440     0.7136460     1.7243230
  H        1.5276200    -0.8195050     1.9221530
  H        3.2560570    -0.8319740     1.5215790
  H        3.1304270     1.4235350    -0.6835410
  H        2.7315590     0.3479870    -2.0412990
  H        3.9738610    -0.1182480    -0.8633910
  H       -1.8420940     1.1254490     1.7220580
  H       -2.8670940     2.0889060     0.6442650
  H       -1.1140830     2.3514110     0.6543310
  H       -2.4990480    -1.2315890    -0.0938460
units angstrom
no_reorient  #important for SAPT in psi4, default
symmetry c1  #important for SAPT in psi4, default
}

set PROPERTIES_ORIGIN ["COM"]
properties('MP2/aug-cc-pvtz', properties = ['dipole'])
--------------------------------------------------------------------------

    Molecular point group: c1
  Charge       = 0
  Multiplicity = 1
  Basis Set: AUG-CC-PVTZ
    Blend: AUG-CC-PVTZ
  Basis Set: (AUG-CC-PVTZ AUX)
    Blend: AUG-CC-PVTZ-JKFIT

    Orbital Energies [Eh]
    ---------------------

    Doubly Occupied:

       1A    -20.548207     2A    -20.530965     3A    -15.596516
       4A    -11.358854     5A    -11.297941     6A    -11.277712
       7A    -11.232423     8A    -11.231529     9A    -11.222270
      10A     -1.393326    11A     -1.344519    12A     -1.247051
      13A     -1.073361    14A     -1.025148    15A     -0.949864
      16A     -0.897069    17A     -0.823273    18A     -0.793771
      19A     -0.737227    20A     -0.678914    21A     -0.650017
      22A     -0.630860    23A     -0.628794    24A     -0.595634
      25A     -0.581774    26A     -0.568073    27A     -0.555087
      28A     -0.548445    29A     -0.539225    30A     -0.529425
      31A     -0.511770    32A     -0.502037    33A     -0.491175
      34A     -0.445331    35A     -0.435308    36A     -0.400875

  @DF-RHF Final Energy:  -439.13674103627898

   => Energetics <=

    Nuclear Repulsion Energy =            485.2701991066373921
    One-Electron Energy =               -1561.0663356926272627
    Two-Electron Energy =                 636.6593955497108936
    Total Energy =                       -439.1367410362789769
  Basis Set: (AUG-CC-PVTZ AUX)
    Blend: AUG-CC-PVTZ-RI
    Molecular point group: c1

    Geometry (in Angstrom), charge = 0, multiplicity = 1:

       Center              X                  Y                   Z               Mass
    ------------   -----------------  -----------------  -----------------  -----------------
         O           -2.896220403143    -0.348377547351    -0.256297243628    15.994914619570
         O           -0.582003403143    -1.514094547351     0.083483756372    15.994914619570
         N            0.665230596857     0.344169452649    -0.351430243628    14.003074004430
         C            1.952774596857    -0.307547547351    -0.129617243628    12.000000000000
         C           -1.786998403143     0.519811452649    -0.341236243628    12.000000000000
         C            2.309326596857    -0.312032547351     1.352663756372    12.000000000000
         C            3.007794596857     0.375999452649    -0.984634243628    12.000000000000
         C           -0.514357403143    -0.295003447351    -0.181787543628    12.000000000000
         C           -1.898520403143     1.592016452649     0.736335756372    12.000000000000
         H            1.818805596857    -1.340467547351    -0.462607243628     1.007825032230
         H            0.642586596857     1.351840752649    -0.462032843628     1.007825032230
         H           -1.768275403143     0.992852452649    -1.335582243628     1.007825032230
         H            2.409136596857     0.712704452649     1.724378756372     1.007825032230
         H            1.528212596857    -0.820446547351     1.922208756372     1.007825032230
         H            3.256649596857    -0.832915547351     1.521634756372     1.007825032230
         H            3.131019596857     1.422593452649    -0.683485243628     1.007825032230
         H            2.732151596857     0.347045452649    -2.041243243628     1.007825032230
         H            3.974453596857    -0.119189547351    -0.863335243628     1.007825032230
         H           -1.841501403143     1.124507452649     1.722113756372     1.007825032230
         H           -2.866501403143     2.087964452649     0.644320756372     1.007825032230
         H           -1.113490403143     2.350469452649     0.654386756372     1.007825032230
         H           -2.498455403143    -1.232530547351    -0.093790243628     1.007825032230

  Basis Set: AUG-CC-PVTZ
    Blend: AUG-CC-PVTZ
  Basis Set: (AUG-CC-PVTZ AUX)
    Blend: AUG-CC-PVTZ-JKFIT
	 Reference Energy          =    -439.1367410362789769 [Eh]
	 Singles Energy            =      -0.0000000000000000 [Eh]
	 Same-Spin Energy          =      -0.4462776741957423 [Eh]
	 Opposite-Spin Energy      =      -1.4641203017323445 [Eh]
	 Correlation Energy        =      -1.9103979759280869 [Eh]
	 Total Energy              =    -441.0471390122070829 [Eh]

	 ================> DF-SCS-MP2 Energies <==================
	-----------------------------------------------------------
	 SCS Same-Spin Scale       =       0.3333333333333333 [-]
	 SCS Opposite-Spin Scale   =       1.2000000000000000 [-]
	 SCS Same-Spin Energy      =      -0.1487592247319141 [Eh]
	 SCS Opposite-Spin Energy  =      -1.7569443620788134 [Eh]
	 SCS Correlation Energy    =      -1.9057035868107275 [Eh]
	 SCS Total Energy          =    -441.0424446230896933 [Eh]
	-----------------------------------------------------------

  Dipole Moment: [D]
     X:     3.5635      Y:     2.9679      Z:    -0.2285     Total:     4.6431

*** Psi4 exiting successfully. Buy a developer a beer!
