                               Psi4 1.3.2 release

  ==> Input File <==

--------------------------------------------------------------------------
#psi4
#
memory 32 gb

molecule  {
0 1
  O       -2.8968130    -0.3474360    -0.2563530
  O       -0.5825960    -1.5131530     0.0834280
  N        0.6379925     0.2787756    -0.3785504
  C        1.9521820    -0.3066060    -0.1296730
  C       -1.7875910     0.5207530    -0.3412920
  C        2.3087340    -0.3110910     1.3526080
  C        3.0072020     0.3769410    -0.9846900
  C       -0.5092170    -0.3043550    -0.1811720
  C       -1.8991130     1.5929580     0.7362800
  H        1.7640767    -1.3265977    -0.4760645
  H        0.6508110     1.3528600    -0.4628320
  H       -1.7688680     0.9937940    -1.3356380
  H        2.4085440     0.7136460     1.7243230
  H        1.5276200    -0.8195050     1.9221530
  H        3.2560570    -0.8319740     1.5215790
  H        3.1304270     1.4235350    -0.6835410
  H        2.7315590     0.3479870    -2.0412990
  H        3.9738610    -0.1182480    -0.8633910
  H       -1.8420940     1.1254490     1.7220580
  H       -2.8670940     2.0889060     0.6442650
  H       -1.1140830     2.3514110     0.6543310
  H       -2.4990480    -1.2315890    -0.0938460
units angstrom
no_reorient  #important for SAPT in psi4, default
symmetry c1  #important for SAPT in psi4, default
}

set PROPERTIES_ORIGIN ["COM"]
properties('MP2/aug-cc-pvtz', properties = ['dipole'])
--------------------------------------------------------------------------

    Molecular point group: c1
  Charge       = 0
  Multiplicity = 1
  Basis Set: AUG-CC-PVTZ
    Blend: AUG-CC-PVTZ
  Basis Set: (AUG-CC-PVTZ AUX)
    Blend: AUG-CC-PVTZ-JKFIT

    Orbital Energies [Eh]
    ---------------------

    Doubly Occupied:

       1A    -20.546347     2A    -20.522543     3A    -15.601445
       4A    -11.349625     5A    -11.296355     6A    -11.279389
       7A    -11.235379     8A    -11.230177     9A    -11.225377
      10A     -1.397424    11A     -1.345291    12A     -1.250869
      13A     -1.076694    14A     -1.024361    15A     -0.952091
      16A     -0.896827    17A     -0.827695    18A     -0.786973
      19A     -0.737184    20A     -0.675879    21A     -0.646210
      22A     -0.633775    23A     -0.627338    24A     -0.595604
      25A     -0.581175    26A     -0.567260    27A     -0.556914
      28A     -0.551960    29A     -0.540100    30A     -0.531443
      31A     -0.506476    32A     -0.503559    33A     -0.492707
      34A     -0.443562    35A     -0.431151    36A     -0.402034

  @DF-RHF Final Energy:  -439.12933594399487

   => Energetics <=

    Nuclear Repulsion Energy =            486.1472984850282728
    One-Electron Energy =               -1562.8148774679700637
    Two-Electron Energy =                 637.5382430389470301
    Total Energy =                       -439.1293359439948745
  Basis Set: (AUG-CC-PVTZ AUX)
    Blend: AUG-CC-PVTZ-RI
    Molecular point group: c1

    Geometry (in Angstrom), charge = 0, multiplicity = 1:

       Center              X                  Y                   Z               Mass
    ------------   -----------------  -----------------  -----------------  -----------------
         O           -2.893550600139    -0.340449618086    -0.253359024234    15.994914619570
         O           -0.579333600139    -1.506166618086     0.086421975766    15.994914619570
         N            0.641254899861     0.285761981914    -0.375556424234    14.003074004430
         C            1.955444399861    -0.299619618086    -0.126679024234    12.000000000000
         C           -1.784328600139     0.527739381914    -0.338298024234    12.000000000000
         C            2.311996399861    -0.304104618086     1.355601975766    12.000000000000
         C            3.010464399861     0.383927381914    -0.981696024234    12.000000000000
         C           -0.505954600139    -0.297368618086    -0.178178024234    12.000000000000
         C           -1.895850600139     1.599944381914     0.739273975766    12.000000000000
         H            1.767339099861    -1.319611318086    -0.473070524234     1.007825032230
         H            0.654073399861     1.359846381914    -0.459838024234     1.007825032230
         H           -1.765605600139     1.000780381914    -1.332644024234     1.007825032230
         H            2.411806399861     0.720632381914     1.727316975766     1.007825032230
         H            1.530882399861    -0.812518618086     1.925146975766     1.007825032230
         H            3.259319399861    -0.824987618086     1.524572975766     1.007825032230
         H            3.133689399861     1.430521381914    -0.680547024234     1.007825032230
         H            2.734821399861     0.354973381914    -2.038305024234     1.007825032230
         H            3.977123399861    -0.111261618086    -0.860397024234     1.007825032230
         H           -1.838831600139     1.132435381914     1.725051975766     1.007825032230
         H           -2.863831600139     2.095892381914     0.647258975766     1.007825032230
         H           -1.110820600139     2.358397381914     0.657324975766     1.007825032230
         H           -2.495785600139    -1.224602618086    -0.090852024234     1.007825032230

  Basis Set: AUG-CC-PVTZ
    Blend: AUG-CC-PVTZ
  Basis Set: (AUG-CC-PVTZ AUX)
    Blend: AUG-CC-PVTZ-JKFIT
	 Reference Energy          =    -439.1293359439948745 [Eh]
	 Singles Energy            =      -0.0000000000000000 [Eh]
	 Same-Spin Energy          =      -0.4464981326560232 [Eh]
	 Opposite-Spin Energy      =      -1.4642173697870513 [Eh]
	 Correlation Energy        =      -1.9107155024430744 [Eh]
	 Total Energy              =    -441.0400514464379285 [Eh]

	 ================> DF-SCS-MP2 Energies <==================
	-----------------------------------------------------------
	 SCS Same-Spin Scale       =       0.3333333333333333 [-]
	 SCS Opposite-Spin Scale   =       1.2000000000000000 [-]
	 SCS Same-Spin Energy      =      -0.1488327108853411 [Eh]
	 SCS Opposite-Spin Energy  =      -1.7570608437444615 [Eh]
	 SCS Correlation Energy    =      -1.9058935546298026 [Eh]
	 SCS Total Energy          =    -441.0352294986246875 [Eh]
	-----------------------------------------------------------

  Dipole Moment: [D]
     X:     3.8032      Y:     3.0746      Z:    -0.1944     Total:     4.8944

*** Psi4 exiting successfully. Buy a developer a beer!
