                               Psi4 1.3.2 release

  ==> Input File <==

--------------------------------------------------------------------------
#psi4
#
memory 32 gb

molecule  {
0 1
  O       -2.8968130    -0.3474360    -0.2563530
  O       -0.5825960    -1.5131530     0.0834280
  N        0.6646380     0.3451110    -0.3514860
  C        1.9754024    -0.2630195    -0.1422502
  C       -1.7875910     0.5207530    -0.3412920
  C        2.3087340    -0.3110910     1.3526080
  C        3.0072020     0.3769410    -0.9846900
  C       -0.5319158    -0.2648406    -0.1934775
  C       -1.8991130     1.5929580     0.7362800
  H        1.8182130    -1.3395260    -0.4626630
  H        0.6508110     1.3528600    -0.4628320
  H       -1.7688680     0.9937940    -1.3356380
  H        2.4085440     0.7136460     1.7243230
  H        1.5276200    -0.8195050     1.9221530
  H        3.2560570    -0.8319740     1.5215790
  H        3.1304270     1.4235350    -0.6835410
  H        2.7315590     0.3479870    -2.0412990
  H        3.9738610    -0.1182480    -0.8633910
  H       -1.8420940     1.1254490     1.7220580
  H       -2.8670940     2.0889060     0.6442650
  H       -1.1140830     2.3514110     0.6543310
  H       -2.4990480    -1.2315890    -0.0938460
units angstrom
no_reorient  #important for SAPT in psi4, default
symmetry c1  #important for SAPT in psi4, default
}

set PROPERTIES_ORIGIN ["COM"]
properties('MP2/aug-cc-pvtz', properties = ['dipole'])
--------------------------------------------------------------------------

    Molecular point group: c1
  Charge       = 0
  Multiplicity = 1
  Basis Set: AUG-CC-PVTZ
    Blend: AUG-CC-PVTZ
  Basis Set: (AUG-CC-PVTZ AUX)
    Blend: AUG-CC-PVTZ-JKFIT

    Orbital Energies [Eh]
    ---------------------

    Doubly Occupied:

       1A    -20.549360     2A    -20.526782     3A    -15.599294
       4A    -11.362235     5A    -11.299515     6A    -11.280156
       7A    -11.233502     8A    -11.232511     9A    -11.222796
      10A     -1.384455    11A     -1.338837    12A     -1.244198
      13A     -1.080105    14A     -1.030230    15A     -0.952948
      16A     -0.904360    17A     -0.822602    18A     -0.790932
      19A     -0.739902    20A     -0.677345    21A     -0.649845
      22A     -0.633244    23A     -0.626784    24A     -0.592197
      25A     -0.582880    26A     -0.569903    27A     -0.555139
      28A     -0.549493    29A     -0.539975    30A     -0.526351
      31A     -0.511002    32A     -0.507089    33A     -0.478861
      34A     -0.446250    35A     -0.436463    36A     -0.398007

  @DF-RHF Final Energy:  -439.12689931438354

   => Energetics <=

    Nuclear Repulsion Energy =            485.1500395307830331
    One-Electron Energy =               -1560.8027802957390122
    Two-Electron Energy =                 636.5258414505724431
    Total Energy =                       -439.1268993143835360
  Basis Set: (AUG-CC-PVTZ AUX)
    Blend: AUG-CC-PVTZ-RI
    Molecular point group: c1

    Geometry (in Angstrom), charge = 0, multiplicity = 1:

       Center              X                  Y                   Z               Mass
    ------------   -----------------  -----------------  -----------------  -----------------
         O           -2.896860713079    -0.355042747267    -0.254075291286    15.994914619570
         O           -0.582643713079    -1.520759747267     0.085705708714    15.994914619570
         N            0.664590286921     0.337504252733    -0.349208291286    14.003074004430
         C            1.975354686921    -0.270626247267    -0.139972491286    12.000000000000
         C           -1.787638713079     0.513146252733    -0.339014291286    12.000000000000
         C            2.308686286921    -0.318697747267     1.354885708714    12.000000000000
         C            3.007154286921     0.369334252733    -0.982412291286    12.000000000000
         C           -0.531963513079    -0.272447347267    -0.191199791286    12.000000000000
         C           -1.899160713079     1.585351252733     0.738557708714    12.000000000000
         H            1.818165286921    -1.347132747267    -0.460385291286     1.007825032230
         H            0.650763286921     1.345253252733    -0.460554291286     1.007825032230
         H           -1.768915713079     0.986187252733    -1.333360291286     1.007825032230
         H            2.408496286921     0.706039252733     1.726600708714     1.007825032230
         H            1.527572286921    -0.827111747267     1.924430708714     1.007825032230
         H            3.256009286921    -0.839580747267     1.523856708714     1.007825032230
         H            3.130379286921     1.415928252733    -0.681263291286     1.007825032230
         H            2.731511286921     0.340380252733    -2.039021291286     1.007825032230
         H            3.973813286921    -0.125854747267    -0.861113291286     1.007825032230
         H           -1.842141713079     1.117842252733     1.724335708714     1.007825032230
         H           -2.867141713079     2.081299252733     0.646542708714     1.007825032230
         H           -1.114130713079     2.343804252733     0.656608708714     1.007825032230
         H           -2.499095713079    -1.239195747267    -0.091568291286     1.007825032230

  Basis Set: AUG-CC-PVTZ
    Blend: AUG-CC-PVTZ
  Basis Set: (AUG-CC-PVTZ AUX)
    Blend: AUG-CC-PVTZ-JKFIT
	 Reference Energy          =    -439.1268993143835360 [Eh]
	 Singles Energy            =      -0.0000000000000000 [Eh]
	 Same-Spin Energy          =      -0.4475355358234402 [Eh]
	 Opposite-Spin Energy      =      -1.4663357698342931 [Eh]
	 Correlation Energy        =      -1.9138713056577332 [Eh]
	 Total Energy              =    -441.0407706200412576 [Eh]

	 ================> DF-SCS-MP2 Energies <==================
	-----------------------------------------------------------
	 SCS Same-Spin Scale       =       0.3333333333333333 [-]
	 SCS Opposite-Spin Scale   =       1.2000000000000000 [-]
	 SCS Same-Spin Energy      =      -0.1491785119411467 [Eh]
	 SCS Opposite-Spin Energy  =      -1.7596029238011517 [Eh]
	 SCS Correlation Energy    =      -1.9087814357422985 [Eh]
	 SCS Total Energy          =    -441.0356807501258345 [Eh]
	-----------------------------------------------------------

  Dipole Moment: [D]
     X:     3.5769      Y:     3.1347      Z:    -0.2787     Total:     4.7643

*** Psi4 exiting successfully. Buy a developer a beer!
