                               Psi4 1.3.2 release

  ==> Input File <==

--------------------------------------------------------------------------
#psi4
#
memory 32 gb

molecule  {
0 1
  O       -2.8968130    -0.3474360    -0.2563530
  O       -0.5825960    -1.5131530     0.0834280
  N        0.6646380     0.3451110    -0.3514860
  C        1.9521820    -0.3066060    -0.1296730
  C       -1.6303826     0.6438001    -0.3533303
  C        2.3087340    -0.3110910     1.3526080
  C        3.0072020     0.3769410    -0.9846900
  C       -0.5092170    -0.3043550    -0.1811720
  C       -1.8991130     1.5929580     0.7362800
  H        1.8182130    -1.3395260    -0.4626630
  H        0.6508110     1.3528600    -0.4628320
  H       -1.7688680     0.9937940    -1.3356380
  H        2.4085440     0.7136460     1.7243230
  H        1.5276200    -0.8195050     1.9221530
  H        3.2560570    -0.8319740     1.5215790
  H        3.1304270     1.4235350    -0.6835410
  H        2.7315590     0.3479870    -2.0412990
  H        3.9738610    -0.1182480    -0.8633910
  H       -1.8420940     1.1254490     1.7220580
  H       -2.8670940     2.0889060     0.6442650
  H       -1.1140830     2.3514110     0.6543310
  H       -2.4990480    -1.2315890    -0.0938460
units angstrom
no_reorient  #important for SAPT in psi4, default
symmetry c1  #important for SAPT in psi4, default
}

set PROPERTIES_ORIGIN ["COM"]
properties('MP2/aug-cc-pvtz', properties = ['dipole'])
--------------------------------------------------------------------------

    Molecular point group: c1
  Charge       = 0
  Multiplicity = 1
  Basis Set: AUG-CC-PVTZ
    Blend: AUG-CC-PVTZ
  Basis Set: (AUG-CC-PVTZ AUX)
    Blend: AUG-CC-PVTZ-JKFIT

    Orbital Energies [Eh]
    ---------------------

    Doubly Occupied:

       1A    -20.537386     2A    -20.527837     3A    -15.597693
       4A    -11.364896     5A    -11.301044     6A    -11.277958
       7A    -11.237637     8A    -11.233592     9A    -11.223818
      10A     -1.394124    11A     -1.286199    12A     -1.254286
      13A     -1.086471    14A     -1.038673    15A     -0.951327
      16A     -0.911924    17A     -0.822956    18A     -0.799527
      19A     -0.727726    20A     -0.676210    21A     -0.646607
      22A     -0.629939    23A     -0.628578    24A     -0.603291
      25A     -0.585973    26A     -0.563437    27A     -0.556151
      28A     -0.552923    29A     -0.533358    30A     -0.526434
      31A     -0.504939    32A     -0.494773    33A     -0.474102
      34A     -0.444951    35A     -0.444010    36A     -0.404024

  @DF-RHF Final Energy:  -439.10070001171022

   => Energetics <=

    Nuclear Repulsion Energy =            485.0896698308005739
    One-Electron Energy =               -1560.6911929761647571
    Two-Electron Energy =                 636.5008231336538529
    Total Energy =                       -439.1007000117102734
  Basis Set: (AUG-CC-PVTZ AUX)
    Blend: AUG-CC-PVTZ-RI
    Molecular point group: c1

    Geometry (in Angstrom), charge = 0, multiplicity = 1:

       Center              X                  Y                   Z               Mass
    ------------   -----------------  -----------------  -----------------  -----------------
         O           -2.911203341905    -0.358699299827    -0.255251028245    15.994914619570
         O           -0.596986341905    -1.524416299827     0.084529971755    15.994914619570
         N            0.650247658095     0.333847700173    -0.350384028245    14.003074004430
         C            1.937791658095    -0.317869299827    -0.128571028245    12.000000000000
         C           -1.644772941905     0.632536800173    -0.352228328245    12.000000000000
         C            2.294343658095    -0.322354299827     1.353709971755    12.000000000000
         C            2.992811658095     0.365677700173    -0.983588028245    12.000000000000
         C           -0.523607341905    -0.315618299827    -0.180070028245    12.000000000000
         C           -1.913503341905     1.581694700173     0.737381971755    12.000000000000
         H            1.803822658095    -1.350789299827    -0.461561028245     1.007825032230
         H            0.636420658095     1.341596700173    -0.461730028245     1.007825032230
         H           -1.783258341905     0.982530700173    -1.334536028245     1.007825032230
         H            2.394153658095     0.702382700173     1.725424971755     1.007825032230
         H            1.513229658095    -0.830768299827     1.923254971755     1.007825032230
         H            3.241666658095    -0.843237299827     1.522680971755     1.007825032230
         H            3.116036658095     1.412271700173    -0.682439028245     1.007825032230
         H            2.717168658095     0.336723700173    -2.040197028245     1.007825032230
         H            3.959470658095    -0.129511299827    -0.862289028245     1.007825032230
         H           -1.856484341905     1.114185700173     1.723159971755     1.007825032230
         H           -2.881484341905     2.077642700173     0.645366971755     1.007825032230
         H           -1.128473341905     2.340147700173     0.655432971755     1.007825032230
         H           -2.513438341905    -1.242852299827    -0.092744028245     1.007825032230

  Basis Set: AUG-CC-PVTZ
    Blend: AUG-CC-PVTZ
  Basis Set: (AUG-CC-PVTZ AUX)
    Blend: AUG-CC-PVTZ-JKFIT
	 Reference Energy          =    -439.1007000117102166 [Eh]
	 Singles Energy            =      -0.0000000000000000 [Eh]
	 Same-Spin Energy          =      -0.4483589189564889 [Eh]
	 Opposite-Spin Energy      =      -1.4705939420604051 [Eh]
	 Correlation Energy        =      -1.9189528610168940 [Eh]
	 Total Energy              =    -441.0196528727271357 [Eh]

	 ================> DF-SCS-MP2 Energies <==================
	-----------------------------------------------------------
	 SCS Same-Spin Scale       =       0.3333333333333333 [-]
	 SCS Opposite-Spin Scale   =       1.2000000000000000 [-]
	 SCS Same-Spin Energy      =      -0.1494529729854963 [Eh]
	 SCS Opposite-Spin Energy  =      -1.7647127304724861 [Eh]
	 SCS Correlation Energy    =      -1.9141657034579824 [Eh]
	 SCS Total Energy          =    -441.0148657151681846 [Eh]
	-----------------------------------------------------------

  Dipole Moment: [D]
     X:     3.9648      Y:     3.2752      Z:    -0.1779     Total:     5.1457

*** Psi4 exiting successfully. Buy a developer a beer!
