                               Psi4 1.4a3.dev225

  ==> Input File <==

--------------------------------------------------------------------------
#psi4
#
memory 32 gb

molecule  {
0 1
  O       -1.7446660    -1.3796590    -0.7880960
  O       -0.4296620     1.7569970     0.2600660
  N        0.4723820    -0.3330750    -0.0012650
  C        1.8394770     0.0732600     0.3013020
  C       -1.9099390    -0.0103690    -0.3967440
  C        2.4958720     0.7244850    -0.9128940
  C        2.6145980    -1.1365250     0.8043010
  C       -0.5424215     0.5782370    -0.0223315
  C       -2.8608870     0.1360220     0.7815810
  H        1.7638430     0.8203410     1.0982830
  H        0.2750420    -1.2730860    -0.3263580
  H       -2.2722210     0.5864250    -1.2458220
  H        2.5570320     0.0100450    -1.7401110
  H        1.9072700     1.5874400    -1.2316560
  H        3.5085800     1.0627310    -0.6705710
  H        2.6773940    -1.9046250     0.0252330
  H        2.1327900    -1.5715010     1.6841320
  H        3.6348850    -0.8497170     1.0733550
  H       -2.5011890    -0.4705790     1.6169940
  H       -3.8694610    -0.1962540     0.5126420
  H       -2.9055320     1.1820880     1.0905810
  H       -2.6295620    -1.7449530    -0.9570530
units angstrom
no_reorient  #important for SAPT in psi4, default
symmetry c1  #important for SAPT in psi4, default
}

set PROPERTIES_ORIGIN ["COM"]
properties('MP2/aug-cc-pvtz', properties = ['dipole'])
--------------------------------------------------------------------------

    Molecular point group: c1
  Charge       = 0
  Multiplicity = 1
  Basis Set: AUG-CC-PVTZ
    Blend: AUG-CC-PVTZ
  Basis Set: (AUG-CC-PVTZ AUX)
    Blend: AUG-CC-PVTZ-JKFIT

    Orbital Energies [Eh]
    ---------------------

    Doubly Occupied:

       1A    -20.580463     2A    -20.513716     3A    -15.572501
       4A    -11.342943     5A    -11.300280     6A    -11.262556
       7A    -11.228576     8A    -11.220385     9A    -11.208683
      10A     -1.389952    11A     -1.368474    12A     -1.225763
      13A     -1.055540    14A     -1.026916    15A     -0.936393
      16A     -0.894886    17A     -0.811418    18A     -0.776243
      19A     -0.711004    20A     -0.690879    21A     -0.643999
      22A     -0.640613    23A     -0.613095    24A     -0.600202
      25A     -0.578868    26A     -0.563123    27A     -0.551600
      28A     -0.541586    29A     -0.525311    30A     -0.522707
      31A     -0.518322    32A     -0.491653    33A     -0.479757
      34A     -0.459483    35A     -0.413826    36A     -0.382599

  @DF-RHF Final Energy:  -439.13866850425757

   => Energetics <=

    Nuclear Repulsion Energy =            485.9198670306580539
    One-Electron Energy =               -1562.8284445651331680
    Two-Electron Energy =                 637.7699090302176046
    Total Energy =                       -439.1386685042575664
  Basis Set: (AUG-CC-PVTZ AUX)
    Blend: AUG-CC-PVTZ-RI
    Molecular point group: c1

    Geometry (in Angstrom), charge = 0, multiplicity = 1:

       Center              X                  Y                   Z               Mass
    ------------   -----------------  -----------------  -----------------  -----------------
         O           -1.712546886120    -1.402310425828    -0.781505256118    15.994914619570
         O           -0.397542886120     1.734345574172     0.266656743882    15.994914619570
         N            0.504501113880    -0.355726425828     0.005325743882    14.003074004430
         C            1.871596113880     0.050608574172     0.307892743882    12.000000000000
         C           -1.877819886120    -0.033020425828    -0.390153256118    12.000000000000
         C            2.527991113880     0.701833574172    -0.906303256118    12.000000000000
         C            2.646717113880    -1.159176425828     0.810891743882    12.000000000000
         C           -0.510302386120     0.555585574172    -0.015740756118    12.000000000000
         C           -2.828767886120     0.113370574172     0.788171743882    12.000000000000
         H            1.795962113880     0.797689574172     1.104873743882     1.007825032230
         H            0.307161113880    -1.295737425828    -0.319767256118     1.007825032230
         H           -2.240101886120     0.563773574172    -1.239231256118     1.007825032230
         H            2.589151113880    -0.012606425828    -1.733520256118     1.007825032230
         H            1.939389113880     1.564788574172    -1.225065256118     1.007825032230
         H            3.540699113880     1.040079574172    -0.663980256118     1.007825032230
         H            2.709513113880    -1.927276425828     0.031823743882     1.007825032230
         H            2.164909113880    -1.594152425828     1.690722743882     1.007825032230
         H            3.667004113880    -0.872368425828     1.079945743882     1.007825032230
         H           -2.469069886120    -0.493230425828     1.623584743882     1.007825032230
         H           -3.837341886120    -0.218905425828     0.519232743882     1.007825032230
         H           -2.873412886120     1.159436574172     1.097171743882     1.007825032230
         H           -2.597442886120    -1.767604425828    -0.950462256118     1.007825032230

  Basis Set: AUG-CC-PVTZ
    Blend: AUG-CC-PVTZ
  Basis Set: (AUG-CC-PVTZ AUX)
    Blend: AUG-CC-PVTZ-JKFIT
	 Reference Energy          =    -439.1386685042575664 [Eh]
	 Singles Energy            =      -0.0000000000000000 [Eh]
	 Same-Spin Energy          =      -0.4451327285407174 [Eh]
	 Opposite-Spin Energy      =      -1.4627606511025966 [Eh]
	 Correlation Energy        =      -1.9078933796433140 [Eh]
	 Total Energy              =    -441.0465618839008926 [Eh]

	 ================> DF-SCS-MP2 Energies <==================
	-----------------------------------------------------------
	 SCS Same-Spin Scale       =       0.3333333333333333 [-]
	 SCS Opposite-Spin Scale   =       1.2000000000000000 [-]
	 SCS Same-Spin Energy      =      -0.1483775761802391 [Eh]
	 SCS Opposite-Spin Energy  =      -1.7553127813231157 [Eh]
	 SCS Correlation Energy    =      -1.9036903575033548 [Eh]
	 SCS Total Energy          =    -441.0423588617609312 [Eh]
	-----------------------------------------------------------

  Dipole Moment: [D]
     X:    -0.7134      Y:    -2.7421      Z:    -0.4443     Total:     2.8680

*** Psi4 exiting successfully. Buy a developer a beer!
