                               Psi4 1.3.2 release

  ==> Input File <==

--------------------------------------------------------------------------
#psi4
#
memory 32 gb

molecule  {
0 1
  O       -2.8891696    -0.3569570    -0.2547473
  O       -0.5825960    -1.5131530     0.0834280
  N        0.6646380     0.3451110    -0.3514860
  C        1.9521820    -0.3066060    -0.1296730
  C       -1.7875910     0.5207530    -0.3412920
  C        2.3087340    -0.3110910     1.3526080
  C        3.0072020     0.3769410    -0.9846900
  C       -0.5165865    -0.3154104    -0.1798605
  C       -1.8991130     1.5929580     0.7362800
  H        1.8182130    -1.3395260    -0.4626630
  H        0.6508110     1.3528600    -0.4628320
  H       -1.7688680     0.9937940    -1.3356380
  H        2.4085440     0.7136460     1.7243230
  H        1.5276200    -0.8195050     1.9221530
  H        3.2560570    -0.8319740     1.5215790
  H        3.1304270     1.4235350    -0.6835410
  H        2.7315590     0.3479870    -2.0412990
  H        3.9738610    -0.1182480    -0.8633910
  H       -1.8420940     1.1254490     1.7220580
  H       -2.8670940     2.0889060     0.6442650
  H       -1.1140830     2.3514110     0.6543310
  H       -2.4990480    -1.2315890    -0.0938460
units angstrom
no_reorient  #important for SAPT in psi4, default
symmetry c1  #important for SAPT in psi4, default
}

set PROPERTIES_ORIGIN ["COM"]
properties('MP2/aug-cc-pvtz', properties = ['dipole'])
--------------------------------------------------------------------------

    Molecular point group: c1
  Charge       = 0
  Multiplicity = 1
  Basis Set: AUG-CC-PVTZ
    Blend: AUG-CC-PVTZ
  Basis Set: (AUG-CC-PVTZ AUX)
    Blend: AUG-CC-PVTZ-JKFIT

    Orbital Energies [Eh]
    ---------------------

    Doubly Occupied:

       1A    -20.547031     2A    -20.535023     3A    -15.592928
       4A    -11.358225     5A    -11.297607     6A    -11.275856
       7A    -11.231319     8A    -11.231138     9A    -11.221384
      10A     -1.403443    11A     -1.349185    12A     -1.244813
      13A     -1.070562    14A     -1.023766    15A     -0.948897
      16A     -0.894817    17A     -0.821238    18A     -0.792496
      19A     -0.738124    20A     -0.679995    21A     -0.649895
      22A     -0.634269    23A     -0.627932    24A     -0.597441
      25A     -0.582340    26A     -0.568429    27A     -0.554235
      28A     -0.547271    29A     -0.539786    30A     -0.530826
      31A     -0.514058    32A     -0.502947    33A     -0.491023
      34A     -0.445946    35A     -0.435061    36A     -0.400257

  @DF-RHF Final Energy:  -439.13901778206844

   => Energetics <=

    Nuclear Repulsion Energy =            485.4639757920838292
    One-Electron Energy =               -1561.4468572411578862
    Two-Electron Energy =                 636.8438636670056212
    Total Energy =                       -439.1390177820684357
  Basis Set: (AUG-CC-PVTZ AUX)
    Blend: AUG-CC-PVTZ-RI
    Molecular point group: c1

    Geometry (in Angstrom), charge = 0, multiplicity = 1:

       Center              X                  Y                   Z               Mass
    ------------   -----------------  -----------------  -----------------  -----------------
         O           -2.889427560674    -0.354783307022    -0.255063240148    15.994914619570
         O           -0.582853960674    -1.510979307022     0.083112059852    15.994914619570
         N            0.664380039326     0.347284692978    -0.351801940148    14.003074004430
         C            1.951924039326    -0.304432307022    -0.129988940148    12.000000000000
         C           -1.787848960674     0.522926692978    -0.341607940148    12.000000000000
         C            2.308476039326    -0.308917307022     1.352292059852    12.000000000000
         C            3.006944039326     0.379114692978    -0.985005940148    12.000000000000
         C           -0.516844460674    -0.313236707022    -0.180176440148    12.000000000000
         C           -1.899370960674     1.595131692978     0.735964059852    12.000000000000
         H            1.817955039326    -1.337352307022    -0.462978940148     1.007825032230
         H            0.650553039326     1.355033692978    -0.463147940148     1.007825032230
         H           -1.769125960674     0.995967692978    -1.335953940148     1.007825032230
         H            2.408286039326     0.715819692978     1.724007059852     1.007825032230
         H            1.527362039326    -0.817331307022     1.921837059852     1.007825032230
         H            3.255799039326    -0.829800307022     1.521263059852     1.007825032230
         H            3.130169039326     1.425708692978    -0.683856940148     1.007825032230
         H            2.731301039326     0.350160692978    -2.041614940148     1.007825032230
         H            3.973603039326    -0.116074307022    -0.863706940148     1.007825032230
         H           -1.842351960674     1.127622692978     1.721742059852     1.007825032230
         H           -2.867351960674     2.091079692978     0.643949059852     1.007825032230
         H           -1.114340960674     2.353584692978     0.654015059852     1.007825032230
         H           -2.499305960674    -1.229415307022    -0.094161940148     1.007825032230

  Basis Set: AUG-CC-PVTZ
    Blend: AUG-CC-PVTZ
  Basis Set: (AUG-CC-PVTZ AUX)
    Blend: AUG-CC-PVTZ-JKFIT
	 Reference Energy          =    -439.1390177820684357 [Eh]
	 Singles Energy            =      -0.0000000000000000 [Eh]
	 Same-Spin Energy          =      -0.4456276955740754 [Eh]
	 Opposite-Spin Energy      =      -1.4628558276098478 [Eh]
	 Correlation Energy        =      -1.9084835231839232 [Eh]
	 Total Energy              =    -441.0475013052523536 [Eh]

	 ================> DF-SCS-MP2 Energies <==================
	-----------------------------------------------------------
	 SCS Same-Spin Scale       =       0.3333333333333333 [-]
	 SCS Opposite-Spin Scale   =       1.2000000000000000 [-]
	 SCS Same-Spin Energy      =      -0.1485425651913585 [Eh]
	 SCS Opposite-Spin Energy  =      -1.7554269931318174 [Eh]
	 SCS Correlation Energy    =      -1.9039695583231759 [Eh]
	 SCS Total Energy          =    -441.0429873403916190 [Eh]
	-----------------------------------------------------------

  Dipole Moment: [D]
     X:     3.4662      Y:     2.8664      Z:    -0.2133     Total:     4.5029

*** Psi4 exiting successfully. Buy a developer a beer!
