                               Psi4 1.3.2 release

  ==> Input File <==

--------------------------------------------------------------------------
#psi4
#
memory 32 gb

molecule  {
0 1
  O       -2.8968130    -0.3474360    -0.2563530
  O       -0.5825960    -1.5131530     0.0834280
  N        0.6761679     0.3249725    -0.3471784
  C        1.9521820    -0.3066060    -0.1296730
  C       -1.8020555     0.4989229    -0.3360749
  C        2.3087340    -0.3110910     1.3526080
  C        3.0072020     0.3769410    -0.9846900
  C       -0.5092170    -0.3043550    -0.1811720
  C       -1.8991130     1.5929580     0.7362800
  H        1.8182130    -1.3395260    -0.4626630
  H        0.6508110     1.3528600    -0.4628320
  H       -1.7688680     0.9937940    -1.3356380
  H        2.4085440     0.7136460     1.7243230
  H        1.5276200    -0.8195050     1.9221530
  H        3.2560570    -0.8319740     1.5215790
  H        3.1304270     1.4235350    -0.6835410
  H        2.7315590     0.3479870    -2.0412990
  H        3.9738610    -0.1182480    -0.8633910
  H       -1.8420940     1.1254490     1.7220580
  H       -2.8670940     2.0889060     0.6442650
  H       -1.1140830     2.3514110     0.6543310
  H       -2.4990480    -1.2315890    -0.0938460
units angstrom
no_reorient  #important for SAPT in psi4, default
symmetry c1  #important for SAPT in psi4, default
}

set PROPERTIES_ORIGIN ["COM"]
properties('MP2/aug-cc-pvtz', properties = ['dipole'])
--------------------------------------------------------------------------

    Molecular point group: c1
  Charge       = 0
  Multiplicity = 1
  Basis Set: AUG-CC-PVTZ
    Blend: AUG-CC-PVTZ
  Basis Set: (AUG-CC-PVTZ AUX)
    Blend: AUG-CC-PVTZ-JKFIT

    Orbital Energies [Eh]
    ---------------------

    Doubly Occupied:

       1A    -20.551422     2A    -20.531129     3A    -15.596834
       4A    -11.357588     5A    -11.299300     6A    -11.275483
       7A    -11.232014     8A    -11.230704     9A    -11.221362
      10A     -1.400741    11A     -1.354756    12A     -1.248722
      13A     -1.070847    14A     -1.021572    15A     -0.949529
      16A     -0.895183    17A     -0.824356    18A     -0.789967
      19A     -0.741516    20A     -0.679602    21A     -0.650158
      22A     -0.631993    23A     -0.629955    24A     -0.595567
      25A     -0.585109    26A     -0.567869    27A     -0.554851
      28A     -0.548466    29A     -0.541760    30A     -0.530417
      31A     -0.513754    32A     -0.502707    33A     -0.490825
      34A     -0.442154    35A     -0.434018    36A     -0.399208

  @DF-RHF Final Energy:  -439.13616862135734

   => Energetics <=

    Nuclear Repulsion Energy =            485.6800589781577742
    One-Electron Energy =               -1561.8495836191973467
    Two-Electron Energy =                 637.0333560196821736
    Total Energy =                       -439.1361686213573421
  Basis Set: (AUG-CC-PVTZ AUX)
    Blend: AUG-CC-PVTZ-RI
    Molecular point group: c1

    Geometry (in Angstrom), charge = 0, multiplicity = 1:

       Center              X                  Y                   Z               Mass
    ------------   -----------------  -----------------  -----------------  -----------------
         O           -2.896720515443    -0.343286560751    -0.257290657513    15.994914619570
         O           -0.582503515443    -1.509003560751     0.082490342487    15.994914619570
         N            0.676260384557     0.329121939249    -0.348116057513    14.003074004430
         C            1.952274484557    -0.302456560751    -0.130610657513    12.000000000000
         C           -1.801963015443     0.503072339249    -0.337012557513    12.000000000000
         C            2.308826484557    -0.306941560751     1.351670342487    12.000000000000
         C            3.007294484557     0.381090439249    -0.985627657513    12.000000000000
         C           -0.509124515443    -0.300205560751    -0.182109657513    12.000000000000
         C           -1.899020515443     1.597107439249     0.735342342487    12.000000000000
         H            1.818305484557    -1.335376560751    -0.463600657513     1.007825032230
         H            0.650903484557     1.357009439249    -0.463769657513     1.007825032230
         H           -1.768775515443     0.997943439249    -1.336575657513     1.007825032230
         H            2.408636484557     0.717795439249     1.723385342487     1.007825032230
         H            1.527712484557    -0.815355560751     1.921215342487     1.007825032230
         H            3.256149484557    -0.827824560751     1.520641342487     1.007825032230
         H            3.130519484557     1.427684439249    -0.684478657513     1.007825032230
         H            2.731651484557     0.352136439249    -2.042236657513     1.007825032230
         H            3.973953484557    -0.114098560751    -0.864328657513     1.007825032230
         H           -1.842001515443     1.129598439249     1.721120342487     1.007825032230
         H           -2.867001515443     2.093055439249     0.643327342487     1.007825032230
         H           -1.113990515443     2.355560439249     0.653393342487     1.007825032230
         H           -2.498955515443    -1.227439560751    -0.094783657513     1.007825032230

  Basis Set: AUG-CC-PVTZ
    Blend: AUG-CC-PVTZ
  Basis Set: (AUG-CC-PVTZ AUX)
    Blend: AUG-CC-PVTZ-JKFIT
	 Reference Energy          =    -439.1361686213573421 [Eh]
	 Singles Energy            =      -0.0000000000000000 [Eh]
	 Same-Spin Energy          =      -0.4462662391454562 [Eh]
	 Opposite-Spin Energy      =      -1.4635652139854440 [Eh]
	 Correlation Energy        =      -1.9098314531309002 [Eh]
	 Total Energy              =    -441.0460000744882336 [Eh]

	 ================> DF-SCS-MP2 Energies <==================
	-----------------------------------------------------------
	 SCS Same-Spin Scale       =       0.3333333333333333 [-]
	 SCS Opposite-Spin Scale   =       1.2000000000000000 [-]
	 SCS Same-Spin Energy      =      -0.1487554130484854 [Eh]
	 SCS Opposite-Spin Energy  =      -1.7562782567825328 [Eh]
	 SCS Correlation Energy    =      -1.9050336698310182 [Eh]
	 SCS Total Energy          =    -441.0412022911883696 [Eh]
	-----------------------------------------------------------

  Dipole Moment: [D]
     X:     3.4677      Y:     2.8801      Z:    -0.2364     Total:     4.5140

*** Psi4 exiting successfully. Buy a developer a beer!
