                               Psi4 1.4a3.dev225

  ==> Input File <==

--------------------------------------------------------------------------
#psi4
#
memory 32 gb

molecule  {
0 1
  O       -1.7446660    -1.3796590    -0.7880960
  O       -0.4296620     1.7569970     0.2600660
  N        0.4723820    -0.3330750    -0.0012650
  C        1.8394770     0.0732600     0.3013020
  C       -1.9099390    -0.0103690    -0.3967440
  C        2.4958720     0.7244850    -0.9128940
  C        2.6145980    -1.1365250     0.8043010
  C       -0.5442740     0.5588710    -0.0269710
  C       -2.8608870     0.1360220     0.7815810
  H        1.7638430     0.8203410     1.0982830
  H        0.2750420    -1.2730860    -0.3263580
  H       -2.2722210     0.5864250    -1.2458220
  H        2.5570320     0.0100450    -1.7401110
  H        1.9072700     1.5874400    -1.2316560
  H        3.5085800     1.0627310    -0.6705710
  H        2.6773940    -1.9046250     0.0252330
  H        2.1327900    -1.5715010     1.6841320
  H        3.6348850    -0.8497170     1.0733550
  H       -2.5011890    -0.4705790     1.6169940
  H       -3.8694610    -0.1962540     0.5126420
  H       -2.9055320     1.1820880     1.0905810
  H       -2.5840485    -1.7261646    -0.9483629
units angstrom
no_reorient  #important for SAPT in psi4, default
symmetry c1  #important for SAPT in psi4, default
}

set PROPERTIES_ORIGIN ["COM"]
properties('MP2/aug-cc-pvtz', properties = ['dipole'])
--------------------------------------------------------------------------

    Molecular point group: c1
  Charge       = 0
  Multiplicity = 1
  Basis Set: AUG-CC-PVTZ
    Blend: AUG-CC-PVTZ
  Basis Set: (AUG-CC-PVTZ AUX)
    Blend: AUG-CC-PVTZ-JKFIT

    Orbital Energies [Eh]
    ---------------------

    Doubly Occupied:

       1A    -20.576534     2A    -20.509523     3A    -15.575805
       4A    -11.343165     5A    -11.301688     6A    -11.264085
       7A    -11.229321     8A    -11.221452     9A    -11.209397
      10A     -1.397543    11A     -1.361091    12A     -1.228212
      13A     -1.059214    14A     -1.029624    15A     -0.937261
      16A     -0.899400    17A     -0.814235    18A     -0.778986
      19A     -0.719517    20A     -0.692999    21A     -0.645115
      22A     -0.642523    23A     -0.614652    24A     -0.594957
      25A     -0.578703    26A     -0.564446    27A     -0.552048
      28A     -0.542500    29A     -0.527128    30A     -0.520886
      31A     -0.517530    32A     -0.491282    33A     -0.480492
      34A     -0.460206    35A     -0.414231    36A     -0.382708

  @DF-RHF Final Energy:  -439.13862077630483

   => Energetics <=

    Nuclear Repulsion Energy =            486.2640818073361402
    One-Electron Energy =               -1563.4484901593164068
    Two-Electron Energy =                 638.0457875756753765
    Total Energy =                       -439.1386207763048333
  Basis Set: (AUG-CC-PVTZ AUX)
    Blend: AUG-CC-PVTZ-RI
    Molecular point group: c1

    Geometry (in Angstrom), charge = 0, multiplicity = 1:

       Center              X                  Y                   Z               Mass
    ------------   -----------------  -----------------  -----------------  -----------------
         O           -1.712727211163    -1.400682162471    -0.781147377995    15.994914619570
         O           -0.397723211163     1.735973837529     0.267014622005    15.994914619570
         N            0.504320788837    -0.354098162471     0.005683622005    14.003074004430
         C            1.871415788837     0.052236837529     0.308250622005    12.000000000000
         C           -1.878000211163    -0.031392162471    -0.389795377995    12.000000000000
         C            2.527810788837     0.703461837529    -0.905945377995    12.000000000000
         C            2.646536788837    -1.157548162471     0.811249622005    12.000000000000
         C           -0.512335211163     0.537847837529    -0.020022377995    12.000000000000
         C           -2.828948211163     0.114998837529     0.788529622005    12.000000000000
         H            1.795781788837     0.799317837529     1.105231622005     1.007825032230
         H            0.306980788837    -1.294109162471    -0.319409377995     1.007825032230
         H           -2.240282211163     0.565401837529    -1.238873377995     1.007825032230
         H            2.588970788837    -0.010978162471    -1.733162377995     1.007825032230
         H            1.939208788837     1.566416837529    -1.224707377995     1.007825032230
         H            3.540518788837     1.041707837529    -0.663622377995     1.007825032230
         H            2.709332788837    -1.925648162471     0.032181622005     1.007825032230
         H            2.164728788837    -1.592524162471     1.691080622005     1.007825032230
         H            3.666823788837    -0.870740162471     1.080303622005     1.007825032230
         H           -2.469250211163    -0.491602162471     1.623942622005     1.007825032230
         H           -3.837522211163    -0.217277162471     0.519590622005     1.007825032230
         H           -2.873593211163     1.161064837529     1.097529622005     1.007825032230
         H           -2.552109711163    -1.747187762471    -0.941414277995     1.007825032230

  Basis Set: AUG-CC-PVTZ
    Blend: AUG-CC-PVTZ
  Basis Set: (AUG-CC-PVTZ AUX)
    Blend: AUG-CC-PVTZ-JKFIT
	 Reference Energy          =    -439.1386207763048333 [Eh]
	 Singles Energy            =      -0.0000000000000000 [Eh]
	 Same-Spin Energy          =      -0.4448921699593796 [Eh]
	 Opposite-Spin Energy      =      -1.4619506811586265 [Eh]
	 Correlation Energy        =      -1.9068428511180060 [Eh]
	 Total Energy              =    -441.0454636274228619 [Eh]

	 ================> DF-SCS-MP2 Energies <==================
	-----------------------------------------------------------
	 SCS Same-Spin Scale       =       0.3333333333333333 [-]
	 SCS Opposite-Spin Scale   =       1.2000000000000000 [-]
	 SCS Same-Spin Energy      =      -0.1482973899864599 [Eh]
	 SCS Opposite-Spin Energy  =      -1.7543408173903516 [Eh]
	 SCS Correlation Energy    =      -1.9026382073768116 [Eh]
	 SCS Total Energy          =    -441.0412589836816437 [Eh]
	-----------------------------------------------------------

  Dipole Moment: [D]
     X:    -0.6377      Y:    -2.8507      Z:    -0.4516     Total:     2.9559

*** Psi4 exiting successfully. Buy a developer a beer!
