                               Psi4 1.3.2 release

  ==> Input File <==

--------------------------------------------------------------------------
#psi4
#
memory 32 gb

molecule  {
0 1
  O       -2.8968130    -0.3474360    -0.2563530
  O       -0.5825960    -1.5131530     0.0834280
  N        0.6646380     0.3451110    -0.3514860
  C        1.9864154    -0.2409451    -0.1486354
  C       -1.7875910     0.5207530    -0.3412920
  C        2.3087340    -0.3110910     1.3526080
  C        3.0072020     0.3769410    -0.9846900
  C       -0.5427201    -0.2448017    -0.1997035
  C       -1.8991130     1.5929580     0.7362800
  H        1.8182130    -1.3395260    -0.4626630
  H        0.6508110     1.3528600    -0.4628320
  H       -1.7688680     0.9937940    -1.3356380
  H        2.4085440     0.7136460     1.7243230
  H        1.5276200    -0.8195050     1.9221530
  H        3.2560570    -0.8319740     1.5215790
  H        3.1304270     1.4235350    -0.6835410
  H        2.7315590     0.3479870    -2.0412990
  H        3.9738610    -0.1182480    -0.8633910
  H       -1.8420940     1.1254490     1.7220580
  H       -2.8670940     2.0889060     0.6442650
  H       -1.1140830     2.3514110     0.6543310
  H       -2.4990480    -1.2315890    -0.0938460
units angstrom
no_reorient  #important for SAPT in psi4, default
symmetry c1  #important for SAPT in psi4, default
}

set PROPERTIES_ORIGIN ["COM"]
properties('MP2/aug-cc-pvtz', properties = ['dipole'])
--------------------------------------------------------------------------

    Molecular point group: c1
  Charge       = 0
  Multiplicity = 1
  Basis Set: AUG-CC-PVTZ
    Blend: AUG-CC-PVTZ
  Basis Set: (AUG-CC-PVTZ AUX)
    Blend: AUG-CC-PVTZ-JKFIT

    Orbital Energies [Eh]
    ---------------------

    Doubly Occupied:

       1A    -20.550117     2A    -20.523915     3A    -15.601324
       4A    -11.364253     5A    -11.300310     6A    -11.281907
       7A    -11.234872     8A    -11.232595     9A    -11.223271
      10A     -1.380881    11A     -1.333841    12A     -1.241738
      13A     -1.084365    14A     -1.033786    15A     -0.954379
      16A     -0.909033    17A     -0.823514    18A     -0.788502
      19A     -0.741785    20A     -0.677395    21A     -0.650450
      22A     -0.635288    23A     -0.625089    24A     -0.591986
      25A     -0.581450    26A     -0.570670    27A     -0.555138
      28A     -0.550026    29A     -0.540578    30A     -0.524982
      31A     -0.513703    32A     -0.506014    33A     -0.471714
      34A     -0.446679    35A     -0.435615    36A     -0.395869

  @DF-RHF Final Energy:  -439.11656105879945

   => Energetics <=

    Nuclear Repulsion Energy =            485.0908057583004620
    One-Electron Energy =               -1560.6606641340210899
    Two-Electron Energy =                 636.4532973169212937
    Total Energy =                       -439.1165610587994479
  Basis Set: (AUG-CC-PVTZ AUX)
    Blend: AUG-CC-PVTZ-RI
    Molecular point group: c1

    Geometry (in Angstrom), charge = 0, multiplicity = 1:

       Center              X                  Y                   Z               Mass
    ------------   -----------------  -----------------  -----------------  -----------------
         O           -2.896879816837    -0.358897669510    -0.252920900740    15.994914619570
         O           -0.582662816837    -1.524614669510     0.086860099260    15.994914619570
         N            0.664571183163     0.333649330490    -0.348053900740    14.003074004430
         C            1.986348583163    -0.252406769510    -0.145203300740    12.000000000000
         C           -1.787657816837     0.509291330490    -0.337859900740    12.000000000000
         C            2.308667183163    -0.322552669510     1.356040099260    12.000000000000
         C            3.007135183163     0.365479330490    -0.981257900740    12.000000000000
         C           -0.542786916837    -0.256263369510    -0.196271400740    12.000000000000
         C           -1.899179816837     1.581496330490     0.739712099260    12.000000000000
         H            1.818146183163    -1.350987669510    -0.459230900740     1.007825032230
         H            0.650744183163     1.341398330490    -0.459399900740     1.007825032230
         H           -1.768934816837     0.982332330490    -1.332205900740     1.007825032230
         H            2.408477183163     0.702184330490     1.727755099260     1.007825032230
         H            1.527553183163    -0.830966669510     1.925585099260     1.007825032230
         H            3.255990183163    -0.843435669510     1.525011099260     1.007825032230
         H            3.130360183163     1.412073330490    -0.680108900740     1.007825032230
         H            2.731492183163     0.336525330490    -2.037866900740     1.007825032230
         H            3.973794183163    -0.129709669510    -0.859958900740     1.007825032230
         H           -1.842160816837     1.113987330490     1.725490099260     1.007825032230
         H           -2.867160816837     2.077444330490     0.647697099260     1.007825032230
         H           -1.114149816837     2.339949330490     0.657763099260     1.007825032230
         H           -2.499114816837    -1.243050669510    -0.090413900740     1.007825032230

  Basis Set: AUG-CC-PVTZ
    Blend: AUG-CC-PVTZ
  Basis Set: (AUG-CC-PVTZ AUX)
    Blend: AUG-CC-PVTZ-JKFIT
	 Reference Energy          =    -439.1165610587994479 [Eh]
	 Singles Energy            =      -0.0000000000000000 [Eh]
	 Same-Spin Energy          =      -0.4484479311035947 [Eh]
	 Opposite-Spin Energy      =      -1.4679948638334572 [Eh]
	 Correlation Energy        =      -1.9164427949370519 [Eh]
	 Total Energy              =    -441.0330038537364885 [Eh]

	 ================> DF-SCS-MP2 Energies <==================
	-----------------------------------------------------------
	 SCS Same-Spin Scale       =       0.3333333333333333 [-]
	 SCS Opposite-Spin Scale   =       1.2000000000000000 [-]
	 SCS Same-Spin Energy      =      -0.1494826437011982 [Eh]
	 SCS Opposite-Spin Energy  =      -1.7615938366001487 [Eh]
	 SCS Correlation Energy    =      -1.9110764803013469 [Eh]
	 SCS Total Energy          =    -441.0276375391007946 [Eh]
	-----------------------------------------------------------

  Dipole Moment: [D]
     X:     3.5815      Y:     3.2406      Z:    -0.3045     Total:     4.8395

*** Psi4 exiting successfully. Buy a developer a beer!
