                               Psi4 1.4a3.dev225

  ==> Input File <==

--------------------------------------------------------------------------
#psi4
#
memory 32 gb

molecule  {
0 1
  O       -1.7446660    -1.3796590    -0.7880960
  O       -0.4296620     1.7569970     0.2600660
  N        0.4723820    -0.3330750    -0.0012650
  C        1.8394770     0.0732600     0.3013020
  C       -1.9099390    -0.0103690    -0.3967440
  C        2.4958720     0.7244850    -0.9128940
  C        2.6145980    -1.1365250     0.8043010
  C       -0.5442740     0.5588710    -0.0269710
  C       -2.8608870     0.1360220     0.7815810
  H        1.7638430     0.8203410     1.0982830
  H        0.2789342    -1.2545458    -0.3199461
  H       -2.2722210     0.5864250    -1.2458220
  H        2.5570320     0.0100450    -1.7401110
  H        1.9072700     1.5874400    -1.2316560
  H        3.5085800     1.0627310    -0.6705710
  H        2.6773940    -1.9046250     0.0252330
  H        2.1327900    -1.5715010     1.6841320
  H        3.6348850    -0.8497170     1.0733550
  H       -2.5011890    -0.4705790     1.6169940
  H       -3.8694610    -0.1962540     0.5126420
  H       -2.9055320     1.1820880     1.0905810
  H       -2.6295620    -1.7449530    -0.9570530
units angstrom
no_reorient  #important for SAPT in psi4, default
symmetry c1  #important for SAPT in psi4, default
}

set PROPERTIES_ORIGIN ["COM"]
properties('MP2/aug-cc-pvtz', properties = ['dipole'])
--------------------------------------------------------------------------

    Molecular point group: c1
  Charge       = 0
  Multiplicity = 1
  Basis Set: AUG-CC-PVTZ
    Blend: AUG-CC-PVTZ
  Basis Set: (AUG-CC-PVTZ AUX)
    Blend: AUG-CC-PVTZ-JKFIT

    Orbital Energies [Eh]
    ---------------------

    Doubly Occupied:

       1A    -20.580841     2A    -20.509536     3A    -15.574079
       4A    -11.343110     5A    -11.301082     6A    -11.264082
       7A    -11.228974     8A    -11.221448     9A    -11.209405
      10A     -1.387831    11A     -1.358943    12A     -1.230152
      13A     -1.058001    14A     -1.028663    15A     -0.937320
      16A     -0.897395    17A     -0.814113    18A     -0.782017
      19A     -0.712175    20A     -0.690587    21A     -0.644971
      22A     -0.641222    23A     -0.614386    24A     -0.595172
      25A     -0.578844    26A     -0.563108    27A     -0.551724
      28A     -0.542476    29A     -0.526092    30A     -0.520681
      31A     -0.517454    32A     -0.491121    33A     -0.480385
      34A     -0.459165    35A     -0.413952    36A     -0.383022

  @DF-RHF Final Energy:  -439.13844795986620

   => Energetics <=

    Nuclear Repulsion Energy =            486.0395853046166508
    One-Electron Energy =               -1563.0490087452794796
    Two-Electron Energy =                 637.8709754807966874
    Total Energy =                       -439.1384479598661983
  Basis Set: (AUG-CC-PVTZ AUX)
    Blend: AUG-CC-PVTZ-RI
    Molecular point group: c1

    Geometry (in Angstrom), charge = 0, multiplicity = 1:

       Center              X                  Y                   Z               Mass
    ------------   -----------------  -----------------  -----------------  -----------------
         O           -1.712407236284    -1.400680254367    -0.781129863723    15.994914619570
         O           -0.397403236284     1.735975745633     0.267032136277    15.994914619570
         N            0.504640763716    -0.354096254367     0.005701136277    14.003074004430
         C            1.871735763716     0.052238745633     0.308268136277    12.000000000000
         C           -1.877680236284    -0.031390254367    -0.389777863723    12.000000000000
         C            2.528130763716     0.703463745633    -0.905927863723    12.000000000000
         C            2.646856763716    -1.157546254367     0.811267136277    12.000000000000
         C           -0.512015236284     0.537849745633    -0.020004863723    12.000000000000
         C           -2.828628236284     0.115000745633     0.788547136277    12.000000000000
         H            1.796101763716     0.799319745633     1.105249136277     1.007825032230
         H            0.311192963716    -1.275567054367    -0.312979963723     1.007825032230
         H           -2.239962236284     0.565403745633    -1.238855863723     1.007825032230
         H            2.589290763716    -0.010976254367    -1.733144863723     1.007825032230
         H            1.939528763716     1.566418745633    -1.224689863723     1.007825032230
         H            3.540838763716     1.041709745633    -0.663604863723     1.007825032230
         H            2.709652763716    -1.925646254367     0.032199136277     1.007825032230
         H            2.165048763716    -1.592522254367     1.691098136277     1.007825032230
         H            3.667143763716    -0.870738254367     1.080321136277     1.007825032230
         H           -2.468930236284    -0.491600254367     1.623960136277     1.007825032230
         H           -3.837202236284    -0.217275254367     0.519608136277     1.007825032230
         H           -2.873273236284     1.161066745633     1.097547136277     1.007825032230
         H           -2.597303236284    -1.765974254367    -0.950086863723     1.007825032230

  Basis Set: AUG-CC-PVTZ
    Blend: AUG-CC-PVTZ
  Basis Set: (AUG-CC-PVTZ AUX)
    Blend: AUG-CC-PVTZ-JKFIT
	 Reference Energy          =    -439.1384479598661983 [Eh]
	 Singles Energy            =      -0.0000000000000000 [Eh]
	 Same-Spin Energy          =      -0.4452953556611344 [Eh]
	 Opposite-Spin Energy      =      -1.4630736844436947 [Eh]
	 Correlation Energy        =      -1.9083690401048292 [Eh]
	 Total Energy              =    -441.0468169999710426 [Eh]

	 ================> DF-SCS-MP2 Energies <==================
	-----------------------------------------------------------
	 SCS Same-Spin Scale       =       0.3333333333333333 [-]
	 SCS Opposite-Spin Scale   =       1.2000000000000000 [-]
	 SCS Same-Spin Energy      =      -0.1484317852203781 [Eh]
	 SCS Opposite-Spin Energy  =      -1.7556884213324335 [Eh]
	 SCS Correlation Energy    =      -1.9041202065528116 [Eh]
	 SCS Total Energy          =    -441.0425681664190165 [Eh]
	-----------------------------------------------------------

  Dipole Moment: [D]
     X:    -0.6634      Y:    -2.8551      Z:    -0.4566     Total:     2.9666

*** Psi4 exiting successfully. Buy a developer a beer!
