                               Psi4 1.3.2 release

  ==> Input File <==

--------------------------------------------------------------------------
#psi4
#
memory 32 gb

molecule  {
0 1
  O       -2.8968130    -0.3474360    -0.2563530
  O       -0.5825960    -1.5131530     0.0834280
  N        0.6646380     0.3451110    -0.3514860
  C        1.9521820    -0.3066060    -0.1296730
  C       -1.7875910     0.5207530    -0.3412920
  C        2.3087340    -0.3110910     1.3526080
  C        3.0072020     0.3769410    -0.9846900
  C       -0.5092170    -0.3043550    -0.1811720
  C       -1.9064297     1.6633029     0.8069770
  H        1.8182130    -1.3395260    -0.4626630
  H        0.6508110     1.3528600    -0.4628320
  H       -1.7688680     0.9937940    -1.3356380
  H        2.4085440     0.7136460     1.7243230
  H        1.5276200    -0.8195050     1.9221530
  H        3.2560570    -0.8319740     1.5215790
  H        3.1304270     1.4235350    -0.6835410
  H        2.7315590     0.3479870    -2.0412990
  H        3.9738610    -0.1182480    -0.8633910
  H       -1.8420940     1.1254490     1.7220580
  H       -2.8670940     2.0889060     0.6442650
  H       -1.1140830     2.3514110     0.6543310
  H       -2.4990480    -1.2315890    -0.0938460
units angstrom
no_reorient  #important for SAPT in psi4, default
symmetry c1  #important for SAPT in psi4, default
}

set PROPERTIES_ORIGIN ["COM"]
properties('MP2/aug-cc-pvtz', properties = ['dipole'])
--------------------------------------------------------------------------

    Molecular point group: c1
  Charge       = 0
  Multiplicity = 1
  Basis Set: AUG-CC-PVTZ
    Blend: AUG-CC-PVTZ
  Basis Set: (AUG-CC-PVTZ AUX)
    Blend: AUG-CC-PVTZ-JKFIT

    Orbital Energies [Eh]
    ---------------------

    Doubly Occupied:

       1A    -20.548308     2A    -20.531855     3A    -15.595409
       4A    -11.357852     5A    -11.300700     6A    -11.277084
       7A    -11.232229     8A    -11.228861     9A    -11.222194
      10A     -1.396266    11A     -1.344608    12A     -1.247486
      13A     -1.069571    14A     -1.013222    15A     -0.949785
      16A     -0.900131    17A     -0.822499    18A     -0.794828
      19A     -0.733908    20A     -0.677279    21A     -0.647218
      22A     -0.629611    23A     -0.628495    24A     -0.599013
      25A     -0.580244    26A     -0.570599    27A     -0.557002
      28A     -0.552940    29A     -0.545804    30A     -0.531412
      31A     -0.512073    32A     -0.502479    33A     -0.491435
      34A     -0.437649    35A     -0.429911    36A     -0.400507

  @DF-RHF Final Energy:  -439.13073303337518

   => Energetics <=

    Nuclear Repulsion Energy =            483.6373680158768025
    One-Electron Energy =               -1557.8152716985621282
    Two-Electron Energy =                 635.0471706493102602
    Total Energy =                       -439.1307330333751224
  Basis Set: (AUG-CC-PVTZ AUX)
    Blend: AUG-CC-PVTZ-RI
    Molecular point group: c1

    Geometry (in Angstrom), charge = 0, multiplicity = 1:

       Center              X                  Y                   Z               Mass
    ------------   -----------------  -----------------  -----------------  -----------------
         O           -2.896143219151    -0.353875102173    -0.262824363706    15.994914619570
         O           -0.581926219151    -1.519592102173     0.076956636294    15.994914619570
         N            0.665307780849     0.338671897827    -0.357957363706    14.003074004430
         C            1.952851780849    -0.313045102173    -0.136144363706    12.000000000000
         C           -1.786921219151     0.514313897827    -0.347763363706    12.000000000000
         C            2.309403780849    -0.317530102173     1.346136636294    12.000000000000
         C            3.007871780849     0.370501897827    -0.991161363706    12.000000000000
         C           -0.508547219151    -0.310794102173    -0.187643363706    12.000000000000
         C           -1.905759919151     1.656863797827     0.800505636294    12.000000000000
         H            1.818882780849    -1.345965102173    -0.469134363706     1.007825032230
         H            0.651480780849     1.346420897827    -0.469303363706     1.007825032230
         H           -1.768198219151     0.987354897827    -1.342109363706     1.007825032230
         H            2.409213780849     0.707206897827     1.717851636294     1.007825032230
         H            1.528289780849    -0.825944102173     1.915681636294     1.007825032230
         H            3.256726780849    -0.838413102173     1.515107636294     1.007825032230
         H            3.131096780849     1.417095897827    -0.690012363706     1.007825032230
         H            2.732228780849     0.341547897827    -2.047770363706     1.007825032230
         H            3.974530780849    -0.124687102173    -0.869862363706     1.007825032230
         H           -1.841424219151     1.119009897827     1.715586636294     1.007825032230
         H           -2.866424219151     2.082466897827     0.637793636294     1.007825032230
         H           -1.113413219151     2.344971897827     0.647859636294     1.007825032230
         H           -2.498378219151    -1.238028102173    -0.100317363706     1.007825032230

  Basis Set: AUG-CC-PVTZ
    Blend: AUG-CC-PVTZ
  Basis Set: (AUG-CC-PVTZ AUX)
    Blend: AUG-CC-PVTZ-JKFIT
	 Reference Energy          =    -439.1307330333751793 [Eh]
	 Singles Energy            =      -0.0000000000000000 [Eh]
	 Same-Spin Energy          =      -0.4457584973541405 [Eh]
	 Opposite-Spin Energy      =      -1.4637612395037660 [Eh]
	 Correlation Energy        =      -1.9095197368579067 [Eh]
	 Total Energy              =    -441.0402527702331099 [Eh]

	 ================> DF-SCS-MP2 Energies <==================
	-----------------------------------------------------------
	 SCS Same-Spin Scale       =       0.3333333333333333 [-]
	 SCS Opposite-Spin Scale   =       1.2000000000000000 [-]
	 SCS Same-Spin Energy      =      -0.1485861657847135 [Eh]
	 SCS Opposite-Spin Energy  =      -1.7565134874045192 [Eh]
	 SCS Correlation Energy    =      -1.9050996531892328 [Eh]
	 SCS Total Energy          =    -441.0358326865643903 [Eh]
	-----------------------------------------------------------

  Dipole Moment: [D]
     X:     3.5550      Y:     2.8811      Z:    -0.2614     Total:     4.5833

*** Psi4 exiting successfully. Buy a developer a beer!
