                               Psi4 1.3.2 release

  ==> Input File <==

--------------------------------------------------------------------------
#psi4
#
memory 32 gb

molecule  {
0 1
  O       -2.8968130    -0.3474360    -0.2563530
  O       -0.5825960    -1.5131530     0.0834280
  N        0.6646380     0.3451110    -0.3514860
  C        1.9521820    -0.3066060    -0.1296730
  C       -1.7875910     0.5207530    -0.3412920
  C        2.3087340    -0.3110910     1.3526080
  C        3.0072020     0.3769410    -0.9846900
  C       -0.5960205    -0.3523813    -0.1685777
  C       -1.8991130     1.5929580     0.7362800
  H        1.8182130    -1.3395260    -0.4626630
  H        0.6508110     1.3528600    -0.4628320
  H       -1.7688680     0.9937940    -1.3356380
  H        2.4085440     0.7136460     1.7243230
  H        1.5276200    -0.8195050     1.9221530
  H        3.2560570    -0.8319740     1.5215790
  H        3.1304270     1.4235350    -0.6835410
  H        2.7315590     0.3479870    -2.0412990
  H        3.9738610    -0.1182480    -0.8633910
  H       -1.8420940     1.1254490     1.7220580
  H       -2.8670940     2.0889060     0.6442650
  H       -1.1140830     2.3514110     0.6543310
  H       -2.4990480    -1.2315890    -0.0938460
units angstrom
no_reorient  #important for SAPT in psi4, default
symmetry c1  #important for SAPT in psi4, default
}

set PROPERTIES_ORIGIN ["COM"]
properties('MP2/aug-cc-pvtz', properties = ['dipole'])
--------------------------------------------------------------------------

    Molecular point group: c1
  Charge       = 0
  Multiplicity = 1
  Basis Set: AUG-CC-PVTZ
    Blend: AUG-CC-PVTZ
  Basis Set: (AUG-CC-PVTZ AUX)
    Blend: AUG-CC-PVTZ-JKFIT

    Orbital Energies [Eh]
    ---------------------

    Doubly Occupied:

       1A    -20.552841     2A    -20.551676     3A    -15.576889
       4A    -11.363798     5A    -11.300148     6A    -11.268434
       7A    -11.234594     8A    -11.225452     9A    -11.216002
      10A     -1.432736    11A     -1.358705    12A     -1.219038
      13A     -1.064860    14A     -1.020874    15A     -0.942955
      16A     -0.903427    17A     -0.812397    18A     -0.776136
      19A     -0.744010    20A     -0.685237    21A     -0.656866
      22A     -0.633650    23A     -0.622924    24A     -0.598467
      25A     -0.582344    26A     -0.570642    27A     -0.549543
      28A     -0.544397    29A     -0.541841    30A     -0.535121
      31A     -0.521967    32A     -0.501082    33A     -0.486561
      34A     -0.450868    35A     -0.443308    36A     -0.388954

  @DF-RHF Final Energy:  -439.12760022601731

   => Energetics <=

    Nuclear Repulsion Energy =            485.2359031941675198
    One-Electron Energy =               -1560.9695204668112183
    Two-Electron Energy =                 636.6060170466263344
    Total Energy =                       -439.1276002260173073
  Basis Set: (AUG-CC-PVTZ AUX)
    Blend: AUG-CC-PVTZ-RI
    Molecular point group: c1

    Geometry (in Angstrom), charge = 0, multiplicity = 1:

       Center              X                  Y                   Z               Mass
    ------------   -----------------  -----------------  -----------------  -----------------
         O           -2.888867241411    -0.343039765787    -0.257505820855    15.994914619570
         O           -0.574650241411    -1.508756765787     0.082275179145    15.994914619570
         N            0.672583758589     0.349507234213    -0.352638820855    14.003074004430
         C            1.960127758589    -0.302209765787    -0.130825820855    12.000000000000
         C           -1.779645241411     0.525149234213    -0.342444820855    12.000000000000
         C            2.316679758589    -0.306694765787     1.351455179145    12.000000000000
         C            3.015147758589     0.381337234213    -0.985842820855    12.000000000000
         C           -0.588074741411    -0.347985065787    -0.169730520855    12.000000000000
         C           -1.891167241411     1.597354234213     0.735127179145    12.000000000000
         H            1.826158758589    -1.335129765787    -0.463815820855     1.007825032230
         H            0.658756758589     1.357256234213    -0.463984820855     1.007825032230
         H           -1.760922241411     0.998190234213    -1.336790820855     1.007825032230
         H            2.416489758589     0.718042234213     1.723170179145     1.007825032230
         H            1.535565758589    -0.815108765787     1.921000179145     1.007825032230
         H            3.264002758589    -0.827577765787     1.520426179145     1.007825032230
         H            3.138372758589     1.427931234213    -0.684693820855     1.007825032230
         H            2.739504758589     0.352383234213    -2.042451820855     1.007825032230
         H            3.981806758589    -0.113851765787    -0.864543820855     1.007825032230
         H           -1.834148241411     1.129845234213     1.720905179145     1.007825032230
         H           -2.859148241411     2.093302234213     0.643112179145     1.007825032230
         H           -1.106137241411     2.355807234213     0.653178179145     1.007825032230
         H           -2.491102241411    -1.227192765787    -0.094998820855     1.007825032230

  Basis Set: AUG-CC-PVTZ
    Blend: AUG-CC-PVTZ
  Basis Set: (AUG-CC-PVTZ AUX)
    Blend: AUG-CC-PVTZ-JKFIT
	 Reference Energy          =    -439.1276002260173073 [Eh]
	 Singles Energy            =      -0.0000000000000000 [Eh]
	 Same-Spin Energy          =      -0.4455292043728298 [Eh]
	 Opposite-Spin Energy      =      -1.4630105760512664 [Eh]
	 Correlation Energy        =      -1.9085397804240962 [Eh]
	 Total Energy              =    -441.0361400064414283 [Eh]

	 ================> DF-SCS-MP2 Energies <==================
	-----------------------------------------------------------
	 SCS Same-Spin Scale       =       0.3333333333333333 [-]
	 SCS Opposite-Spin Scale   =       1.2000000000000000 [-]
	 SCS Same-Spin Energy      =      -0.1485097347909433 [Eh]
	 SCS Opposite-Spin Energy  =      -1.7556126912615195 [Eh]
	 SCS Correlation Energy    =      -1.9041224260524627 [Eh]
	 SCS Total Energy          =    -441.0317226520697886 [Eh]
	-----------------------------------------------------------

  Dipole Moment: [D]
     X:     2.7602      Y:     2.5498      Z:    -0.1351     Total:     3.7601

*** Psi4 exiting successfully. Buy a developer a beer!
