                               Psi4 1.4a3.dev225

  ==> Input File <==

--------------------------------------------------------------------------
#psi4
#
memory 32 gb

molecule  {
0 1
  O       -1.7446660    -1.3796590    -0.7880960
  O       -0.4296620     1.7569970     0.2600660
  N        0.4723820    -0.3330750    -0.0012650
  C        1.8394770     0.0732600     0.3013020
  C       -1.9099390    -0.0103690    -0.3967440
  C        2.4958720     0.7244850    -0.9128940
  C        2.6145980    -1.1365250     0.8043010
  C       -0.5066954     0.5259021    -0.0260208
  C       -2.8608870     0.1360220     0.7815810
  H        1.7638430     0.8203410     1.0982830
  H        0.2750420    -1.2730860    -0.3263580
  H       -2.2722210     0.5864250    -1.2458220
  H        2.5570320     0.0100450    -1.7401110
  H        1.9072700     1.5874400    -1.2316560
  H        3.5085800     1.0627310    -0.6705710
  H        2.6773940    -1.9046250     0.0252330
  H        2.1327900    -1.5715010     1.6841320
  H        3.6348850    -0.8497170     1.0733550
  H       -2.5011890    -0.4705790     1.6169940
  H       -3.8694610    -0.1962540     0.5126420
  H       -2.9055320     1.1820880     1.0905810
  H       -2.6295620    -1.7449530    -0.9570530
units angstrom
no_reorient  #important for SAPT in psi4, default
symmetry c1  #important for SAPT in psi4, default
}

set PROPERTIES_ORIGIN ["COM"]
properties('MP2/aug-cc-pvtz', properties = ['dipole'])
--------------------------------------------------------------------------

    Molecular point group: c1
  Charge       = 0
  Multiplicity = 1
  Basis Set: AUG-CC-PVTZ
    Blend: AUG-CC-PVTZ
  Basis Set: (AUG-CC-PVTZ AUX)
    Blend: AUG-CC-PVTZ-JKFIT

    Orbital Energies [Eh]
    ---------------------

    Doubly Occupied:

       1A    -20.579414     2A    -20.499419     3A    -15.584161
       4A    -11.339332     5A    -11.300137     6A    -11.268386
       7A    -11.226673     8A    -11.224732     9A    -11.212314
      10A     -1.385650    11A     -1.344739    12A     -1.239676
      13A     -1.062286    14A     -1.026722    15A     -0.940557
      16A     -0.893955    17A     -0.819469    18A     -0.789728
      19A     -0.712477    20A     -0.684857    21A     -0.646754
      22A     -0.641123    23A     -0.618001    24A     -0.585999
      25A     -0.581025    26A     -0.560675    27A     -0.550630
      28A     -0.545671    29A     -0.525028    30A     -0.521267
      31A     -0.513363    32A     -0.490789    33A     -0.482109
      34A     -0.458136    35A     -0.406402    36A     -0.385031

  @DF-RHF Final Energy:  -439.13350518845658

   => Energetics <=

    Nuclear Repulsion Energy =            486.1651820968926927
    One-Electron Energy =               -1563.3039983402411508
    Two-Electron Energy =                 638.0053110548918767
    Total Energy =                       -439.1335051884565246
  Basis Set: (AUG-CC-PVTZ AUX)
    Blend: AUG-CC-PVTZ-RI
    Molecular point group: c1

    Geometry (in Angstrom), charge = 0, multiplicity = 1:

       Center              X                  Y                   Z               Mass
    ------------   -----------------  -----------------  -----------------  -----------------
         O           -1.715817143676    -1.397519849689    -0.781167548918    15.994914619570
         O           -0.400813143676     1.739136150311     0.266994451082    15.994914619570
         N            0.501230856324    -0.350935849689     0.005663451082    14.003074004430
         C            1.868325856324     0.055399150311     0.308230451082    12.000000000000
         C           -1.881090143676    -0.028229849689    -0.389815548918    12.000000000000
         C            2.524720856324     0.706624150311    -0.905965548918    12.000000000000
         C            2.643446856324    -1.154385849689     0.811229451082    12.000000000000
         C           -0.477846543676     0.508041250311    -0.019092348918    12.000000000000
         C           -2.832038143676     0.118161150311     0.788509451082    12.000000000000
         H            1.792691856324     0.802480150311     1.105211451082     1.007825032230
         H            0.303890856324    -1.290946849689    -0.319429548918     1.007825032230
         H           -2.243372143676     0.568564150311    -1.238893548918     1.007825032230
         H            2.585880856324    -0.007815849689    -1.733182548918     1.007825032230
         H            1.936118856324     1.569579150311    -1.224727548918     1.007825032230
         H            3.537428856324     1.044870150311    -0.663642548918     1.007825032230
         H            2.706242856324    -1.922485849689     0.032161451082     1.007825032230
         H            2.161638856324    -1.589361849689     1.691060451082     1.007825032230
         H            3.663733856324    -0.867577849689     1.080283451082     1.007825032230
         H           -2.472340143676    -0.488439849689     1.623922451082     1.007825032230
         H           -3.840612143676    -0.214114849689     0.519570451082     1.007825032230
         H           -2.876683143676     1.164227150311     1.097509451082     1.007825032230
         H           -2.600713143676    -1.762813849689    -0.950124548918     1.007825032230

  Basis Set: AUG-CC-PVTZ
    Blend: AUG-CC-PVTZ
  Basis Set: (AUG-CC-PVTZ AUX)
    Blend: AUG-CC-PVTZ-JKFIT
	 Reference Energy          =    -439.1335051884565814 [Eh]
	 Singles Energy            =      -0.0000000000000000 [Eh]
	 Same-Spin Energy          =      -0.4457406796517268 [Eh]
	 Opposite-Spin Energy      =      -1.4639222064444541 [Eh]
	 Correlation Energy        =      -1.9096628860961808 [Eh]
	 Total Energy              =    -441.0431680745527387 [Eh]

	 ================> DF-SCS-MP2 Energies <==================
	-----------------------------------------------------------
	 SCS Same-Spin Scale       =       0.3333333333333333 [-]
	 SCS Opposite-Spin Scale   =       1.2000000000000000 [-]
	 SCS Same-Spin Energy      =      -0.1485802265505756 [Eh]
	 SCS Opposite-Spin Energy  =      -1.7567066477333448 [Eh]
	 SCS Correlation Energy    =      -1.9052868742839204 [Eh]
	 SCS Total Energy          =    -441.0387920627405265 [Eh]
	-----------------------------------------------------------

  Dipole Moment: [D]
     X:    -0.3485      Y:    -3.1472      Z:    -0.4828     Total:     3.2030

*** Psi4 exiting successfully. Buy a developer a beer!
