                               Psi4 1.3.2 release

  ==> Input File <==

--------------------------------------------------------------------------
#psi4
#
memory 32 gb

molecule  {
0 1
  O       -2.8968130    -0.3474360    -0.2563530
  O       -0.5825960    -1.5131530     0.0834280
  N        0.6669991     0.3407692    -0.3764842
  C        1.9521820    -0.3066060    -0.1296730
  C       -1.7875910     0.5207530    -0.3412920
  C        2.3314161    -0.3237661     1.3468748
  C        3.0072020     0.3769410    -0.9846900
  C       -0.5092170    -0.3043550    -0.1811720
  C       -1.8991130     1.5929580     0.7362800
  H        1.8182130    -1.3395260    -0.4626630
  H        0.6508110     1.3528600    -0.4628320
  H       -1.7688680     0.9937940    -1.3356380
  H        2.4085440     0.7136460     1.7243230
  H        1.5276200    -0.8195050     1.9221530
  H        3.2560570    -0.8319740     1.5215790
  H        3.1304270     1.4235350    -0.6835410
  H        2.7315590     0.3479870    -2.0412990
  H        3.9738610    -0.1182480    -0.8633910
  H       -1.8420940     1.1254490     1.7220580
  H       -2.8670940     2.0889060     0.6442650
  H       -1.1140830     2.3514110     0.6543310
  H       -2.4990480    -1.2315890    -0.0938460
units angstrom
no_reorient  #important for SAPT in psi4, default
symmetry c1  #important for SAPT in psi4, default
}

set PROPERTIES_ORIGIN ["COM"]
properties('MP2/aug-cc-pvtz', properties = ['dipole'])
--------------------------------------------------------------------------

    Molecular point group: c1
  Charge       = 0
  Multiplicity = 1
  Basis Set: AUG-CC-PVTZ
    Blend: AUG-CC-PVTZ
  Basis Set: (AUG-CC-PVTZ AUX)
    Blend: AUG-CC-PVTZ-JKFIT

    Orbital Energies [Eh]
    ---------------------

    Doubly Occupied:

       1A    -20.548187     2A    -20.533625     3A    -15.596435
       4A    -11.359134     5A    -11.297748     6A    -11.276913
       7A    -11.231235     8A    -11.231165     9A    -11.222882
      10A     -1.397678    11A     -1.346154    12A     -1.247393
      13A     -1.072077    14A     -1.024354    15A     -0.949275
      16A     -0.895445    17A     -0.822314    18A     -0.793688
      19A     -0.736753    20A     -0.678853    21A     -0.649296
      22A     -0.632929    23A     -0.628789    24A     -0.596428
      25A     -0.581741    26A     -0.567739    27A     -0.553792
      28A     -0.551427    29A     -0.539535    30A     -0.531979
      31A     -0.513125    32A     -0.500122    33A     -0.488817
      34A     -0.445226    35A     -0.435243    36A     -0.402572

  @DF-RHF Final Energy:  -439.13670619485987

   => Energetics <=

    Nuclear Repulsion Energy =            485.0062910224692700
    One-Electron Energy =               -1560.5258563500799482
    Two-Electron Energy =                 636.3828591327508093
    Total Energy =                       -439.1367061948599257
  Basis Set: (AUG-CC-PVTZ AUX)
    Blend: AUG-CC-PVTZ-RI
    Molecular point group: c1

    Geometry (in Angstrom), charge = 0, multiplicity = 1:

       Center              X                  Y                   Z               Mass
    ------------   -----------------  -----------------  -----------------  -----------------
         O           -2.899141421763    -0.345811930116    -0.253157956642    15.994914619570
         O           -0.584924421763    -1.511528930116     0.086623043358    15.994914619570
         N            0.664670678237     0.342393269884    -0.373289156642    14.003074004430
         C            1.949853578237    -0.304981930116    -0.126477956642    12.000000000000
         C           -1.789919421763     0.522377069884    -0.338096956642    12.000000000000
         C            2.329087678237    -0.322142030116     1.350069843358    12.000000000000
         C            3.004873578237     0.378565069884    -0.981494956642    12.000000000000
         C           -0.511545421763    -0.302730930116    -0.177976956642    12.000000000000
         C           -1.901441421763     1.594582069884     0.739475043358    12.000000000000
         H            1.815884578237    -1.337901930116    -0.459467956642     1.007825032230
         H            0.648482578237     1.354484069884    -0.459636956642     1.007825032230
         H           -1.771196421763     0.995418069884    -1.332442956642     1.007825032230
         H            2.406215578237     0.715270069884     1.727518043358     1.007825032230
         H            1.525291578237    -0.817880930116     1.925348043358     1.007825032230
         H            3.253728578237    -0.830349930116     1.524774043358     1.007825032230
         H            3.128098578237     1.425159069884    -0.680345956642     1.007825032230
         H            2.729230578237     0.349611069884    -2.038103956642     1.007825032230
         H            3.971532578237    -0.116623930116    -0.860195956642     1.007825032230
         H           -1.844422421763     1.127073069884     1.725253043358     1.007825032230
         H           -2.869422421763     2.090530069884     0.647460043358     1.007825032230
         H           -1.116411421763     2.353035069884     0.657526043358     1.007825032230
         H           -2.501376421763    -1.229964930116    -0.090650956642     1.007825032230

  Basis Set: AUG-CC-PVTZ
    Blend: AUG-CC-PVTZ
  Basis Set: (AUG-CC-PVTZ AUX)
    Blend: AUG-CC-PVTZ-JKFIT
	 Reference Energy          =    -439.1367061948598689 [Eh]
	 Singles Energy            =      -0.0000000000000000 [Eh]
	 Same-Spin Energy          =      -0.4460346820155409 [Eh]
	 Opposite-Spin Energy      =      -1.4637357062722693 [Eh]
	 Correlation Energy        =      -1.9097703882878103 [Eh]
	 Total Energy              =    -441.0464765831476939 [Eh]

	 ================> DF-SCS-MP2 Energies <==================
	-----------------------------------------------------------
	 SCS Same-Spin Scale       =       0.3333333333333333 [-]
	 SCS Opposite-Spin Scale   =       1.2000000000000000 [-]
	 SCS Same-Spin Energy      =      -0.1486782273385136 [Eh]
	 SCS Opposite-Spin Energy  =      -1.7564828475267231 [Eh]
	 SCS Correlation Energy    =      -1.9051610748652368 [Eh]
	 SCS Total Energy          =    -441.0418672697251168 [Eh]
	-----------------------------------------------------------

  Dipole Moment: [D]
     X:     3.5327      Y:     2.8914      Z:    -0.1682     Total:     4.5682

*** Psi4 exiting successfully. Buy a developer a beer!
