                               Psi4 1.3.2 release

  ==> Input File <==

--------------------------------------------------------------------------
#psi4
#
memory 32 gb

molecule  {
0 1
  O       -2.8968130    -0.3474360    -0.2563530
  O       -0.6257317    -1.5097756     0.0833573
  N        0.6646380     0.3451110    -0.3514860
  C        1.9521820    -0.3066060    -0.1296730
  C       -1.8161343     0.4767483    -0.3312605
  C        2.3087340    -0.3110910     1.3526080
  C        3.0072020     0.3769410    -0.9846900
  C       -0.5092170    -0.3043550    -0.1811720
  C       -1.8991130     1.5929580     0.7362800
  H        1.8182130    -1.3395260    -0.4626630
  H        0.6508110     1.3528600    -0.4628320
  H       -1.7688680     0.9937940    -1.3356380
  H        2.4085440     0.7136460     1.7243230
  H        1.5276200    -0.8195050     1.9221530
  H        3.2560570    -0.8319740     1.5215790
  H        3.1304270     1.4235350    -0.6835410
  H        2.7315590     0.3479870    -2.0412990
  H        3.9738610    -0.1182480    -0.8633910
  H       -1.8420940     1.1254490     1.7220580
  H       -2.8670940     2.0889060     0.6442650
  H       -1.1140830     2.3514110     0.6543310
  H       -2.4990480    -1.2315890    -0.0938460
units angstrom
no_reorient  #important for SAPT in psi4, default
symmetry c1  #important for SAPT in psi4, default
}

set PROPERTIES_ORIGIN ["COM"]
properties('MP2/aug-cc-pvtz', properties = ['dipole'])
--------------------------------------------------------------------------

    Molecular point group: c1
  Charge       = 0
  Multiplicity = 1
  Basis Set: AUG-CC-PVTZ
    Blend: AUG-CC-PVTZ
  Basis Set: (AUG-CC-PVTZ AUX)
    Blend: AUG-CC-PVTZ-JKFIT

    Orbital Energies [Eh]
    ---------------------

    Doubly Occupied:

       1A    -20.550562     2A    -20.532386     3A    -15.597720
       4A    -11.357500     5A    -11.296451     6A    -11.278786
       7A    -11.233169     8A    -11.228332     9A    -11.223116
      10A     -1.405095    11A     -1.358810    12A     -1.249957
      13A     -1.070845    14A     -1.017392    15A     -0.950773
      16A     -0.891994    17A     -0.823078    18A     -0.795590
      19A     -0.744407    20A     -0.679595    21A     -0.649874
      22A     -0.633366    23A     -0.630447    24A     -0.598309
      25A     -0.587597    26A     -0.566431    27A     -0.556140
      28A     -0.547263    29A     -0.542670    30A     -0.530597
      31A     -0.511974    32A     -0.503729    33A     -0.493014
      34A     -0.435935    35A     -0.431471    36A     -0.402268

  @DF-RHF Final Energy:  -439.13515890171226

   => Energetics <=

    Nuclear Repulsion Energy =            485.6088486994323148
    One-Electron Energy =               -1561.6747260694967281
    Two-Electron Energy =                 636.9307184683520973
    Total Energy =                       -439.1351589017122024
  Basis Set: (AUG-CC-PVTZ AUX)
    Blend: AUG-CC-PVTZ-RI
    Molecular point group: c1

    Geometry (in Angstrom), charge = 0, multiplicity = 1:

       Center              X                  Y                   Z               Mass
    ------------   -----------------  -----------------  -----------------  -----------------
         O           -2.888937195166    -0.343819968802    -0.257262603869    15.994914619570
         O           -0.617855895166    -1.506159568802     0.082447696131    15.994914619570
         N            0.672513804834     0.348727031198    -0.352395603869    14.003074004430
         C            1.960057804834    -0.302989968802    -0.130582603869    12.000000000000
         C           -1.808258495166     0.480364331198    -0.332170103869    12.000000000000
         C            2.316609804834    -0.307474968802     1.351698396131    12.000000000000
         C            3.015077804834     0.380557031198    -0.985599603869    12.000000000000
         C           -0.501341195166    -0.300738968802    -0.182081603869    12.000000000000
         C           -1.891237195166     1.596574031198     0.735370396131    12.000000000000
         H            1.826088804834    -1.335909968802    -0.463572603869     1.007825032230
         H            0.658686804834     1.356476031198    -0.463741603869     1.007825032230
         H           -1.760992195166     0.997410031198    -1.336547603869     1.007825032230
         H            2.416419804834     0.717262031198     1.723413396131     1.007825032230
         H            1.535495804834    -0.815888968802     1.921243396131     1.007825032230
         H            3.263932804834    -0.828357968802     1.520669396131     1.007825032230
         H            3.138302804834     1.427151031198    -0.684450603869     1.007825032230
         H            2.739434804834     0.351603031198    -2.042208603869     1.007825032230
         H            3.981736804834    -0.114631968802    -0.864300603869     1.007825032230
         H           -1.834218195166     1.129065031198     1.721148396131     1.007825032230
         H           -2.859218195166     2.092522031198     0.643355396131     1.007825032230
         H           -1.106207195166     2.355027031198     0.653421396131     1.007825032230
         H           -2.491172195166    -1.227972968802    -0.094755603869     1.007825032230

  Basis Set: AUG-CC-PVTZ
    Blend: AUG-CC-PVTZ
  Basis Set: (AUG-CC-PVTZ AUX)
    Blend: AUG-CC-PVTZ-JKFIT
	 Reference Energy          =    -439.1351589017122592 [Eh]
	 Singles Energy            =      -0.0000000000000000 [Eh]
	 Same-Spin Energy          =      -0.4460697369606885 [Eh]
	 Opposite-Spin Energy      =      -1.4629452033284107 [Eh]
	 Correlation Energy        =      -1.9090149402890992 [Eh]
	 Total Energy              =    -441.0441738420013849 [Eh]

	 ================> DF-SCS-MP2 Energies <==================
	-----------------------------------------------------------
	 SCS Same-Spin Scale       =       0.3333333333333333 [-]
	 SCS Opposite-Spin Scale   =       1.2000000000000000 [-]
	 SCS Same-Spin Energy      =      -0.1486899123202295 [Eh]
	 SCS Opposite-Spin Energy  =      -1.7555342439940929 [Eh]
	 SCS Correlation Energy    =      -1.9042241563143223 [Eh]
	 SCS Total Energy          =    -441.0393830580266012 [Eh]
	-----------------------------------------------------------

  Dipole Moment: [D]
     X:     3.6143      Y:     2.7587      Z:    -0.2188     Total:     4.5521

*** Psi4 exiting successfully. Buy a developer a beer!
