                               Psi4 1.3.2 release

  ==> Input File <==

--------------------------------------------------------------------------
#psi4
#
memory 32 gb

molecule  {
0 1
  O       -2.8968130    -0.3474360    -0.2563530
  O       -0.5825960    -1.5131530     0.0834280
  N        0.6646380     0.3451110    -0.3514860
  C        1.9521820    -0.3066060    -0.1296730
  C       -1.7854481     0.5022339    -0.3223150
  C        2.3087340    -0.3110910     1.3526080
  C        3.0072020     0.3769410    -0.9846900
  C       -0.5092170    -0.3043550    -0.1811720
  C       -1.8991130     1.5929580     0.7362800
  H        1.8182130    -1.3395260    -0.4626630
  H        0.6508110     1.3528600    -0.4628320
  H       -1.7688680     0.9937940    -1.3356380
  H        2.4085440     0.7136460     1.7243230
  H        1.5276200    -0.8195050     1.9221530
  H        3.2560570    -0.8319740     1.5215790
  H        3.1304270     1.4235350    -0.6835410
  H        2.7315590     0.3479870    -2.0412990
  H        3.9738610    -0.1182480    -0.8633910
  H       -1.8402716     1.1084134     1.7136890
  H       -2.8670940     2.0889060     0.6442650
  H       -1.1140830     2.3514110     0.6543310
  H       -2.4990480    -1.2315890    -0.0938460
units angstrom
no_reorient  #important for SAPT in psi4, default
symmetry c1  #important for SAPT in psi4, default
}

set PROPERTIES_ORIGIN ["COM"]
properties('MP2/aug-cc-pvtz', properties = ['dipole'])
--------------------------------------------------------------------------

    Molecular point group: c1
  Charge       = 0
  Multiplicity = 1
  Basis Set: AUG-CC-PVTZ
    Blend: AUG-CC-PVTZ
  Basis Set: (AUG-CC-PVTZ AUX)
    Blend: AUG-CC-PVTZ-JKFIT

    Orbital Energies [Eh]
    ---------------------

    Doubly Occupied:

       1A    -20.549622     2A    -20.532340     3A    -15.595830
       4A    -11.358017     5A    -11.297787     6A    -11.277413
       7A    -11.232342     8A    -11.230730     9A    -11.222323
      10A     -1.399331    11A     -1.349831    12A     -1.248094
      13A     -1.072570    14A     -1.023880    15A     -0.949910
      16A     -0.896173    17A     -0.821712    18A     -0.794351
      19A     -0.739139    20A     -0.678693    21A     -0.648919
      22A     -0.632891    23A     -0.629122    24A     -0.597153
      25A     -0.582931    26A     -0.566974    27A     -0.555298
      28A     -0.548641    29A     -0.540868    30A     -0.529097
      31A     -0.514369    32A     -0.502872    33A     -0.491873
      34A     -0.442021    35A     -0.435353    36A     -0.401228

  @DF-RHF Final Energy:  -439.13690766106845

   => Energetics <=

    Nuclear Repulsion Energy =            485.6726258730428754
    One-Electron Energy =               -1561.8396663903488388
    Two-Electron Energy =                 637.0301328562374010
    Total Energy =                       -439.1369076610684488
  Basis Set: (AUG-CC-PVTZ AUX)
    Blend: AUG-CC-PVTZ-RI
    Molecular point group: c1

    Geometry (in Angstrom), charge = 0, multiplicity = 1:

       Center              X                  Y                   Z               Mass
    ------------   -----------------  -----------------  -----------------  -----------------
         O           -2.897023132093    -0.345609798589    -0.258025734699    15.994914619570
         O           -0.582806132093    -1.511326798589     0.081755265301    15.994914619570
         N            0.664427867907     0.346937201411    -0.353158734699    14.003074004430
         C            1.951971867907    -0.304779798589    -0.131345734699    12.000000000000
         C           -1.785658232093     0.504060101411    -0.323987734699    12.000000000000
         C            2.308523867907    -0.309264798589     1.350935265301    12.000000000000
         C            3.006991867907     0.378767201411    -0.986362734699    12.000000000000
         C           -0.509427132093    -0.302528798589    -0.182844734699    12.000000000000
         C           -1.899323132093     1.594784201411     0.734607265301    12.000000000000
         H            1.818002867907    -1.337699798589    -0.464335734699     1.007825032230
         H            0.650600867907     1.354686201411    -0.464504734699     1.007825032230
         H           -1.769078132093     0.995620201411    -1.337310734699     1.007825032230
         H            2.408333867907     0.715472201411     1.722650265301     1.007825032230
         H            1.527409867907    -0.817678798589     1.920480265301     1.007825032230
         H            3.255846867907    -0.830147798589     1.519906265301     1.007825032230
         H            3.130216867907     1.425361201411    -0.685213734699     1.007825032230
         H            2.731348867907     0.349813201411    -2.042971734699     1.007825032230
         H            3.973650867907    -0.116421798589    -0.865063734699     1.007825032230
         H           -1.840481732093     1.110239601411     1.712016265301     1.007825032230
         H           -2.867304132093     2.090732201411     0.642592265301     1.007825032230
         H           -1.114293132093     2.353237201411     0.652658265301     1.007825032230
         H           -2.499258132093    -1.229762798589    -0.095518734699     1.007825032230

  Basis Set: AUG-CC-PVTZ
    Blend: AUG-CC-PVTZ
  Basis Set: (AUG-CC-PVTZ AUX)
    Blend: AUG-CC-PVTZ-JKFIT
	 Reference Energy          =    -439.1369076610684488 [Eh]
	 Singles Energy            =      -0.0000000000000000 [Eh]
	 Same-Spin Energy          =      -0.4461437196466444 [Eh]
	 Opposite-Spin Energy      =      -1.4636545324393382 [Eh]
	 Correlation Energy        =      -1.9097982520859826 [Eh]
	 Total Energy              =    -441.0467059131544261 [Eh]

	 ================> DF-SCS-MP2 Energies <==================
	-----------------------------------------------------------
	 SCS Same-Spin Scale       =       0.3333333333333333 [-]
	 SCS Opposite-Spin Scale   =       1.2000000000000000 [-]
	 SCS Same-Spin Energy      =      -0.1487145732155481 [Eh]
	 SCS Opposite-Spin Energy  =      -1.7563854389272058 [Eh]
	 SCS Correlation Energy    =      -1.9051000121427539 [Eh]
	 SCS Total Energy          =    -441.0420076732112307 [Eh]
	-----------------------------------------------------------

  Dipole Moment: [D]
     X:     3.5458      Y:     2.8856      Z:    -0.2036     Total:     4.5761

*** Psi4 exiting successfully. Buy a developer a beer!
