                               Psi4 1.3.2 release

  ==> Input File <==

--------------------------------------------------------------------------
#psi4
#
memory 32 gb

molecule  {
0 1
  O       -2.8968130    -0.3474360    -0.2563530
  O       -0.5825960    -1.5131530     0.0834280
  N        0.6646380     0.3451110    -0.3514860
  C        1.9521820    -0.3066060    -0.1296730
  C       -1.7919781     0.5587653    -0.3782556
  C        2.3087340    -0.3110910     1.3526080
  C        3.0072020     0.3769410    -0.9846900
  C       -0.5092170    -0.3043550    -0.1811720
  C       -1.8991130     1.5929580     0.7362800
  H        1.8182130    -1.3395260    -0.4626630
  H        0.6508110     1.3528600    -0.4628320
  H       -1.7688680     0.9937940    -1.3356380
  H        2.4085440     0.7136460     1.7243230
  H        1.5276200    -0.8195050     1.9221530
  H        3.2560570    -0.8319740     1.5215790
  H        3.1304270     1.4235350    -0.6835410
  H        2.7315590     0.3479870    -2.0412990
  H        3.9738610    -0.1182480    -0.8633910
  H       -1.8457903     1.1599422     1.7378928
  H       -2.8670940     2.0889060     0.6442650
  H       -1.1140830     2.3514110     0.6543310
  H       -2.4990480    -1.2315890    -0.0938460
units angstrom
no_reorient  #important for SAPT in psi4, default
symmetry c1  #important for SAPT in psi4, default
}

set PROPERTIES_ORIGIN ["COM"]
properties('MP2/aug-cc-pvtz', properties = ['dipole'])
--------------------------------------------------------------------------

    Molecular point group: c1
  Charge       = 0
  Multiplicity = 1
  Basis Set: AUG-CC-PVTZ
    Blend: AUG-CC-PVTZ
  Basis Set: (AUG-CC-PVTZ AUX)
    Blend: AUG-CC-PVTZ-JKFIT

    Orbital Energies [Eh]
    ---------------------

    Doubly Occupied:

       1A    -20.544377     2A    -20.532815     3A    -15.595490
       4A    -11.359013     5A    -11.297156     6A    -11.276846
       7A    -11.232281     8A    -11.231261     9A    -11.222106
      10A     -1.393669    11A     -1.337148    12A     -1.247736
      13A     -1.071715    14A     -1.024330    15A     -0.949753
      16A     -0.893334    17A     -0.824358    18A     -0.796412
      19A     -0.731054    20A     -0.679334    21A     -0.651292
      22A     -0.631298    23A     -0.628094    24A     -0.597107
      25A     -0.580258    26A     -0.568238    27A     -0.554817
      28A     -0.547239    29A     -0.536337    30A     -0.532906
      31A     -0.507877    32A     -0.502556    33A     -0.490626
      34A     -0.449547    35A     -0.430948    36A     -0.401670

  @DF-RHF Final Energy:  -439.13415189211889

   => Energetics <=

    Nuclear Repulsion Energy =            484.5553873149267474
    One-Electron Energy =               -1559.6770827301374993
    Two-Electron Energy =                 635.9875435230918583
    Total Energy =                       -439.1341518921188936
  Basis Set: (AUG-CC-PVTZ AUX)
    Blend: AUG-CC-PVTZ-RI
    Molecular point group: c1

    Geometry (in Angstrom), charge = 0, multiplicity = 1:

       Center              X                  Y                   Z               Mass
    ------------   -----------------  -----------------  -----------------  -----------------
         O           -2.896382969450    -0.351180650896    -0.253091177036    15.994914619570
         O           -0.582165969450    -1.516897650896     0.086689822964    15.994914619570
         N            0.665068030550     0.341366349104    -0.348224177036    14.003074004430
         C            1.952612030550    -0.310350650896    -0.126411177036    12.000000000000
         C           -1.791548069450     0.555020649104    -0.374993777036    12.000000000000
         C            2.309164030550    -0.314835650896     1.355869822964    12.000000000000
         C            3.007632030550     0.373196349104    -0.981428177036    12.000000000000
         C           -0.508786969450    -0.308099650896    -0.177910177036    12.000000000000
         C           -1.898682969450     1.589213349104     0.739541822964    12.000000000000
         H            1.818643030550    -1.343270650896    -0.459401177036     1.007825032230
         H            0.651241030550     1.349115349104    -0.459570177036     1.007825032230
         H           -1.768437969450     0.990049349104    -1.332376177036     1.007825032230
         H            2.408974030550     0.709901349104     1.727584822964     1.007825032230
         H            1.528050030550    -0.823249650896     1.925414822964     1.007825032230
         H            3.256487030550    -0.835718650896     1.524840822964     1.007825032230
         H            3.130857030550     1.419790349104    -0.680279177036     1.007825032230
         H            2.731989030550     0.344242349104    -2.038037177036     1.007825032230
         H            3.974291030550    -0.121992650896    -0.860129177036     1.007825032230
         H           -1.845360269450     1.156197549104     1.741154622964     1.007825032230
         H           -2.866663969450     2.085161349104     0.647526822964     1.007825032230
         H           -1.113652969450     2.347666349104     0.657592822964     1.007825032230
         H           -2.498617969450    -1.235333650896    -0.090584177036     1.007825032230

  Basis Set: AUG-CC-PVTZ
    Blend: AUG-CC-PVTZ
  Basis Set: (AUG-CC-PVTZ AUX)
    Blend: AUG-CC-PVTZ-JKFIT
	 Reference Energy          =    -439.1341518921188936 [Eh]
	 Singles Energy            =      -0.0000000000000000 [Eh]
	 Same-Spin Energy          =      -0.4459481978117444 [Eh]
	 Opposite-Spin Energy      =      -1.4639935088848426 [Eh]
	 Correlation Energy        =      -1.9099417066965869 [Eh]
	 Total Energy              =    -441.0440935988154934 [Eh]

	 ================> DF-SCS-MP2 Energies <==================
	-----------------------------------------------------------
	 SCS Same-Spin Scale       =       0.3333333333333333 [-]
	 SCS Opposite-Spin Scale   =       1.2000000000000000 [-]
	 SCS Same-Spin Energy      =      -0.1486493992705815 [Eh]
	 SCS Opposite-Spin Energy  =      -1.7567922106618110 [Eh]
	 SCS Correlation Energy    =      -1.9054416099323925 [Eh]
	 SCS Total Energy          =    -441.0395935020512752 [Eh]
	-----------------------------------------------------------

  Dipole Moment: [D]
     X:     3.6368      Y:     2.9774      Z:    -0.2587     Total:     4.7073

*** Psi4 exiting successfully. Buy a developer a beer!
