                               Psi4 1.4a3.dev225

  ==> Input File <==

--------------------------------------------------------------------------
#psi4
#
memory 32 gb

molecule  {
0 1
  O       -1.7446660    -1.3796590    -0.7880960
  O       -0.4296620     1.7569970     0.2600660
  N        0.4723820    -0.3330750    -0.0012650
  C        1.8394770     0.0732600     0.3013020
  C       -1.9099390    -0.0103690    -0.3967440
  C        2.4958720     0.7244850    -0.9128940
  C        2.6145980    -1.1365250     0.8043010
  C       -0.5593054     0.5720586    -0.0273511
  C       -2.8608870     0.1360220     0.7815810
  H        1.7638430     0.8203410     1.0982830
  H        0.2750420    -1.2730860    -0.3263580
  H       -2.2722210     0.5864250    -1.2458220
  H        2.5570320     0.0100450    -1.7401110
  H        1.9072700     1.5874400    -1.2316560
  H        3.5085800     1.0627310    -0.6705710
  H        2.6773940    -1.9046250     0.0252330
  H        2.1327900    -1.5715010     1.6841320
  H        3.6348850    -0.8497170     1.0733550
  H       -2.5011890    -0.4705790     1.6169940
  H       -3.8694610    -0.1962540     0.5126420
  H       -2.9055320     1.1820880     1.0905810
  H       -2.6295620    -1.7449530    -0.9570530
units angstrom
no_reorient  #important for SAPT in psi4, default
symmetry c1  #important for SAPT in psi4, default
}

set PROPERTIES_ORIGIN ["COM"]
properties('MP2/aug-cc-pvtz', properties = ['dipole'])
--------------------------------------------------------------------------

    Molecular point group: c1
  Charge       = 0
  Multiplicity = 1
  Basis Set: AUG-CC-PVTZ
    Blend: AUG-CC-PVTZ
  Basis Set: (AUG-CC-PVTZ AUX)
    Blend: AUG-CC-PVTZ-JKFIT

    Orbital Energies [Eh]
    ---------------------

    Doubly Occupied:

       1A    -20.581656     2A    -20.513240     3A    -15.572089
       4A    -11.344241     5A    -11.301520     6A    -11.262197
       7A    -11.229886     8A    -11.219991     9A    -11.208076
      10A     -1.389481    11A     -1.365055    12A     -1.222250
      13A     -1.056760    14A     -1.028157    15A     -0.935792
      16A     -0.898656    17A     -0.811335    18A     -0.773399
      19A     -0.712414    20A     -0.692240    21A     -0.644372
      22A     -0.640238    23A     -0.612660    24A     -0.598349
      25A     -0.577345    26A     -0.564027    27A     -0.552091
      28A     -0.541078    29A     -0.526039    30A     -0.521402
      31A     -0.517747    32A     -0.490998    33A     -0.479239
      34A     -0.459838    35A     -0.415943    36A     -0.380834

  @DF-RHF Final Energy:  -439.13775393667851

   => Energetics <=

    Nuclear Repulsion Energy =            485.8407476346287126
    One-Electron Energy =               -1562.6757297008580281
    Two-Electron Energy =                 637.6972281295508083
    Total Energy =                       -439.1377539366784504
  Basis Set: (AUG-CC-PVTZ AUX)
    Blend: AUG-CC-PVTZ-RI
    Molecular point group: c1

    Geometry (in Angstrom), charge = 0, multiplicity = 1:

       Center              X                  Y                   Z               Mass
    ------------   -----------------  -----------------  -----------------  -----------------
         O           -1.711001385728    -1.401744874052    -0.781045777338    15.994914619570
         O           -0.395997385728     1.734911125948     0.267116222662    15.994914619570
         N            0.506046614272    -0.355160874052     0.005785222662    14.003074004430
         C            1.873141614272     0.051174125948     0.308352222662    12.000000000000
         C           -1.876274385728    -0.032454874052    -0.389693777338    12.000000000000
         C            2.529536614272     0.702399125948    -0.905843777338    12.000000000000
         C            2.648262614272    -1.158610874052     0.811351222662    12.000000000000
         C           -0.525640785728     0.549972725948    -0.020300877338    12.000000000000
         C           -2.827222385728     0.113936125948     0.788631222662    12.000000000000
         H            1.797507614272     0.798255125948     1.105333222662     1.007825032230
         H            0.308706614272    -1.295171874052    -0.319307777338     1.007825032230
         H           -2.238556385728     0.564339125948    -1.238771777338     1.007825032230
         H            2.590696614272    -0.012040874052    -1.733060777338     1.007825032230
         H            1.940934614272     1.565354125948    -1.224605777338     1.007825032230
         H            3.542244614272     1.040645125948    -0.663520777338     1.007825032230
         H            2.711058614272    -1.926710874052     0.032283222662     1.007825032230
         H            2.166454614272    -1.593586874052     1.691182222662     1.007825032230
         H            3.668549614272    -0.871802874052     1.080405222662     1.007825032230
         H           -2.467524385728    -0.492664874052     1.624044222662     1.007825032230
         H           -3.835796385728    -0.218339874052     0.519692222662     1.007825032230
         H           -2.871867385728     1.160002125948     1.097631222662     1.007825032230
         H           -2.595897385728    -1.767038874052    -0.950002777338     1.007825032230

  Basis Set: AUG-CC-PVTZ
    Blend: AUG-CC-PVTZ
  Basis Set: (AUG-CC-PVTZ AUX)
    Blend: AUG-CC-PVTZ-JKFIT
	 Reference Energy          =    -439.1377539366785072 [Eh]
	 Singles Energy            =      -0.0000000000000000 [Eh]
	 Same-Spin Energy          =      -0.4454191471399623 [Eh]
	 Opposite-Spin Energy      =      -1.4633230187067179 [Eh]
	 Correlation Energy        =      -1.9087421658466801 [Eh]
	 Total Energy              =    -441.0464961025251682 [Eh]

	 ================> DF-SCS-MP2 Energies <==================
	-----------------------------------------------------------
	 SCS Same-Spin Scale       =       0.3333333333333333 [-]
	 SCS Opposite-Spin Scale   =       1.2000000000000000 [-]
	 SCS Same-Spin Energy      =      -0.1484730490466541 [Eh]
	 SCS Opposite-Spin Energy  =      -1.7559876224480615 [Eh]
	 SCS Correlation Energy    =      -1.9044606714947157 [Eh]
	 SCS Total Energy          =    -441.0422146081731967 [Eh]
	-----------------------------------------------------------

  Dipole Moment: [D]
     X:    -0.8041      Y:    -2.7670      Z:    -0.4563     Total:     2.9174

*** Psi4 exiting successfully. Buy a developer a beer!
