                               Psi4 1.3.2 release

  ==> Input File <==

--------------------------------------------------------------------------
#psi4
#
memory 32 gb

molecule  {
0 1
  O       -2.8968130    -0.3474360    -0.2563530
  O       -0.5825960    -1.5131530     0.0834280
  N        0.6646380     0.3451110    -0.3514860
  C        2.1285535    -0.3958801    -0.0992884
  C       -1.7875910     0.5207530    -0.3412920
  C        2.3087340    -0.3110910     1.3526080
  C        3.0072020     0.3769410    -0.9846900
  C       -0.5092170    -0.3043550    -0.1811720
  C       -1.8991130     1.5929580     0.7362800
  H        1.8182130    -1.3395260    -0.4626630
  H        0.6508110     1.3528600    -0.4628320
  H       -1.7688680     0.9937940    -1.3356380
  H        2.4085440     0.7136460     1.7243230
  H        1.5276200    -0.8195050     1.9221530
  H        3.2560570    -0.8319740     1.5215790
  H        3.1304270     1.4235350    -0.6835410
  H        2.7315590     0.3479870    -2.0412990
  H        3.9738610    -0.1182480    -0.8633910
  H       -1.8420940     1.1254490     1.7220580
  H       -2.8670940     2.0889060     0.6442650
  H       -1.1140830     2.3514110     0.6543310
  H       -2.4990480    -1.2315890    -0.0938460
units angstrom
no_reorient  #important for SAPT in psi4, default
symmetry c1  #important for SAPT in psi4, default
}

set PROPERTIES_ORIGIN ["COM"]
properties('MP2/aug-cc-pvtz', properties = ['dipole'])
--------------------------------------------------------------------------

    Molecular point group: c1
  Charge       = 0
  Multiplicity = 1
  Basis Set: AUG-CC-PVTZ
    Blend: AUG-CC-PVTZ
  Basis Set: (AUG-CC-PVTZ AUX)
    Blend: AUG-CC-PVTZ-JKFIT

    Orbital Energies [Eh]
    ---------------------

    Doubly Occupied:

       1A    -20.541205     2A    -20.521512     3A    -15.576922
       4A    -11.346273     5A    -11.292855     6A    -11.289204
       7A    -11.238776     8A    -11.230134     9A    -11.224832
      10A     -1.385990    11A     -1.337183    12A     -1.211069
      13A     -1.090606    14A     -1.019798    15A     -0.968601
      16A     -0.880444    17A     -0.818522    18A     -0.774878
      19A     -0.729400    20A     -0.668673    21A     -0.647671
      22A     -0.640942    23A     -0.622114    24A     -0.596129
      25A     -0.581779    26A     -0.567025    27A     -0.560952
      28A     -0.537876    29A     -0.534049    30A     -0.526668
      31A     -0.523369    32A     -0.511641    33A     -0.482542
      34A     -0.438375    35A     -0.419390    36A     -0.394394

  @DF-RHF Final Energy:  -439.10781458783833

   => Energetics <=

    Nuclear Repulsion Energy =            482.9968773648780598
    One-Electron Energy =               -1556.7457942611556518
    Two-Electron Energy =                 634.6411023084391445
    Total Energy =                       -439.1078145878383339
  Basis Set: (AUG-CC-PVTZ AUX)
    Blend: AUG-CC-PVTZ-RI
    Molecular point group: c1

    Geometry (in Angstrom), charge = 0, multiplicity = 1:

       Center              X                  Y                   Z               Mass
    ------------   -----------------  -----------------  -----------------  -----------------
         O           -2.912957473271    -0.339264068757    -0.259134290322    15.994914619570
         O           -0.598740473271    -1.504981068757     0.080646709678    15.994914619570
         N            0.648493526729     0.353282931243    -0.354267290322    14.003074004430
         C            2.112409026729    -0.387708168757    -0.102069690322    12.000000000000
         C           -1.803735473271     0.528924931243    -0.344073290322    12.000000000000
         C            2.292589526729    -0.302919068757     1.349826709678    12.000000000000
         C            2.991057526729     0.385112931243    -0.987471290322    12.000000000000
         C           -0.525361473271    -0.296183068757    -0.183953290322    12.000000000000
         C           -1.915257473271     1.601129931243     0.733498709678    12.000000000000
         H            1.802068526729    -1.331354068757    -0.465444290322     1.007825032230
         H            0.634666526729     1.361031931243    -0.465613290322     1.007825032230
         H           -1.785012473271     1.001965931243    -1.338419290322     1.007825032230
         H            2.392399526729     0.721817931243     1.721541709678     1.007825032230
         H            1.511475526729    -0.811333068757     1.919371709678     1.007825032230
         H            3.239912526729    -0.823802068757     1.518797709678     1.007825032230
         H            3.114282526729     1.431706931243    -0.686322290322     1.007825032230
         H            2.715414526729     0.356158931243    -2.044080290322     1.007825032230
         H            3.957716526729    -0.110076068757    -0.866172290322     1.007825032230
         H           -1.858238473271     1.133620931243     1.719276709678     1.007825032230
         H           -2.883238473271     2.097077931243     0.641483709678     1.007825032230
         H           -1.130227473271     2.359582931243     0.651549709678     1.007825032230
         H           -2.515192473271    -1.223417068757    -0.096627290322     1.007825032230

  Basis Set: AUG-CC-PVTZ
    Blend: AUG-CC-PVTZ
  Basis Set: (AUG-CC-PVTZ AUX)
    Blend: AUG-CC-PVTZ-JKFIT
	 Reference Energy          =    -439.1078145878383339 [Eh]
	 Singles Energy            =      -0.0000000000000000 [Eh]
	 Same-Spin Energy          =      -0.4469770084046761 [Eh]
	 Opposite-Spin Energy      =      -1.4658357426581832 [Eh]
	 Correlation Energy        =      -1.9128127510628592 [Eh]
	 Total Energy              =    -441.0206273389011926 [Eh]

	 ================> DF-SCS-MP2 Energies <==================
	-----------------------------------------------------------
	 SCS Same-Spin Scale       =       0.3333333333333333 [-]
	 SCS Opposite-Spin Scale   =       1.2000000000000000 [-]
	 SCS Same-Spin Energy      =      -0.1489923361348920 [Eh]
	 SCS Opposite-Spin Energy  =      -1.7590028911898197 [Eh]
	 SCS Correlation Energy    =      -1.9079952273247116 [Eh]
	 SCS Total Energy          =    -441.0158098151630384 [Eh]
	-----------------------------------------------------------

  Dipole Moment: [D]
     X:     4.3551      Y:     2.8278      Z:    -0.1204     Total:     5.1940

*** Psi4 exiting successfully. Buy a developer a beer!
