                               Psi4 1.3.2 release

  ==> Input File <==

--------------------------------------------------------------------------
#psi4
#
memory 32 gb

molecule  {
0 1
  O       -2.8968130    -0.3474360    -0.2563530
  O       -0.5825960    -1.5131530     0.0834280
  N        0.6728948     0.3314953    -0.4262476
  C        1.9521820    -0.3066060    -0.1296730
  C       -1.7875910     0.5207530    -0.3412920
  C        2.3764269    -0.3490969     1.3340610
  C        3.0072020     0.3769410    -0.9846900
  C       -0.5092170    -0.3043550    -0.1811720
  C       -1.8991130     1.5929580     0.7362800
  H        1.8182130    -1.3395260    -0.4626630
  H        0.6508110     1.3528600    -0.4628320
  H       -1.7688680     0.9937940    -1.3356380
  H        2.4085440     0.7136460     1.7243230
  H        1.5276200    -0.8195050     1.9221530
  H        3.2560570    -0.8319740     1.5215790
  H        3.1304270     1.4235350    -0.6835410
  H        2.7315590     0.3479870    -2.0412990
  H        3.9738610    -0.1182480    -0.8633910
  H       -1.8420940     1.1254490     1.7220580
  H       -2.8670940     2.0889060     0.6442650
  H       -1.1140830     2.3514110     0.6543310
  H       -2.4990480    -1.2315890    -0.0938460
units angstrom
no_reorient  #important for SAPT in psi4, default
symmetry c1  #important for SAPT in psi4, default
}

set PROPERTIES_ORIGIN ["COM"]
properties('MP2/aug-cc-pvtz', properties = ['dipole'])
--------------------------------------------------------------------------

    Molecular point group: c1
  Charge       = 0
  Multiplicity = 1
  Basis Set: AUG-CC-PVTZ
    Blend: AUG-CC-PVTZ
  Basis Set: (AUG-CC-PVTZ AUX)
    Blend: AUG-CC-PVTZ-JKFIT

    Orbital Energies [Eh]
    ---------------------

    Doubly Occupied:

       1A    -20.549179     2A    -20.536564     3A    -15.598277
       4A    -11.361230     5A    -11.298827     6A    -11.276453
       7A    -11.232095     8A    -11.229013     9A    -11.224852
      10A     -1.398927    11A     -1.347176    12A     -1.246013
      13A     -1.071740    14A     -1.025489    15A     -0.948582
      16A     -0.896388    17A     -0.822441    18A     -0.790277
      19A     -0.737569    20A     -0.678956    21A     -0.648765
      22A     -0.636280    23A     -0.629278    24A     -0.595262
      25A     -0.584105    26A     -0.567994    27A     -0.560113
      28A     -0.548348    29A     -0.538856    30A     -0.533837
      31A     -0.514376    32A     -0.494981    33A     -0.481709
      34A     -0.446055    35A     -0.437412    36A     -0.404752

  @DF-RHF Final Energy:  -439.12786942750472

   => Energetics <=

    Nuclear Repulsion Energy =            484.3858601962930379
    One-Electron Energy =               -1559.2431204203928701
    Two-Electron Energy =                 635.7293907965949984
    Total Energy =                       -439.1278694275047201
  Basis Set: (AUG-CC-PVTZ AUX)
    Blend: AUG-CC-PVTZ-RI
    Molecular point group: c1

    Geometry (in Angstrom), charge = 0, multiplicity = 1:

       Center              X                  Y                   Z               Mass
    ------------   -----------------  -----------------  -----------------  -----------------
         O           -2.903891330510    -0.342502620555    -0.246669466750    15.994914619570
         O           -0.589674330510    -1.508219620555     0.093111533250    15.994914619570
         N            0.665816469490     0.336428679445    -0.416564066750    14.003074004430
         C            1.945103669490    -0.301672620555    -0.119989466750    12.000000000000
         C           -1.794669330510     0.525686379445    -0.331608466750    12.000000000000
         C            2.369348569490    -0.344163520555     1.343744533250    12.000000000000
         C            3.000123669490     0.381874379445    -0.975006466750    12.000000000000
         C           -0.516295330510    -0.299421620555    -0.171488466750    12.000000000000
         C           -1.906191330510     1.597891379445     0.745963533250    12.000000000000
         H            1.811134669490    -1.334592620555    -0.452979466750     1.007825032230
         H            0.643732669490     1.357793379445    -0.453148466750     1.007825032230
         H           -1.775946330510     0.998727379445    -1.325954466750     1.007825032230
         H            2.401465669490     0.718579379445     1.734006533250     1.007825032230
         H            1.520541669490    -0.814571620555     1.931836533250     1.007825032230
         H            3.248978669490    -0.827040620555     1.531262533250     1.007825032230
         H            3.123348669490     1.428468379445    -0.673857466750     1.007825032230
         H            2.724480669490     0.352920379445    -2.031615466750     1.007825032230
         H            3.966782669490    -0.113314620555    -0.853707466750     1.007825032230
         H           -1.849172330510     1.130382379445     1.731741533250     1.007825032230
         H           -2.874172330510     2.093839379445     0.653948533250     1.007825032230
         H           -1.121161330510     2.356344379445     0.664014533250     1.007825032230
         H           -2.506126330510    -1.226655620555    -0.084162466750     1.007825032230

  Basis Set: AUG-CC-PVTZ
    Blend: AUG-CC-PVTZ
  Basis Set: (AUG-CC-PVTZ AUX)
    Blend: AUG-CC-PVTZ-JKFIT
	 Reference Energy          =    -439.1278694275047201 [Eh]
	 Singles Energy            =      -0.0000000000000000 [Eh]
	 Same-Spin Energy          =      -0.4462000144783296 [Eh]
	 Opposite-Spin Energy      =      -1.4643637446658972 [Eh]
	 Correlation Energy        =      -1.9105637591442268 [Eh]
	 Total Energy              =    -441.0384331866489447 [Eh]

	 ================> DF-SCS-MP2 Energies <==================
	-----------------------------------------------------------
	 SCS Same-Spin Scale       =       0.3333333333333333 [-]
	 SCS Opposite-Spin Scale   =       1.2000000000000000 [-]
	 SCS Same-Spin Energy      =      -0.1487333381594432 [Eh]
	 SCS Opposite-Spin Energy  =      -1.7572364935990767 [Eh]
	 SCS Correlation Energy    =      -1.9059698317585199 [Eh]
	 SCS Total Energy          =    -441.0338392592632317 [Eh]
	-----------------------------------------------------------

  Dipole Moment: [D]
     X:     3.4153      Y:     2.8360      Z:    -0.0617     Total:     4.4397

*** Psi4 exiting successfully. Buy a developer a beer!
