                               Psi4 1.3.2 release

  ==> Input File <==

--------------------------------------------------------------------------
#psi4
#
memory 32 gb

molecule  {
0 1
  O       -2.8968130    -0.3474360    -0.2563530
  O       -0.5825960    -1.5131530     0.0834280
  N        0.6873367     0.3046422    -0.3428202
  C        1.9521820    -0.3066060    -0.1296730
  C       -1.8161262     0.4768481    -0.3308107
  C        2.3087340    -0.3110910     1.3526080
  C        3.0072020     0.3769410    -0.9846900
  C       -0.5092170    -0.3043550    -0.1811720
  C       -1.8991130     1.5929580     0.7362800
  H        1.8182130    -1.3395260    -0.4626630
  H        0.6508110     1.3528600    -0.4628320
  H       -1.7688680     0.9937940    -1.3356380
  H        2.4085440     0.7136460     1.7243230
  H        1.5276200    -0.8195050     1.9221530
  H        3.2560570    -0.8319740     1.5215790
  H        3.1304270     1.4235350    -0.6835410
  H        2.7315590     0.3479870    -2.0412990
  H        3.9738610    -0.1182480    -0.8633910
  H       -1.8420940     1.1254490     1.7220580
  H       -2.8670940     2.0889060     0.6442650
  H       -1.1140830     2.3514110     0.6543310
  H       -2.4990480    -1.2315890    -0.0938460
units angstrom
no_reorient  #important for SAPT in psi4, default
symmetry c1  #important for SAPT in psi4, default
}

set PROPERTIES_ORIGIN ["COM"]
properties('MP2/aug-cc-pvtz', properties = ['dipole'])
--------------------------------------------------------------------------

    Molecular point group: c1
  Charge       = 0
  Multiplicity = 1
  Basis Set: AUG-CC-PVTZ
    Blend: AUG-CC-PVTZ
  Basis Set: (AUG-CC-PVTZ AUX)
    Blend: AUG-CC-PVTZ-JKFIT

    Orbital Energies [Eh]
    ---------------------

    Doubly Occupied:

       1A    -20.555106     2A    -20.529837     3A    -15.597935
       4A    -11.357092     5A    -11.301541     6A    -11.273786
       7A    -11.231727     8A    -11.230643     9A    -11.220486
      10A     -1.405935    11A     -1.362914    12A     -1.249871
      13A     -1.069402    14A     -1.019278    15A     -0.949226
      16A     -0.895617    17A     -0.826808    18A     -0.785044
      19A     -0.747369    20A     -0.680202    21A     -0.650796
      22A     -0.631891    23A     -0.631131    24A     -0.594179
      25A     -0.589757    26A     -0.567949    27A     -0.554546
      28A     -0.548613    29A     -0.544133    30A     -0.530806
      31A     -0.514226    32A     -0.502656    33A     -0.489922
      34A     -0.438657    35A     -0.433357    36A     -0.396920

  @DF-RHF Final Energy:  -439.13115814389050

   => Energetics <=

    Nuclear Repulsion Energy =            486.0725107928894317
    One-Electron Energy =               -1562.5886253171318003
    Two-Electron Energy =                 637.3849563803518095
    Total Energy =                       -439.1311581438905023
  Basis Set: (AUG-CC-PVTZ AUX)
    Blend: AUG-CC-PVTZ-RI
    Molecular point group: c1

    Geometry (in Angstrom), charge = 0, multiplicity = 1:

       Center              X                  Y                   Z               Mass
    ------------   -----------------  -----------------  -----------------  -----------------
         O           -2.896625539263    -0.339094289099    -0.258238054050    15.994914619570
         O           -0.582408539263    -1.504811289099     0.081542945950    15.994914619570
         N            0.687524160737     0.312983910901    -0.344705254050    14.003074004430
         C            1.952369460737    -0.298264289099    -0.131558054050    12.000000000000
         C           -1.815938739263     0.485189810901    -0.332695754050    12.000000000000
         C            2.308921460737    -0.302749289099     1.350722945950    12.000000000000
         C            3.007389460737     0.385282710901    -0.986575054050    12.000000000000
         C           -0.509029539263    -0.296013289099    -0.183057054050    12.000000000000
         C           -1.898925539263     1.601299710901     0.734394945950    12.000000000000
         H            1.818400460737    -1.331184289099    -0.464548054050     1.007825032230
         H            0.650998460737     1.361201710901    -0.464717054050     1.007825032230
         H           -1.768680539263     1.002135710901    -1.337523054050     1.007825032230
         H            2.408731460737     0.721987710901     1.722437945950     1.007825032230
         H            1.527807460737    -0.811163289099     1.920267945950     1.007825032230
         H            3.256244460737    -0.823632289099     1.519693945950     1.007825032230
         H            3.130614460737     1.431876710901    -0.685426054050     1.007825032230
         H            2.731746460737     0.356328710901    -2.043184054050     1.007825032230
         H            3.974048460737    -0.109906289099    -0.865276054050     1.007825032230
         H           -1.841906539263     1.133790710901     1.720172945950     1.007825032230
         H           -2.866906539263     2.097247710901     0.642379945950     1.007825032230
         H           -1.113895539263     2.359752710901     0.652445945950     1.007825032230
         H           -2.498860539263    -1.223247289099    -0.095731054050     1.007825032230

  Basis Set: AUG-CC-PVTZ
    Blend: AUG-CC-PVTZ
  Basis Set: (AUG-CC-PVTZ AUX)
    Blend: AUG-CC-PVTZ-JKFIT
	 Reference Energy          =    -439.1311581438905023 [Eh]
	 Singles Energy            =      -0.0000000000000000 [Eh]
	 Same-Spin Energy          =      -0.4466126719385589 [Eh]
	 Opposite-Spin Energy      =      -1.4637205311583303 [Eh]
	 Correlation Energy        =      -1.9103332030968891 [Eh]
	 Total Energy              =    -441.0414913469874136 [Eh]

	 ================> DF-SCS-MP2 Energies <==================
	-----------------------------------------------------------
	 SCS Same-Spin Scale       =       0.3333333333333333 [-]
	 SCS Opposite-Spin Scale   =       1.2000000000000000 [-]
	 SCS Same-Spin Energy      =      -0.1488708906461863 [Eh]
	 SCS Opposite-Spin Energy  =      -1.7564646373899964 [Eh]
	 SCS Correlation Energy    =      -1.9053355280361828 [Eh]
	 SCS Total Energy          =    -441.0364936719266780 [Eh]
	-----------------------------------------------------------

  Dipole Moment: [D]
     X:     3.3566      Y:     2.8377      Z:    -0.2459     Total:     4.4022

*** Psi4 exiting successfully. Buy a developer a beer!
