                               Psi4 1.3.2 release

  ==> Input File <==

--------------------------------------------------------------------------
#psi4
#
memory 32 gb

molecule  {
0 1
  O       -2.8968130    -0.3474360    -0.2563530
  O       -0.5825960    -1.5131530     0.0834280
  N        0.6599499     0.3341743    -0.3560410
  C        1.9521820    -0.3066060    -0.1296730
  C       -1.7875910     0.5207530    -0.3412920
  C        2.3087340    -0.3110910     1.3526080
  C        3.0072020     0.3769410    -0.9846900
  C       -0.5092170    -0.3043550    -0.1811720
  C       -1.8991130     1.5929580     0.7362800
  H        1.8091608    -1.3375670    -0.4649610
  H        0.6508110     1.3528600    -0.4628320
  H       -1.7688680     0.9937940    -1.3356380
  H        2.4085440     0.7136460     1.7243230
  H        1.5276200    -0.8195050     1.9221530
  H        3.2560570    -0.8319740     1.5215790
  H        3.1304270     1.4235350    -0.6835410
  H        2.7315590     0.3479870    -2.0412990
  H        3.9738610    -0.1182480    -0.8633910
  H       -1.8420940     1.1254490     1.7220580
  H       -2.8670940     2.0889060     0.6442650
  H       -1.1140830     2.3514110     0.6543310
  H       -2.4990480    -1.2315890    -0.0938460
units angstrom
no_reorient  #important for SAPT in psi4, default
symmetry c1  #important for SAPT in psi4, default
}

set PROPERTIES_ORIGIN ["COM"]
properties('MP2/aug-cc-pvtz', properties = ['dipole'])
--------------------------------------------------------------------------

    Molecular point group: c1
  Charge       = 0
  Multiplicity = 1
  Basis Set: AUG-CC-PVTZ
    Blend: AUG-CC-PVTZ
  Basis Set: (AUG-CC-PVTZ AUX)
    Blend: AUG-CC-PVTZ-JKFIT

    Orbital Energies [Eh]
    ---------------------

    Doubly Occupied:

       1A    -20.547541     2A    -20.530778     3A    -15.596703
       4A    -11.356814     5A    -11.297144     6A    -11.277543
       7A    -11.232837     8A    -11.230664     9A    -11.222769
      10A     -1.397098    11A     -1.345614    12A     -1.248477
      13A     -1.072947    14A     -1.023909    15A     -0.950229
      16A     -0.895204    17A     -0.822893    18A     -0.794116
      19A     -0.736610    20A     -0.678311    21A     -0.648792
      22A     -0.631431    23A     -0.629564    24A     -0.597086
      25A     -0.581530    26A     -0.567476    27A     -0.555415
      28A     -0.548746    29A     -0.539450    30A     -0.530362
      31A     -0.511396    32A     -0.502877    33A     -0.492009
      34A     -0.444679    35A     -0.433883    36A     -0.401571

  @DF-RHF Final Energy:  -439.13756402758258

   => Energetics <=

    Nuclear Repulsion Energy =            485.4456321986406806
    One-Electron Energy =               -1561.4174560029148324
    Two-Electron Energy =                 636.8342597766916242
    Total Energy =                       -439.1375640275825845
  Basis Set: (AUG-CC-PVTZ AUX)
    Blend: AUG-CC-PVTZ-RI
    Molecular point group: c1

    Geometry (in Angstrom), charge = 0, multiplicity = 1:

       Center              X                  Y                   Z               Mass
    ------------   -----------------  -----------------  -----------------  -----------------
         O           -2.896242609608    -0.346282785841    -0.255848761476    15.994914619570
         O           -0.582025609608    -1.511999785841     0.083932238524    15.994914619570
         N            0.660520290392     0.335327514159    -0.355536761476    14.003074004430
         C            1.952752390392    -0.305452785841    -0.129168761476    12.000000000000
         C           -1.787020609608     0.521906214159    -0.340787761476    12.000000000000
         C            2.309304390392    -0.309937785841     1.353112238524    12.000000000000
         C            3.007772390392     0.378094214159    -0.984185761476    12.000000000000
         C           -0.508646609608    -0.303201785841    -0.180667761476    12.000000000000
         C           -1.898542609608     1.594111214159     0.736784238524    12.000000000000
         H            1.809731190392    -1.336413785841    -0.464456761476     1.007825032230
         H            0.651381390392     1.354013214159    -0.462327761476     1.007825032230
         H           -1.768297609608     0.994947214159    -1.335133761476     1.007825032230
         H            2.409114390392     0.714799214159     1.724827238524     1.007825032230
         H            1.528190390392    -0.818351785841     1.922657238524     1.007825032230
         H            3.256627390392    -0.830820785841     1.522083238524     1.007825032230
         H            3.130997390392     1.424688214159    -0.683036761476     1.007825032230
         H            2.732129390392     0.349140214159    -2.040794761476     1.007825032230
         H            3.974431390392    -0.117094785841    -0.862886761476     1.007825032230
         H           -1.841523609608     1.126602214159     1.722562238524     1.007825032230
         H           -2.866523609608     2.090059214159     0.644769238524     1.007825032230
         H           -1.113512609608     2.352564214159     0.654835238524     1.007825032230
         H           -2.498477609608    -1.230435785841    -0.093341761476     1.007825032230

  Basis Set: AUG-CC-PVTZ
    Blend: AUG-CC-PVTZ
  Basis Set: (AUG-CC-PVTZ AUX)
    Blend: AUG-CC-PVTZ-JKFIT
	 Reference Energy          =    -439.1375640275825845 [Eh]
	 Singles Energy            =      -0.0000000000000000 [Eh]
	 Same-Spin Energy          =      -0.4460793698560565 [Eh]
	 Opposite-Spin Energy      =      -1.4636706112461453 [Eh]
	 Correlation Energy        =      -1.9097499811022018 [Eh]
	 Total Energy              =    -441.0473140086847934 [Eh]

	 ================> DF-SCS-MP2 Energies <==================
	-----------------------------------------------------------
	 SCS Same-Spin Scale       =       0.3333333333333333 [-]
	 SCS Opposite-Spin Scale   =       1.2000000000000000 [-]
	 SCS Same-Spin Energy      =      -0.1486931232853521 [Eh]
	 SCS Opposite-Spin Energy  =      -1.7564047334953743 [Eh]
	 SCS Correlation Energy    =      -1.9050978567807264 [Eh]
	 SCS Total Energy          =    -441.0426618843633264 [Eh]
	-----------------------------------------------------------

  Dipole Moment: [D]
     X:     3.6170      Y:     2.9453      Z:    -0.2198     Total:     4.6697

*** Psi4 exiting successfully. Buy a developer a beer!
