                               Psi4 1.3.2 release

  ==> Input File <==

--------------------------------------------------------------------------
#psi4
#
memory 32 gb

molecule  {
0 1
  O       -2.8968130    -0.3474360    -0.2563530
  O       -0.5825960    -1.5131530     0.0834280
  N        0.6646380     0.3451110    -0.3514860
  C        1.9521820    -0.3066060    -0.1296730
  C       -1.7875910     0.5207530    -0.3412920
  C        2.3087340    -0.3110910     1.3526080
  C        3.0072020     0.3769410    -0.9846900
  C       -0.5092170    -0.3043550    -0.1811720
  C       -1.8988788     1.5739498     0.7548894
  H        1.8182130    -1.3395260    -0.4626630
  H        0.6508110     1.3528600    -0.4628320
  H       -1.7674941     0.9764003    -1.3437011
  H        2.4085440     0.7136460     1.7243230
  H        1.5276200    -0.8195050     1.9221530
  H        3.2560570    -0.8319740     1.5215790
  H        3.1304270     1.4235350    -0.6835410
  H        2.7315590     0.3479870    -2.0412990
  H        3.9738610    -0.1182480    -0.8633910
  H       -1.8420940     1.1254490     1.7220580
  H       -2.8670940     2.0889060     0.6442650
  H       -1.1140830     2.3514110     0.6543310
  H       -2.4990480    -1.2315890    -0.0938460
units angstrom
no_reorient  #important for SAPT in psi4, default
symmetry c1  #important for SAPT in psi4, default
}

set PROPERTIES_ORIGIN ["COM"]
properties('MP2/aug-cc-pvtz', properties = ['dipole'])
--------------------------------------------------------------------------

    Molecular point group: c1
  Charge       = 0
  Multiplicity = 1
  Basis Set: AUG-CC-PVTZ
    Blend: AUG-CC-PVTZ
  Basis Set: (AUG-CC-PVTZ AUX)
    Blend: AUG-CC-PVTZ-JKFIT

    Orbital Energies [Eh]
    ---------------------

    Doubly Occupied:

       1A    -20.547159     2A    -20.532219     3A    -15.595525
       4A    -11.357792     5A    -11.297314     6A    -11.277143
       7A    -11.232262     8A    -11.231160     9A    -11.222213
      10A     -1.397057    11A     -1.345598    12A     -1.247809
      13A     -1.072143    14A     -1.023569    15A     -0.949807
      16A     -0.895309    17A     -0.822449    18A     -0.794958
      19A     -0.736286    20A     -0.678744    21A     -0.649445
      22A     -0.631981    23A     -0.628829    24A     -0.597201
      25A     -0.582418    26A     -0.566918    27A     -0.555040
      28A     -0.546028    29A     -0.540414    30A     -0.530685
      31A     -0.512119    32A     -0.502669    33A     -0.491296
      34A     -0.445708    35A     -0.433557    36A     -0.401385

  @DF-RHF Final Energy:  -439.13699226719643

   => Energetics <=

    Nuclear Repulsion Energy =            485.4136525230916277
    One-Electron Energy =               -1561.3568741109020266
    Two-Electron Energy =                 636.8062293206140794
    Total Energy =                       -439.1369922671964332
  Basis Set: (AUG-CC-PVTZ AUX)
    Blend: AUG-CC-PVTZ-RI
    Molecular point group: c1

    Geometry (in Angstrom), charge = 0, multiplicity = 1:

       Center              X                  Y                   Z               Mass
    ------------   -----------------  -----------------  -----------------  -----------------
         O           -2.896844967589    -0.345562274886    -0.257994437411    15.994914619570
         O           -0.582627967589    -1.511279274886     0.081786562589    15.994914619570
         N            0.664606032411     0.346984725114    -0.353127437411    14.003074004430
         C            1.952150032411    -0.304732274886    -0.131314437411    12.000000000000
         C           -1.787622967589     0.522626725114    -0.342933437411    12.000000000000
         C            2.308702032411    -0.309217274886     1.350966562589    12.000000000000
         C            3.007170032411     0.378814725114    -0.986331437411    12.000000000000
         C           -0.509248967589    -0.302481274886    -0.182813437411    12.000000000000
         C           -1.898910767589     1.575823525114     0.753247962589    12.000000000000
         H            1.818181032411    -1.337652274886    -0.464304437411     1.007825032230
         H            0.650779032411     1.354733725114    -0.464473437411     1.007825032230
         H           -1.767526067589     0.978274025114    -1.345342537411     1.007825032230
         H            2.408512032411     0.715519725114     1.722681562589     1.007825032230
         H            1.527588032411    -0.817631274886     1.920511562589     1.007825032230
         H            3.256025032411    -0.830100274886     1.519937562589     1.007825032230
         H            3.130395032411     1.425408725114    -0.685182437411     1.007825032230
         H            2.731527032411     0.349860725114    -2.042940437411     1.007825032230
         H            3.973829032411    -0.116374274886    -0.865032437411     1.007825032230
         H           -1.842125967589     1.127322725114     1.720416562589     1.007825032230
         H           -2.867125967589     2.090779725114     0.642623562589     1.007825032230
         H           -1.114114967589     2.353284725114     0.652689562589     1.007825032230
         H           -2.499079967589    -1.229715274886    -0.095487437411     1.007825032230

  Basis Set: AUG-CC-PVTZ
    Blend: AUG-CC-PVTZ
  Basis Set: (AUG-CC-PVTZ AUX)
    Blend: AUG-CC-PVTZ-JKFIT
	 Reference Energy          =    -439.1369922671964332 [Eh]
	 Singles Energy            =      -0.0000000000000000 [Eh]
	 Same-Spin Energy          =      -0.4460456705218450 [Eh]
	 Opposite-Spin Energy      =      -1.4636834170893507 [Eh]
	 Correlation Energy        =      -1.9097290876111956 [Eh]
	 Total Energy              =    -441.0467213548076302 [Eh]

	 ================> DF-SCS-MP2 Energies <==================
	-----------------------------------------------------------
	 SCS Same-Spin Scale       =       0.3333333333333333 [-]
	 SCS Opposite-Spin Scale   =       1.2000000000000000 [-]
	 SCS Same-Spin Energy      =      -0.1486818901739483 [Eh]
	 SCS Opposite-Spin Energy  =      -1.7564201005072209 [Eh]
	 SCS Correlation Energy    =      -1.9051019906811693 [Eh]
	 SCS Total Energy          =    -441.0420942578775794 [Eh]
	-----------------------------------------------------------

  Dipole Moment: [D]
     X:     3.5724      Y:     2.9110      Z:    -0.2195     Total:     4.6134

*** Psi4 exiting successfully. Buy a developer a beer!
