                               Psi4 1.3.2 release

  ==> Input File <==

--------------------------------------------------------------------------
#psi4
#
memory 32 gb

molecule  {
0 1
  O       -2.8968130    -0.3474360    -0.2563530
  O       -0.5825960    -1.5131530     0.0834280
  N        0.6599103     0.3569404    -0.2761164
  C        1.9521820    -0.3066060    -0.1296730
  C       -1.7875910     0.5207530    -0.3412920
  C        2.2400639    -0.2730728     1.3670922
  C        3.0072020     0.3769410    -0.9846900
  C       -0.5092170    -0.3043550    -0.1811720
  C       -1.8991130     1.5929580     0.7362800
  H        1.8182130    -1.3395260    -0.4626630
  H        0.6508110     1.3528600    -0.4628320
  H       -1.7688680     0.9937940    -1.3356380
  H        2.4085440     0.7136460     1.7243230
  H        1.5276200    -0.8195050     1.9221530
  H        3.2560570    -0.8319740     1.5215790
  H        3.1304270     1.4235350    -0.6835410
  H        2.7315590     0.3479870    -2.0412990
  H        3.9738610    -0.1182480    -0.8633910
  H       -1.8420940     1.1254490     1.7220580
  H       -2.8670940     2.0889060     0.6442650
  H       -1.1140830     2.3514110     0.6543310
  H       -2.4990480    -1.2315890    -0.0938460
units angstrom
no_reorient  #important for SAPT in psi4, default
symmetry c1  #important for SAPT in psi4, default
}

set PROPERTIES_ORIGIN ["COM"]
properties('MP2/aug-cc-pvtz', properties = ['dipole'])
--------------------------------------------------------------------------

    Molecular point group: c1
  Charge       = 0
  Multiplicity = 1
  Basis Set: AUG-CC-PVTZ
    Blend: AUG-CC-PVTZ
  Basis Set: (AUG-CC-PVTZ AUX)
    Blend: AUG-CC-PVTZ-JKFIT

    Orbital Energies [Eh]
    ---------------------

    Doubly Occupied:

       1A    -20.547182     2A    -20.530540     3A    -15.594413
       4A    -11.356690     5A    -11.296718     6A    -11.278430
       7A    -11.235453     8A    -11.229908     9A    -11.221881
      10A     -1.396591    11A     -1.345211    12A     -1.249422
      13A     -1.072759    14A     -1.022708    15A     -0.952345
      16A     -0.893773    17A     -0.822907    18A     -0.796917
      19A     -0.736046    20A     -0.679381    21A     -0.649910
      22A     -0.632806    23A     -0.630860    24A     -0.600217
      25A     -0.582972    26A     -0.566945    27A     -0.561167
      28A     -0.544550    29A     -0.536627    30A     -0.519067
      31A     -0.510518    32A     -0.506913    33A     -0.495662
      34A     -0.444485    35A     -0.432785    36A     -0.397624

  @DF-RHF Final Energy:  -439.12963730684902

   => Energetics <=

    Nuclear Repulsion Energy =            486.1521702094653961
    One-Electron Energy =               -1562.8188434658461574
    Two-Electron Energy =                 637.5370359495318553
    Total Energy =                       -439.1296373068489629
  Basis Set: (AUG-CC-PVTZ AUX)
    Blend: AUG-CC-PVTZ-RI
    Molecular point group: c1

    Geometry (in Angstrom), charge = 0, multiplicity = 1:

       Center              X                  Y                   Z               Mass
    ------------   -----------------  -----------------  -----------------  -----------------
         O           -2.890022120666    -0.352179590781    -0.265729536026    15.994914619570
         O           -0.575805120666    -1.517896590781     0.074051463974    15.994914619570
         N            0.666701179334     0.352196809219    -0.285492936026    14.003074004430
         C            1.958972879334    -0.311349590781    -0.139049536026    12.000000000000
         C           -1.780800120666     0.516009409219    -0.350668536026    12.000000000000
         C            2.246854779334    -0.277816390781     1.357715663974    12.000000000000
         C            3.013992879334     0.372197409219    -0.994066536026    12.000000000000
         C           -0.502426120666    -0.309098590781    -0.190548536026    12.000000000000
         C           -1.892322120666     1.588214409219     0.726903463974    12.000000000000
         H            1.825003879334    -1.344269590781    -0.472039536026     1.007825032230
         H            0.657601879334     1.348116409219    -0.472208536026     1.007825032230
         H           -1.762077120666     0.989050409219    -1.345014536026     1.007825032230
         H            2.415334879334     0.708902409219     1.714946463974     1.007825032230
         H            1.534410879334    -0.824248590781     1.912776463974     1.007825032230
         H            3.262847879334    -0.836717590781     1.512202463974     1.007825032230
         H            3.137217879334     1.418791409219    -0.692917536026     1.007825032230
         H            2.738349879334     0.343243409219    -2.050675536026     1.007825032230
         H            3.980651879334    -0.122991590781    -0.872767536026     1.007825032230
         H           -1.835303120666     1.120705409219     1.712681463974     1.007825032230
         H           -2.860303120666     2.084162409219     0.634888463974     1.007825032230
         H           -1.107292120666     2.346667409219     0.644954463974     1.007825032230
         H           -2.492257120666    -1.236332590781    -0.103222536026     1.007825032230

  Basis Set: AUG-CC-PVTZ
    Blend: AUG-CC-PVTZ
  Basis Set: (AUG-CC-PVTZ AUX)
    Blend: AUG-CC-PVTZ-JKFIT
	 Reference Energy          =    -439.1296373068490198 [Eh]
	 Singles Energy            =      -0.0000000000000000 [Eh]
	 Same-Spin Energy          =      -0.4463134448396743 [Eh]
	 Opposite-Spin Energy      =      -1.4642222980615998 [Eh]
	 Correlation Energy        =      -1.9105357429012741 [Eh]
	 Total Energy              =    -441.0401730497503081 [Eh]

	 ================> DF-SCS-MP2 Energies <==================
	-----------------------------------------------------------
	 SCS Same-Spin Scale       =       0.3333333333333333 [-]
	 SCS Opposite-Spin Scale   =       1.2000000000000000 [-]
	 SCS Same-Spin Energy      =      -0.1487711482798914 [Eh]
	 SCS Opposite-Spin Energy  =      -1.7570667576739196 [Eh]
	 SCS Correlation Energy    =      -1.9058379059538111 [Eh]
	 SCS Total Energy          =    -441.0354752128028508 [Eh]
	-----------------------------------------------------------

  Dipole Moment: [D]
     X:     3.6432      Y:     2.9816      Z:    -0.4075     Total:     4.7254

*** Psi4 exiting successfully. Buy a developer a beer!
