                               Psi4 1.3.2 release

  ==> Input File <==

--------------------------------------------------------------------------
#psi4
#
memory 32 gb

molecule  {
0 1
  O       -2.9265361    -0.3086983    -0.2628392
  O       -0.5825960    -1.5131530     0.0834280
  N        0.6646380     0.3451110    -0.3514860
  C        1.9521820    -0.3066060    -0.1296730
  C       -1.7875910     0.5207530    -0.3412920
  C        2.3087340    -0.3110910     1.3526080
  C        3.0072020     0.3769410    -0.9846900
  C       -0.4807179    -0.2595136    -0.1865391
  C       -1.8991130     1.5929580     0.7362800
  H        1.8182130    -1.3395260    -0.4626630
  H        0.6508110     1.3528600    -0.4628320
  H       -1.7688680     0.9937940    -1.3356380
  H        2.4085440     0.7136460     1.7243230
  H        1.5276200    -0.8195050     1.9221530
  H        3.2560570    -0.8319740     1.5215790
  H        3.1304270     1.4235350    -0.6835410
  H        2.7315590     0.3479870    -2.0412990
  H        3.9738610    -0.1182480    -0.8633910
  H       -1.8420940     1.1254490     1.7220580
  H       -2.8670940     2.0889060     0.6442650
  H       -1.1140830     2.3514110     0.6543310
  H       -2.4990480    -1.2315890    -0.0938460
units angstrom
no_reorient  #important for SAPT in psi4, default
symmetry c1  #important for SAPT in psi4, default
}

set PROPERTIES_ORIGIN ["COM"]
properties('MP2/aug-cc-pvtz', properties = ['dipole'])
--------------------------------------------------------------------------

    Molecular point group: c1
  Charge       = 0
  Multiplicity = 1
  Basis Set: AUG-CC-PVTZ
    Blend: AUG-CC-PVTZ
  Basis Set: (AUG-CC-PVTZ AUX)
    Blend: AUG-CC-PVTZ-JKFIT

    Orbital Energies [Eh]
    ---------------------

    Doubly Occupied:

       1A    -20.550565     2A    -20.522212     3A    -15.606515
       4A    -11.357984     5A    -11.296723     6A    -11.282684
       7A    -11.236305     8A    -11.229348     9A    -11.225711
      10A     -1.377458    11A     -1.334554    12A     -1.256054
      13A     -1.079604    14A     -1.023927    15A     -0.953682
      16A     -0.896347    17A     -0.827106    18A     -0.805676
      19A     -0.729782    20A     -0.677809    21A     -0.648399
      22A     -0.633442    23A     -0.623279    24A     -0.595497
      25A     -0.579079    26A     -0.563097    27A     -0.558795
      28A     -0.551550    29A     -0.539268    30A     -0.529216
      31A     -0.504728    32A     -0.502016    33A     -0.492279
      34A     -0.440682    35A     -0.429198    36A     -0.404309

  @DF-RHF Final Energy:  -439.12479073297476

   => Energetics <=

    Nuclear Repulsion Energy =            484.7431947707906374
    One-Electron Energy =               -1560.0062129781538260
    Two-Electron Energy =                 636.1382274743882590
    Total Energy =                       -439.1247907329748159
  Basis Set: (AUG-CC-PVTZ AUX)
    Blend: AUG-CC-PVTZ-RI
    Molecular point group: c1

    Geometry (in Angstrom), charge = 0, multiplicity = 1:

       Center              X                  Y                   Z               Mass
    ------------   -----------------  -----------------  -----------------  -----------------
         O           -2.925518258768    -0.317529294253    -0.261556505240    15.994914619570
         O           -0.581578158768    -1.521983994253     0.084710694760    15.994914619570
         N            0.665655841232     0.336280005747    -0.350203305240    14.003074004430
         C            1.953199841232    -0.315436994253    -0.128390305240    12.000000000000
         C           -1.786573158768     0.511922005747    -0.340009305240    12.000000000000
         C            2.309751841232    -0.319921994253     1.353890694760    12.000000000000
         C            3.008219841232     0.368110005747    -0.983407305240    12.000000000000
         C           -0.479700058768    -0.268344594253    -0.185256405240    12.000000000000
         C           -1.898095158768     1.584127005747     0.737562694760    12.000000000000
         H            1.819230841232    -1.348356994253    -0.461380305240     1.007825032230
         H            0.651828841232     1.344029005747    -0.461549305240     1.007825032230
         H           -1.767850158768     0.984963005747    -1.334355305240     1.007825032230
         H            2.409561841232     0.704815005747     1.725605694760     1.007825032230
         H            1.528637841232    -0.828335994253     1.923435694760     1.007825032230
         H            3.257074841232    -0.840804994253     1.522861694760     1.007825032230
         H            3.131444841232     1.414704005747    -0.682258305240     1.007825032230
         H            2.732576841232     0.339156005747    -2.040016305240     1.007825032230
         H            3.974878841232    -0.127078994253    -0.862108305240     1.007825032230
         H           -1.841076158768     1.116618005747     1.723340694760     1.007825032230
         H           -2.866076158768     2.080075005747     0.645547694760     1.007825032230
         H           -1.113065158768     2.342580005747     0.655613694760     1.007825032230
         H           -2.498030158768    -1.240419994253    -0.092563305240     1.007825032230

  Basis Set: AUG-CC-PVTZ
    Blend: AUG-CC-PVTZ
  Basis Set: (AUG-CC-PVTZ AUX)
    Blend: AUG-CC-PVTZ-JKFIT
	 Reference Energy          =    -439.1247907329747591 [Eh]
	 Singles Energy            =      -0.0000000000000000 [Eh]
	 Same-Spin Energy          =      -0.4476809931600774 [Eh]
	 Opposite-Spin Energy      =      -1.4669493019786615 [Eh]
	 Correlation Energy        =      -1.9146302951387388 [Eh]
	 Total Energy              =    -441.0394210281135088 [Eh]

	 ================> DF-SCS-MP2 Energies <==================
	-----------------------------------------------------------
	 SCS Same-Spin Scale       =       0.3333333333333333 [-]
	 SCS Opposite-Spin Scale   =       1.2000000000000000 [-]
	 SCS Same-Spin Energy      =      -0.1492269977200258 [Eh]
	 SCS Opposite-Spin Energy  =      -1.7603391623743938 [Eh]
	 SCS Correlation Energy    =      -1.9095661600944196 [Eh]
	 SCS Total Energy          =    -441.0343568930691731 [Eh]
	-----------------------------------------------------------

  Dipole Moment: [D]
     X:     4.0031      Y:     3.1150      Z:    -0.2697     Total:     5.0795

*** Psi4 exiting successfully. Buy a developer a beer!
