                               Psi4 1.3.2 release

  ==> Input File <==

--------------------------------------------------------------------------
#psi4
#
memory 32 gb

molecule  {
0 1
  O       -2.8968130    -0.3474360    -0.2563530
  O       -0.5825960    -1.5131530     0.0834280
  N        0.6610931     0.3531978    -0.3012945
  C        1.9521820    -0.3066060    -0.1296730
  C       -1.7875910     0.5207530    -0.3412920
  C        2.2630509    -0.2857405     1.3627182
  C        3.0072020     0.3769410    -0.9846900
  C       -0.5092170    -0.3043550    -0.1811720
  C       -1.8991130     1.5929580     0.7362800
  H        1.8182130    -1.3395260    -0.4626630
  H        0.6508110     1.3528600    -0.4628320
  H       -1.7688680     0.9937940    -1.3356380
  H        2.4085440     0.7136460     1.7243230
  H        1.5276200    -0.8195050     1.9221530
  H        3.2560570    -0.8319740     1.5215790
  H        3.1304270     1.4235350    -0.6835410
  H        2.7315590     0.3479870    -2.0412990
  H        3.9738610    -0.1182480    -0.8633910
  H       -1.8420940     1.1254490     1.7220580
  H       -2.8670940     2.0889060     0.6442650
  H       -1.1140830     2.3514110     0.6543310
  H       -2.4990480    -1.2315890    -0.0938460
units angstrom
no_reorient  #important for SAPT in psi4, default
symmetry c1  #important for SAPT in psi4, default
}

set PROPERTIES_ORIGIN ["COM"]
properties('MP2/aug-cc-pvtz', properties = ['dipole'])
--------------------------------------------------------------------------

    Molecular point group: c1
  Charge       = 0
  Multiplicity = 1
  Basis Set: AUG-CC-PVTZ
    Blend: AUG-CC-PVTZ
  Basis Set: (AUG-CC-PVTZ AUX)
    Blend: AUG-CC-PVTZ-JKFIT

    Orbital Energies [Eh]
    ---------------------

    Doubly Occupied:

       1A    -20.547299     2A    -20.530926     3A    -15.594710
       4A    -11.357052     5A    -11.296821     6A    -11.277995
       7A    -11.234440     8A    -11.230134     9A    -11.221739
      10A     -1.396669    11A     -1.345296    12A     -1.248983
      13A     -1.072597    14A     -1.023037    15A     -0.951413
      16A     -0.894152    17A     -0.822676    18A     -0.796588
      19A     -0.736101    20A     -0.679141    21A     -0.649779
      22A     -0.632399    23A     -0.629908    24A     -0.598945
      25A     -0.582442    26A     -0.567106    27A     -0.559195
      28A     -0.544649    29A     -0.537377    30A     -0.522733
      31A     -0.509925    32A     -0.508039    33A     -0.495066
      34A     -0.444545    35A     -0.433143    36A     -0.399006

  @DF-RHF Final Energy:  -439.13420640472066

   => Energetics <=

    Nuclear Repulsion Energy =            485.8786394565497631
    One-Electron Energy =               -1562.2816420358999494
    Two-Electron Energy =                 637.2687961746295287
    Total Energy =                       -439.1342064047206577
  Basis Set: (AUG-CC-PVTZ AUX)
    Blend: AUG-CC-PVTZ-RI
    Molecular point group: c1

    Geometry (in Angstrom), charge = 0, multiplicity = 1:

       Center              X                  Y                   Z               Mass
    ------------   -----------------  -----------------  -----------------  -----------------
         O           -2.892252622700    -0.350620256833    -0.262639716086    15.994914619570
         O           -0.578035622700    -1.516337256833     0.077141283914    15.994914619570
         N            0.665653477300     0.350013543167    -0.307581216086    14.003074004430
         C            1.956742377300    -0.309790256833    -0.135959716086    12.000000000000
         C           -1.783030622700     0.517568743167    -0.347578716086    12.000000000000
         C            2.267611277300    -0.288924756833     1.356431483914    12.000000000000
         C            3.011762377300     0.373756743167    -0.990976716086    12.000000000000
         C           -0.504656622700    -0.307539256833    -0.187458716086    12.000000000000
         C           -1.894552622700     1.589773743167     0.729993283914    12.000000000000
         H            1.822773377300    -1.342710256833    -0.468949716086     1.007825032230
         H            0.655371377300     1.349675743167    -0.469118716086     1.007825032230
         H           -1.764307622700     0.990609743167    -1.341924716086     1.007825032230
         H            2.413104377300     0.710461743167     1.718036283914     1.007825032230
         H            1.532180377300    -0.822689256833     1.915866283914     1.007825032230
         H            3.260617377300    -0.835158256833     1.515292283914     1.007825032230
         H            3.134987377300     1.420350743167    -0.689827716086     1.007825032230
         H            2.736119377300     0.344802743167    -2.047585716086     1.007825032230
         H            3.978421377300    -0.121432256833    -0.869677716086     1.007825032230
         H           -1.837533622700     1.122264743167     1.715771283914     1.007825032230
         H           -2.862533622700     2.085721743167     0.637978283914     1.007825032230
         H           -1.109522622700     2.348226743167     0.648044283914     1.007825032230
         H           -2.494487622700    -1.234773256833    -0.100132716086     1.007825032230

  Basis Set: AUG-CC-PVTZ
    Blend: AUG-CC-PVTZ
  Basis Set: (AUG-CC-PVTZ AUX)
    Blend: AUG-CC-PVTZ-JKFIT
	 Reference Energy          =    -439.1342064047206577 [Eh]
	 Singles Energy            =      -0.0000000000000000 [Eh]
	 Same-Spin Energy          =      -0.4461656976720891 [Eh]
	 Opposite-Spin Energy      =      -1.4638875165322738 [Eh]
	 Correlation Energy        =      -1.9100532142043629 [Eh]
	 Total Energy              =    -441.0442596189250253 [Eh]

	 ================> DF-SCS-MP2 Energies <==================
	-----------------------------------------------------------
	 SCS Same-Spin Scale       =       0.3333333333333333 [-]
	 SCS Opposite-Spin Scale   =       1.2000000000000000 [-]
	 SCS Same-Spin Energy      =      -0.1487218992240297 [Eh]
	 SCS Opposite-Spin Energy  =      -1.7566650198387286 [Eh]
	 SCS Correlation Energy    =      -1.9053869190627584 [Eh]
	 SCS Total Energy          =    -441.0395933237834356 [Eh]
	-----------------------------------------------------------

  Dipole Moment: [D]
     X:     3.6328      Y:     2.9618      Z:    -0.3446     Total:     4.6998

*** Psi4 exiting successfully. Buy a developer a beer!
