                               Psi4 1.3.2 release

  ==> Input File <==

--------------------------------------------------------------------------
#psi4
#
memory 32 gb

molecule  {
0 1
  O       -2.8968130    -0.3474360    -0.2563530
  O       -0.5825960    -1.5131530     0.0834280
  N        0.6646380     0.3451110    -0.3514860
  C        1.9521820    -0.3066060    -0.1296730
  C       -1.7875910     0.5207530    -0.3412920
  C        2.3087340    -0.3110910     1.3526080
  C        3.0072020     0.3769410    -0.9846900
  C       -0.5092170    -0.3043550    -0.1811720
  C       -1.8993132     1.6116396     0.7173424
  H        1.8182130    -1.3395260    -0.4626630
  H        0.6508110     1.3528600    -0.4628320
  H       -1.7702476     1.0110437    -1.3272720
  H        2.4085440     0.7136460     1.7243230
  H        1.5276200    -0.8195050     1.9221530
  H        3.2560570    -0.8319740     1.5215790
  H        3.1304270     1.4235350    -0.6835410
  H        2.7315590     0.3479870    -2.0412990
  H        3.9738610    -0.1182480    -0.8633910
  H       -1.8420940     1.1254490     1.7220580
  H       -2.8670940     2.0889060     0.6442650
  H       -1.1140830     2.3514110     0.6543310
  H       -2.4990480    -1.2315890    -0.0938460
units angstrom
no_reorient  #important for SAPT in psi4, default
symmetry c1  #important for SAPT in psi4, default
}

set PROPERTIES_ORIGIN ["COM"]
properties('MP2/aug-cc-pvtz', properties = ['dipole'])
--------------------------------------------------------------------------

    Molecular point group: c1
  Charge       = 0
  Multiplicity = 1
  Basis Set: AUG-CC-PVTZ
    Blend: AUG-CC-PVTZ
  Basis Set: (AUG-CC-PVTZ AUX)
    Blend: AUG-CC-PVTZ-JKFIT

    Orbital Energies [Eh]
    ---------------------

    Doubly Occupied:

       1A    -20.548490     2A    -20.532762     3A    -15.595931
       4A    -11.358807     5A    -11.297488     6A    -11.277320
       7A    -11.232393     8A    -11.230649     9A    -11.222288
      10A     -1.397411    11A     -1.345993    12A     -1.248162
      13A     -1.072396    14A     -1.024297    15A     -0.949915
      16A     -0.894854    17A     -0.822364    18A     -0.795031
      19A     -0.736736    20A     -0.679036    21A     -0.649483
      22A     -0.632910    23A     -0.628805    24A     -0.597406
      25A     -0.581928    26A     -0.569885    27A     -0.555139
      28A     -0.549901    29A     -0.537458    30A     -0.527840
      31A     -0.512564    32A     -0.502878    33A     -0.491707
      34A     -0.443907    35A     -0.435103    36A     -0.401489

  @DF-RHF Final Energy:  -439.13694061637966

   => Energetics <=

    Nuclear Repulsion Energy =            485.2010465829409327
    One-Electron Energy =               -1560.9145156294673598
    Two-Electron Energy =                 636.5765284301467091
    Total Energy =                       -439.1369406163796612
  Basis Set: (AUG-CC-PVTZ AUX)
    Blend: AUG-CC-PVTZ-RI
    Molecular point group: c1

    Geometry (in Angstrom), charge = 0, multiplicity = 1:

       Center              X                  Y                   Z               Mass
    ------------   -----------------  -----------------  -----------------  -----------------
         O           -2.896784035678    -0.349278613921    -0.254683803359    15.994914619570
         O           -0.582567035678    -1.514995613921     0.085097196641    15.994914619570
         N            0.664666964322     0.343268386079    -0.349816803359    14.003074004430
         C            1.952210964322    -0.308448613921    -0.128003803359    12.000000000000
         C           -1.787562035678     0.518910386079    -0.339622803359    12.000000000000
         C            2.308762964322    -0.312933613921     1.354277196641    12.000000000000
         C            3.007230964322     0.375098386079    -0.983020803359    12.000000000000
         C           -0.509188035678    -0.306197613921    -0.179502803359    12.000000000000
         C           -1.899284235678     1.609796986079     0.719011596641    12.000000000000
         H            1.818241964322    -1.341368613921    -0.460993803359     1.007825032230
         H            0.650839964322     1.351017386079    -0.461162803359     1.007825032230
         H           -1.770218635678     1.009201086079    -1.325602803359     1.007825032230
         H            2.408572964322     0.711803386079     1.725992196641     1.007825032230
         H            1.527648964322    -0.821347613921     1.923822196641     1.007825032230
         H            3.256085964322    -0.833816613921     1.523248196641     1.007825032230
         H            3.130455964322     1.421692386079    -0.681871803359     1.007825032230
         H            2.731587964322     0.346144386079    -2.039629803359     1.007825032230
         H            3.973889964322    -0.120090613921    -0.861721803359     1.007825032230
         H           -1.842065035678     1.123606386079     1.723727196641     1.007825032230
         H           -2.867065035678     2.087063386079     0.645934196641     1.007825032230
         H           -1.114054035678     2.349568386079     0.656000196641     1.007825032230
         H           -2.499019035678    -1.233431613921    -0.092176803359     1.007825032230

  Basis Set: AUG-CC-PVTZ
    Blend: AUG-CC-PVTZ
  Basis Set: (AUG-CC-PVTZ AUX)
    Blend: AUG-CC-PVTZ-JKFIT
	 Reference Energy          =    -439.1369406163796612 [Eh]
	 Singles Energy            =      -0.0000000000000000 [Eh]
	 Same-Spin Energy          =      -0.4460434158872736 [Eh]
	 Opposite-Spin Energy      =      -1.4636901647833103 [Eh]
	 Correlation Energy        =      -1.9097335806705840 [Eh]
	 Total Energy              =    -441.0466741970502653 [Eh]

	 ================> DF-SCS-MP2 Energies <==================
	-----------------------------------------------------------
	 SCS Same-Spin Scale       =       0.3333333333333333 [-]
	 SCS Opposite-Spin Scale   =       1.2000000000000000 [-]
	 SCS Same-Spin Energy      =      -0.1486811386290912 [Eh]
	 SCS Opposite-Spin Energy  =      -1.7564281977399723 [Eh]
	 SCS Correlation Energy    =      -1.9051093363690634 [Eh]
	 SCS Total Energy          =    -441.0420499527486982 [Eh]
	-----------------------------------------------------------

  Dipole Moment: [D]
     X:     3.5809      Y:     2.9213      Z:    -0.2329     Total:     4.6272

*** Psi4 exiting successfully. Buy a developer a beer!
