                               Psi4 1.3.2 release

  ==> Input File <==

--------------------------------------------------------------------------
#psi4
#
memory 32 gb

molecule  {
0 1
  O       -2.8968130    -0.3474360    -0.2563530
  O       -0.5825960    -1.5131530     0.0834280
  N        0.6646380     0.3451110    -0.3514860
  C        1.9521820    -0.3066060    -0.1296730
  C       -1.7875910     0.5207530    -0.3412920
  C        2.3087340    -0.3110910     1.3526080
  C        3.0072020     0.3769410    -0.9846900
  C       -0.5092170    -0.3043550    -0.1811720
  C       -1.8994794     1.6299889     0.6980823
  H        1.8182130    -1.3395260    -0.4626630
  H        0.6508110     1.3528600    -0.4628320
  H       -1.7716325     1.0281440    -1.3186057
  H        2.4085440     0.7136460     1.7243230
  H        1.5276200    -0.8195050     1.9221530
  H        3.2560570    -0.8319740     1.5215790
  H        3.1304270     1.4235350    -0.6835410
  H        2.7315590     0.3479870    -2.0412990
  H        3.9738610    -0.1182480    -0.8633910
  H       -1.8420940     1.1254490     1.7220580
  H       -2.8670940     2.0889060     0.6442650
  H       -1.1140830     2.3514110     0.6543310
  H       -2.4990480    -1.2315890    -0.0938460
units angstrom
no_reorient  #important for SAPT in psi4, default
symmetry c1  #important for SAPT in psi4, default
}

set PROPERTIES_ORIGIN ["COM"]
properties('MP2/aug-cc-pvtz', properties = ['dipole'])
--------------------------------------------------------------------------

    Molecular point group: c1
  Charge       = 0
  Multiplicity = 1
  Basis Set: AUG-CC-PVTZ
    Blend: AUG-CC-PVTZ
  Basis Set: (AUG-CC-PVTZ AUX)
    Blend: AUG-CC-PVTZ-JKFIT

    Orbital Energies [Eh]
    ---------------------

    Doubly Occupied:

       1A    -20.549210     2A    -20.533059     3A    -15.596148
       4A    -11.359353     5A    -11.297753     6A    -11.277415
       7A    -11.232464     8A    -11.230813     9A    -11.222323
      10A     -1.397631    11A     -1.346258    12A     -1.248356
      13A     -1.072575    14A     -1.024869    15A     -0.949969
      16A     -0.894868    17A     -0.822422    18A     -0.795144
      19A     -0.737129    20A     -0.679205    21A     -0.649434
      22A     -0.633471    23A     -0.628824    24A     -0.598146
      25A     -0.582827    26A     -0.573526    27A     -0.555158
      28A     -0.551169    29A     -0.536267    30A     -0.523717
      31A     -0.512224    32A     -0.502978    33A     -0.491891
      34A     -0.442701    35A     -0.435647    36A     -0.401530

  @DF-RHF Final Energy:  -439.13436600278732

   => Energetics <=

    Nuclear Repulsion Energy =            485.1004252213278960
    One-Electron Energy =               -1560.6966365260173006
    Two-Electron Energy =                 636.4618453019020308
    Total Energy =                       -439.1343660027873739
  Basis Set: (AUG-CC-PVTZ AUX)
    Blend: AUG-CC-PVTZ-RI
    Molecular point group: c1

    Geometry (in Angstrom), charge = 0, multiplicity = 1:

       Center              X                  Y                   Z               Mass
    ------------   -----------------  -----------------  -----------------  -----------------
         O           -2.896758175451    -0.351089715664    -0.252987417411    15.994914619570
         O           -0.582541175451    -1.516806715664     0.086793582589    15.994914619570
         N            0.664692824549     0.341457284336    -0.348120417411    14.003074004430
         C            1.952236824549    -0.310259715664    -0.126307417411    12.000000000000
         C           -1.787536175451     0.517099284336    -0.337926417411    12.000000000000
         C            2.308788824549    -0.314744715664     1.355973582589    12.000000000000
         C            3.007256824549     0.373287284336    -0.981324417411    12.000000000000
         C           -0.509162175451    -0.308008715664    -0.177806417411    12.000000000000
         C           -1.899424575451     1.626335184336     0.701447882589    12.000000000000
         H            1.818267824549    -1.343179715664    -0.459297417411     1.007825032230
         H            0.650865824549     1.349206284336    -0.459466417411     1.007825032230
         H           -1.771577675451     1.024490284336    -1.315240117411     1.007825032230
         H            2.408598824549     0.709992284336     1.727688582589     1.007825032230
         H            1.527674824549    -0.823158715664     1.925518582589     1.007825032230
         H            3.256111824549    -0.835627715664     1.524944582589     1.007825032230
         H            3.130481824549     1.419881284336    -0.680175417411     1.007825032230
         H            2.731613824549     0.344333284336    -2.037933417411     1.007825032230
         H            3.973915824549    -0.121901715664    -0.860025417411     1.007825032230
         H           -1.842039175451     1.121795284336     1.725423582589     1.007825032230
         H           -2.867039175451     2.085252284336     0.647630582589     1.007825032230
         H           -1.114028175451     2.347757284336     0.657696582589     1.007825032230
         H           -2.498993175451    -1.235242715664    -0.090480417411     1.007825032230

  Basis Set: AUG-CC-PVTZ
    Blend: AUG-CC-PVTZ
  Basis Set: (AUG-CC-PVTZ AUX)
    Blend: AUG-CC-PVTZ-JKFIT
	 Reference Energy          =    -439.1343660027873170 [Eh]
	 Singles Energy            =      -0.0000000000000000 [Eh]
	 Same-Spin Energy          =      -0.4460939114737181 [Eh]
	 Opposite-Spin Energy      =      -1.4638228634176562 [Eh]
	 Correlation Energy        =      -1.9099167748913743 [Eh]
	 Total Energy              =    -441.0442827776786885 [Eh]

	 ================> DF-SCS-MP2 Energies <==================
	-----------------------------------------------------------
	 SCS Same-Spin Scale       =       0.3333333333333333 [-]
	 SCS Opposite-Spin Scale   =       1.2000000000000000 [-]
	 SCS Same-Spin Energy      =      -0.1486979704912394 [Eh]
	 SCS Opposite-Spin Energy  =      -1.7565874361011875 [Eh]
	 SCS Correlation Energy    =      -1.9052854065924270 [Eh]
	 SCS Total Energy          =    -441.0396514093797578 [Eh]
	-----------------------------------------------------------

  Dipole Moment: [D]
     X:     3.5845      Y:     2.9250      Z:    -0.2432     Total:     4.6329

*** Psi4 exiting successfully. Buy a developer a beer!
