                               Psi4 1.3.2 release

  ==> Input File <==

--------------------------------------------------------------------------
#psi4
#
memory 32 gb

molecule  {
0 1
  O       -2.8968130    -0.3474360    -0.2563530
  O       -0.5825960    -1.5131530     0.0834280
  N        0.6646380     0.3451110    -0.3514860
  C        1.9581353    -0.2957818    -0.1327926
  C       -1.7875910     0.5207530    -0.3412920
  C        2.3087340    -0.3110910     1.3526080
  C        3.0072020     0.3769410    -0.9846900
  C       -0.5150269    -0.2945487    -0.1842295
  C       -1.8991130     1.5929580     0.7362800
  H        1.8182130    -1.3395260    -0.4626630
  H        0.6508110     1.3528600    -0.4628320
  H       -1.7688680     0.9937940    -1.3356380
  H        2.4085440     0.7136460     1.7243230
  H        1.5276200    -0.8195050     1.9221530
  H        3.2560570    -0.8319740     1.5215790
  H        3.1304270     1.4235350    -0.6835410
  H        2.7315590     0.3479870    -2.0412990
  H        3.9738610    -0.1182480    -0.8633910
  H       -1.8420940     1.1254490     1.7220580
  H       -2.8670940     2.0889060     0.6442650
  H       -1.1140830     2.3514110     0.6543310
  H       -2.4990480    -1.2315890    -0.0938460
units angstrom
no_reorient  #important for SAPT in psi4, default
symmetry c1  #important for SAPT in psi4, default
}

set PROPERTIES_ORIGIN ["COM"]
properties('MP2/aug-cc-pvtz', properties = ['dipole'])
--------------------------------------------------------------------------

    Molecular point group: c1
  Charge       = 0
  Multiplicity = 1
  Basis Set: AUG-CC-PVTZ
    Blend: AUG-CC-PVTZ
  Basis Set: (AUG-CC-PVTZ AUX)
    Blend: AUG-CC-PVTZ-JKFIT

    Orbital Energies [Eh]
    ---------------------

    Doubly Occupied:

       1A    -20.548200     2A    -20.531055     3A    -15.596549
       4A    -11.359249     5A    -11.297965     6A    -11.277883
       7A    -11.232374     8A    -11.231453     9A    -11.222334
      10A     -1.393293    11A     -1.344491    12A     -1.247143
      13A     -1.074128    14A     -1.025371    15A     -0.950656
      16A     -0.897324    17A     -0.822192    18A     -0.794099
      19A     -0.737264    20A     -0.678268    21A     -0.649525
      22A     -0.630768    23A     -0.629881    24A     -0.595688
      25A     -0.582141    26A     -0.568182    27A     -0.555116
      28A     -0.548502    29A     -0.539358    30A     -0.529188
      31A     -0.511476    32A     -0.504005    33A     -0.488874
      34A     -0.445302    35A     -0.435398    36A     -0.400694

  @DF-RHF Final Energy:  -439.13635272424324

   => Energetics <=

    Nuclear Repulsion Energy =            485.2618571469511153
    One-Electron Energy =               -1561.0456377115797295
    Two-Electron Energy =                 636.6474278403853759
    Total Energy =                       -439.1363527242432383
  Basis Set: (AUG-CC-PVTZ AUX)
    Blend: AUG-CC-PVTZ-RI
    Molecular point group: c1

    Geometry (in Angstrom), charge = 0, multiplicity = 1:

       Center              X                  Y                   Z               Mass
    ------------   -----------------  -----------------  -----------------  -----------------
         O           -2.896826093812    -0.349324398562    -0.255787544506    15.994914619570
         O           -0.582609093812    -1.515041398562     0.083993455494    15.994914619570
         N            0.664624906188     0.343222601438    -0.350920544506    14.003074004430
         C            1.958122206188    -0.297670198562    -0.132227144506    12.000000000000
         C           -1.787604093812     0.518864601438    -0.340726544506    12.000000000000
         C            2.308720906188    -0.312979398562     1.353173455494    12.000000000000
         C            3.007188906188     0.375052601438    -0.984124544506    12.000000000000
         C           -0.515039993812    -0.296437098562    -0.183664044506    12.000000000000
         C           -1.899126093812     1.591069601438     0.736845455494    12.000000000000
         H            1.818199906188    -1.341414398562    -0.462097544506     1.007825032230
         H            0.650797906188     1.350971601438    -0.462266544506     1.007825032230
         H           -1.768881093812     0.991905601438    -1.335072544506     1.007825032230
         H            2.408530906188     0.711757601438     1.724888455494     1.007825032230
         H            1.527606906188    -0.821393398562     1.922718455494     1.007825032230
         H            3.256043906188    -0.833862398562     1.522144455494     1.007825032230
         H            3.130413906188     1.421646601438    -0.682975544506     1.007825032230
         H            2.731545906188     0.346098601438    -2.040733544506     1.007825032230
         H            3.973847906188    -0.120136398562    -0.862825544506     1.007825032230
         H           -1.842107093812     1.123560601438     1.722623455494     1.007825032230
         H           -2.867107093812     2.087017601438     0.644830455494     1.007825032230
         H           -1.114096093812     2.349522601438     0.654896455494     1.007825032230
         H           -2.499061093812    -1.233477398562    -0.093280544506     1.007825032230

  Basis Set: AUG-CC-PVTZ
    Blend: AUG-CC-PVTZ
  Basis Set: (AUG-CC-PVTZ AUX)
    Blend: AUG-CC-PVTZ-JKFIT
	 Reference Energy          =    -439.1363527242432383 [Eh]
	 Singles Energy            =      -0.0000000000000000 [Eh]
	 Same-Spin Energy          =      -0.4463635909433937 [Eh]
	 Opposite-Spin Energy      =      -1.4642345347023515 [Eh]
	 Correlation Energy        =      -1.9105981256457452 [Eh]
	 Total Energy              =    -441.0469508498889581 [Eh]

	 ================> DF-SCS-MP2 Energies <==================
	-----------------------------------------------------------
	 SCS Same-Spin Scale       =       0.3333333333333333 [-]
	 SCS Opposite-Spin Scale   =       1.2000000000000000 [-]
	 SCS Same-Spin Energy      =      -0.1487878636477979 [Eh]
	 SCS Opposite-Spin Energy  =      -1.7570814416428218 [Eh]
	 SCS Correlation Energy    =      -1.9058693052906197 [Eh]
	 SCS Total Energy          =    -441.0422220295338320 [Eh]
	-----------------------------------------------------------

  Dipole Moment: [D]
     X:     3.5756      Y:     2.9721      Z:    -0.2387     Total:     4.6556

*** Psi4 exiting successfully. Buy a developer a beer!
