                               Psi4 1.3.2 release

  ==> Input File <==

--------------------------------------------------------------------------
#psi4
#
memory 32 gb

molecule  {
0 1
  O       -2.8968130    -0.3474360    -0.2563530
  O       -0.5825960    -1.5131530     0.0834280
  N        0.6646380     0.3451110    -0.3514860
  C        1.9154892    -0.3735950    -0.1266781
  C       -1.7875910     0.5207530    -0.3412920
  C        2.3087340    -0.3110910     1.3526080
  C        3.0072020     0.3769410    -0.9846900
  C       -0.5092170    -0.3043550    -0.1811720
  C       -1.8991130     1.5929580     0.7362800
  H        1.8182130    -1.3395260    -0.4626630
  H        0.5981239     1.3500902    -0.4687034
  H       -1.7688680     0.9937940    -1.3356380
  H        2.4085440     0.7136460     1.7243230
  H        1.5276200    -0.8195050     1.9221530
  H        3.2560570    -0.8319740     1.5215790
  H        3.1304270     1.4235350    -0.6835410
  H        2.7315590     0.3479870    -2.0412990
  H        3.9738610    -0.1182480    -0.8633910
  H       -1.8420940     1.1254490     1.7220580
  H       -2.8670940     2.0889060     0.6442650
  H       -1.1140830     2.3514110     0.6543310
  H       -2.4990480    -1.2315890    -0.0938460
units angstrom
no_reorient  #important for SAPT in psi4, default
symmetry c1  #important for SAPT in psi4, default
}

set PROPERTIES_ORIGIN ["COM"]
properties('MP2/aug-cc-pvtz', properties = ['dipole'])
--------------------------------------------------------------------------

    Molecular point group: c1
  Charge       = 0
  Multiplicity = 1
  Basis Set: AUG-CC-PVTZ
    Blend: AUG-CC-PVTZ
  Basis Set: (AUG-CC-PVTZ AUX)
    Blend: AUG-CC-PVTZ-JKFIT

    Orbital Energies [Eh]
    ---------------------

    Doubly Occupied:

       1A    -20.547865     2A    -20.531954     3A    -15.595935
       4A    -11.356126     5A    -11.297276     6A    -11.277024
       7A    -11.232585     8A    -11.231354     9A    -11.222496
      10A     -1.397464    11A     -1.345945    12A     -1.247692
      13A     -1.068044    14A     -1.022434    15A     -0.943968
      16A     -0.894191    17A     -0.831747    18A     -0.791993
      19A     -0.736305    20A     -0.684570    21A     -0.653021
      22A     -0.633211    23A     -0.621925    24A     -0.596140
      25A     -0.580225    26A     -0.567110    27A     -0.554688
      28A     -0.547536    29A     -0.538564    30A     -0.532280
      31A     -0.516575    32A     -0.505520    33A     -0.485981
      34A     -0.445093    35A     -0.433727    36A     -0.400224

  @DF-RHF Final Energy:  -439.13117589597351

   => Energetics <=

    Nuclear Repulsion Energy =            485.2658131612301418
    One-Electron Energy =               -1561.0564027018856450
    Two-Electron Energy =                 636.6594136446819903
    Total Energy =                       -439.1311758959734561
  Basis Set: (AUG-CC-PVTZ AUX)
    Blend: AUG-CC-PVTZ-RI
    Molecular point group: c1

    Geometry (in Angstrom), charge = 0, multiplicity = 1:

       Center              X                  Y                   Z               Mass
    ------------   -----------------  -----------------  -----------------  -----------------
         O           -2.893049174930    -0.341282684844    -0.256581983280    15.994914619570
         O           -0.578832174930    -1.506999684844     0.083199016720    15.994914619570
         N            0.668401825070     0.351264315156    -0.351714983280    14.003074004430
         C            1.919253025070    -0.367441684844    -0.126907083280    12.000000000000
         C           -1.783827174930     0.526906315156    -0.341520983280    12.000000000000
         C            2.312497825070    -0.304937684844     1.352379016720    12.000000000000
         C            3.010965825070     0.383094315156    -0.984918983280    12.000000000000
         C           -0.505453174930    -0.298201684844    -0.181400983280    12.000000000000
         C           -1.895349174930     1.599111315156     0.736051016720    12.000000000000
         H            1.821976825070    -1.333372684844    -0.462891983280     1.007825032230
         H            0.601887725070     1.356243515156    -0.468932383280     1.007825032230
         H           -1.765104174930     0.999947315156    -1.335866983280     1.007825032230
         H            2.412307825070     0.719799315156     1.724094016720     1.007825032230
         H            1.531383825070    -0.813351684844     1.921924016720     1.007825032230
         H            3.259820825070    -0.825820684844     1.521350016720     1.007825032230
         H            3.134190825070     1.429688315156    -0.683769983280     1.007825032230
         H            2.735322825070     0.354140315156    -2.041527983280     1.007825032230
         H            3.977624825070    -0.112094684844    -0.863619983280     1.007825032230
         H           -1.838330174930     1.131602315156     1.721829016720     1.007825032230
         H           -2.863330174930     2.095059315156     0.644036016720     1.007825032230
         H           -1.110319174930     2.357564315156     0.654102016720     1.007825032230
         H           -2.495284174930    -1.225435684844    -0.094074983280     1.007825032230

  Basis Set: AUG-CC-PVTZ
    Blend: AUG-CC-PVTZ
  Basis Set: (AUG-CC-PVTZ AUX)
    Blend: AUG-CC-PVTZ-JKFIT
	 Reference Energy          =    -439.1311758959735130 [Eh]
	 Singles Energy            =      -0.0000000000000000 [Eh]
	 Same-Spin Energy          =      -0.4457228525815795 [Eh]
	 Opposite-Spin Energy      =      -1.4635070652007867 [Eh]
	 Correlation Energy        =      -1.9092299177823662 [Eh]
	 Total Energy              =    -441.0404058137558536 [Eh]

	 ================> DF-SCS-MP2 Energies <==================
	-----------------------------------------------------------
	 SCS Same-Spin Scale       =       0.3333333333333333 [-]
	 SCS Opposite-Spin Scale   =       1.2000000000000000 [-]
	 SCS Same-Spin Energy      =      -0.1485742841938598 [Eh]
	 SCS Opposite-Spin Energy  =      -1.7562084782409439 [Eh]
	 SCS Correlation Energy    =      -1.9047827624348037 [Eh]
	 SCS Total Energy          =    -441.0359586584083331 [Eh]
	-----------------------------------------------------------

  Dipole Moment: [D]
     X:     3.5030      Y:     2.8988      Z:    -0.2071     Total:     4.5516

*** Psi4 exiting successfully. Buy a developer a beer!
