                               Psi4 1.3.2 release

  ==> Input File <==

--------------------------------------------------------------------------
#psi4
#
memory 32 gb

molecule  {
0 1
  O       -2.8968130    -0.3474360    -0.2563530
  O       -0.5825960    -1.5131530     0.0834280
  N        0.6646380     0.3451110    -0.3514860
  C        1.9521820    -0.3066060    -0.1296730
  C       -1.7875910     0.5207530    -0.3412920
  C        2.3087340    -0.3110910     1.3526080
  C        3.0072020     0.3769410    -0.9846900
  C       -0.5033946    -0.3145986    -0.1805136
  C       -1.8991130     1.5929580     0.7362800
  H        1.8182130    -1.3395260    -0.4626630
  H        0.6596290     1.3528609    -0.4635669
  H       -1.7688680     0.9937940    -1.3356380
  H        2.4085440     0.7136460     1.7243230
  H        1.5276200    -0.8195050     1.9221530
  H        3.2560570    -0.8319740     1.5215790
  H        3.1304270     1.4235350    -0.6835410
  H        2.7315590     0.3479870    -2.0412990
  H        3.9738610    -0.1182480    -0.8633910
  H       -1.8420940     1.1254490     1.7220580
  H       -2.8670940     2.0889060     0.6442650
  H       -1.1140830     2.3514110     0.6543310
  H       -2.4990480    -1.2315890    -0.0938460
units angstrom
no_reorient  #important for SAPT in psi4, default
symmetry c1  #important for SAPT in psi4, default
}

set PROPERTIES_ORIGIN ["COM"]
properties('MP2/aug-cc-pvtz', properties = ['dipole'])
--------------------------------------------------------------------------

    Molecular point group: c1
  Charge       = 0
  Multiplicity = 1
  Basis Set: AUG-CC-PVTZ
    Blend: AUG-CC-PVTZ
  Basis Set: (AUG-CC-PVTZ AUX)
    Blend: AUG-CC-PVTZ-JKFIT

    Orbital Energies [Eh]
    ---------------------

    Doubly Occupied:

       1A    -20.547398     2A    -20.533995     3A    -15.594958
       4A    -11.357734     5A    -11.296686     6A    -11.276758
       7A    -11.232238     8A    -11.230003     9A    -11.222241
      10A     -1.401557    11A     -1.346745    12A     -1.248828
      13A     -1.071190    14A     -1.022582    15A     -0.949867
      16A     -0.892932    17A     -0.821492    18A     -0.796159
      19A     -0.735703    20A     -0.679009    21A     -0.649037
      22A     -0.634021    23A     -0.628759    24A     -0.598494
      25A     -0.581395    26A     -0.566988    27A     -0.555166
      28A     -0.547843    29A     -0.539646    30A     -0.530735
      31A     -0.513222    32A     -0.503500    33A     -0.491824
      34A     -0.444478    35A     -0.433154    36A     -0.401968

  @DF-RHF Final Energy:  -439.13850764262088

   => Energetics <=

    Nuclear Repulsion Energy =            485.3427903040281421
    One-Electron Energy =               -1561.2059838150653377
    Two-Electron Energy =                 636.7246858684163726
    Total Energy =                       -439.1385076426208798
  Basis Set: (AUG-CC-PVTZ AUX)
    Blend: AUG-CC-PVTZ-RI
    Molecular point group: c1

    Geometry (in Angstrom), charge = 0, multiplicity = 1:

       Center              X                  Y                   Z               Mass
    ------------   -----------------  -----------------  -----------------  -----------------
         O           -2.897413722778    -0.346498285115    -0.256407595458    15.994914619570
         O           -0.583196722778    -1.512215285115     0.083373404542    15.994914619570
         N            0.664037277222     0.346048714885    -0.351540595458    14.003074004430
         C            1.951581277222    -0.305668285115    -0.129727595458    12.000000000000
         C           -1.788191722778     0.521690714885    -0.341346595458    12.000000000000
         C            2.308133277222    -0.310153285115     1.352553404542    12.000000000000
         C            3.006601277222     0.377878714885    -0.984744595458    12.000000000000
         C           -0.503995322778    -0.313660885115    -0.180568195458    12.000000000000
         C           -1.899713722778     1.593895714885     0.736225404542    12.000000000000
         H            1.817612277222    -1.338588285115    -0.462717595458     1.007825032230
         H            0.659028277222     1.353798614885    -0.463621495458     1.007825032230
         H           -1.769468722778     0.994731714885    -1.335692595458     1.007825032230
         H            2.407943277222     0.714583714885     1.724268404542     1.007825032230
         H            1.527019277222    -0.818567285115     1.922098404542     1.007825032230
         H            3.255456277222    -0.831036285115     1.521524404542     1.007825032230
         H            3.129826277222     1.424472714885    -0.683595595458     1.007825032230
         H            2.730958277222     0.348924714885    -2.041353595458     1.007825032230
         H            3.973260277222    -0.117310285115    -0.863445595458     1.007825032230
         H           -1.842694722778     1.126386714885     1.722003404542     1.007825032230
         H           -2.867694722778     2.089843714885     0.644210404542     1.007825032230
         H           -1.114683722778     2.352348714885     0.654276404542     1.007825032230
         H           -2.499648722778    -1.230651285115    -0.093900595458     1.007825032230

  Basis Set: AUG-CC-PVTZ
    Blend: AUG-CC-PVTZ
  Basis Set: (AUG-CC-PVTZ AUX)
    Blend: AUG-CC-PVTZ-JKFIT
	 Reference Energy          =    -439.1385076426208798 [Eh]
	 Singles Energy            =      -0.0000000000000000 [Eh]
	 Same-Spin Energy          =      -0.4457928895055394 [Eh]
	 Opposite-Spin Energy      =      -1.4631945988881918 [Eh]
	 Correlation Energy        =      -1.9089874883937312 [Eh]
	 Total Energy              =    -441.0474951310146139 [Eh]

	 ================> DF-SCS-MP2 Energies <==================
	-----------------------------------------------------------
	 SCS Same-Spin Scale       =       0.3333333333333333 [-]
	 SCS Opposite-Spin Scale   =       1.2000000000000000 [-]
	 SCS Same-Spin Energy      =      -0.1485976298351798 [Eh]
	 SCS Opposite-Spin Energy  =      -1.7558335186658300 [Eh]
	 SCS Correlation Energy    =      -1.9044311485010099 [Eh]
	 SCS Total Energy          =    -441.0429387911219123 [Eh]
	-----------------------------------------------------------

  Dipole Moment: [D]
     X:     3.5915      Y:     2.8646      Z:    -0.2213     Total:     4.5993

*** Psi4 exiting successfully. Buy a developer a beer!
