                               Psi4 1.3.2 release

  ==> Input File <==

--------------------------------------------------------------------------
#psi4
#
memory 32 gb

molecule  {
0 1
  O       -2.9043719    -0.3378489    -0.2579652
  O       -0.5825960    -1.5131530     0.0834280
  N        0.6646380     0.3451110    -0.3514860
  C        1.9521820    -0.3066060    -0.1296730
  C       -1.7875910     0.5207530    -0.3412920
  C        2.3087340    -0.3110910     1.3526080
  C        3.0072020     0.3769410    -0.9846900
  C       -0.5019448    -0.2932368    -0.1824957
  C       -1.8991130     1.5929580     0.7362800
  H        1.8182130    -1.3395260    -0.4626630
  H        0.6508110     1.3528600    -0.4628320
  H       -1.7688680     0.9937940    -1.3356380
  H        2.4085440     0.7136460     1.7243230
  H        1.5276200    -0.8195050     1.9221530
  H        3.2560570    -0.8319740     1.5215790
  H        3.1304270     1.4235350    -0.6835410
  H        2.7315590     0.3479870    -2.0412990
  H        3.9738610    -0.1182480    -0.8633910
  H       -1.8420940     1.1254490     1.7220580
  H       -2.8670940     2.0889060     0.6442650
  H       -1.1140830     2.3514110     0.6543310
  H       -2.4990480    -1.2315890    -0.0938460
units angstrom
no_reorient  #important for SAPT in psi4, default
symmetry c1  #important for SAPT in psi4, default
}

set PROPERTIES_ORIGIN ["COM"]
properties('MP2/aug-cc-pvtz', properties = ['dipole'])
--------------------------------------------------------------------------

    Molecular point group: c1
  Charge       = 0
  Multiplicity = 1
  Basis Set: AUG-CC-PVTZ
    Blend: AUG-CC-PVTZ
  Basis Set: (AUG-CC-PVTZ AUX)
    Blend: AUG-CC-PVTZ-JKFIT

    Orbital Energies [Eh]
    ---------------------

    Doubly Occupied:

       1A    -20.548548     2A    -20.529926     3A    -15.598480
       4A    -11.358297     5A    -11.297122     6A    -11.278599
       7A    -11.233328     8A    -11.230404     9A    -11.223118
      10A     -1.391471    11A     -1.342528    12A     -1.250800
      13A     -1.074013    14A     -1.023919    15A     -0.950821
      16A     -0.895237    17A     -0.823527    18A     -0.797542
      19A     -0.734775    20A     -0.678120    21A     -0.649202
      22A     -0.631052    23A     -0.628992    24A     -0.596810
      25A     -0.580908    26A     -0.566537    27A     -0.556013
      28A     -0.548998    29A     -0.539067    30A     -0.529665
      31A     -0.510640    32A     -0.502589    33A     -0.491897
      34A     -0.443879    35A     -0.433432    36A     -0.402446

  @DF-RHF Final Energy:  -439.13582606017735

   => Energetics <=

    Nuclear Repulsion Energy =            485.1540129736544031
    One-Electron Energy =               -1560.8342752693852162
    Two-Electron Energy =                 636.5444362355533485
    Total Energy =                       -439.1358260601773509
  Basis Set: (AUG-CC-PVTZ AUX)
    Blend: AUG-CC-PVTZ-RI
    Molecular point group: c1

    Geometry (in Angstrom), charge = 0, multiplicity = 1:

       Center              X                  Y                   Z               Mass
    ------------   -----------------  -----------------  -----------------  -----------------
         O           -2.904115277497    -0.340036298196    -0.257647304600    15.994914619570
         O           -0.582339377497    -1.515340398196     0.083745895400    15.994914619570
         N            0.664894622503     0.342923601804    -0.351168104600    14.003074004430
         C            1.952438622503    -0.308793398196    -0.129355104600    12.000000000000
         C           -1.787334377497     0.518565601804    -0.340974104600    12.000000000000
         C            2.308990622503    -0.313278398196     1.352925895400    12.000000000000
         C            3.007458622503     0.374753601804    -0.984372104600    12.000000000000
         C           -0.501688177497    -0.295424198196    -0.182177804600    12.000000000000
         C           -1.898856377497     1.590770601804     0.736597895400    12.000000000000
         H            1.818469622503    -1.341713398196    -0.462345104600     1.007825032230
         H            0.651067622503     1.350672601804    -0.462514104600     1.007825032230
         H           -1.768611377497     0.991606601804    -1.335320104600     1.007825032230
         H            2.408800622503     0.711458601804     1.724640895400     1.007825032230
         H            1.527876622503    -0.821692398196     1.922470895400     1.007825032230
         H            3.256313622503    -0.834161398196     1.521896895400     1.007825032230
         H            3.130683622503     1.421347601804    -0.683223104600     1.007825032230
         H            2.731815622503     0.345799601804    -2.040981104600     1.007825032230
         H            3.974117622503    -0.120435398196    -0.863073104600     1.007825032230
         H           -1.841837377497     1.123261601804     1.722375895400     1.007825032230
         H           -2.866837377497     2.086718601804     0.644582895400     1.007825032230
         H           -1.113826377497     2.349223601804     0.654648895400     1.007825032230
         H           -2.498791377497    -1.233776398196    -0.093528104600     1.007825032230

  Basis Set: AUG-CC-PVTZ
    Blend: AUG-CC-PVTZ
  Basis Set: (AUG-CC-PVTZ AUX)
    Blend: AUG-CC-PVTZ-JKFIT
	 Reference Energy          =    -439.1358260601773509 [Eh]
	 Singles Energy            =      -0.0000000000000000 [Eh]
	 Same-Spin Energy          =      -0.4464338559490881 [Eh]
	 Opposite-Spin Energy      =      -1.4644480011140486 [Eh]
	 Correlation Energy        =      -1.9108818570631367 [Eh]
	 Total Energy              =    -441.0467079172404965 [Eh]

	 ================> DF-SCS-MP2 Energies <==================
	-----------------------------------------------------------
	 SCS Same-Spin Scale       =       0.3333333333333333 [-]
	 SCS Opposite-Spin Scale   =       1.2000000000000000 [-]
	 SCS Same-Spin Energy      =      -0.1488112853163627 [Eh]
	 SCS Opposite-Spin Energy  =      -1.7573376013368582 [Eh]
	 SCS Correlation Energy    =      -1.9061488866532210 [Eh]
	 SCS Total Energy          =    -441.0419749468305781 [Eh]
	-----------------------------------------------------------

  Dipole Moment: [D]
     X:     3.6858      Y:     2.9666      Z:    -0.2364     Total:     4.7372

*** Psi4 exiting successfully. Buy a developer a beer!
