                               Psi4 1.3.2 release

  ==> Input File <==

--------------------------------------------------------------------------
#psi4
#
memory 32 gb

molecule  {
0 1
  O       -2.8968130    -0.3474360    -0.2563530
  O       -0.5825960    -1.5131530     0.0834280
  N        0.6646380     0.3451110    -0.3514860
  C        1.9521820    -0.3066060    -0.1296730
  C       -1.7875910     0.5207530    -0.3412920
  C        2.3087340    -0.3110910     1.3526080
  C        3.0072020     0.3769410    -0.9846900
  C       -0.5059209    -0.2970659    -0.1704829
  C       -1.8875467     1.5888931     0.7414396
  H        1.8182130    -1.3395260    -0.4626630
  H        0.6508110     1.3528600    -0.4628320
  H       -1.7688680     0.9937940    -1.3356380
  H        2.4085440     0.7136460     1.7243230
  H        1.5276200    -0.8195050     1.9221530
  H        3.2560570    -0.8319740     1.5215790
  H        3.1304270     1.4235350    -0.6835410
  H        2.7315590     0.3479870    -2.0412990
  H        3.9738610    -0.1182480    -0.8633910
  H       -1.8420940     1.1254490     1.7220580
  H       -2.8670940     2.0889060     0.6442650
  H       -1.1140830     2.3514110     0.6543310
  H       -2.4990480    -1.2315890    -0.0938460
units angstrom
no_reorient  #important for SAPT in psi4, default
symmetry c1  #important for SAPT in psi4, default
}

set PROPERTIES_ORIGIN ["COM"]
properties('MP2/aug-cc-pvtz', properties = ['dipole'])
--------------------------------------------------------------------------

    Molecular point group: c1
  Charge       = 0
  Multiplicity = 1
  Basis Set: AUG-CC-PVTZ
    Blend: AUG-CC-PVTZ
  Basis Set: (AUG-CC-PVTZ AUX)
    Blend: AUG-CC-PVTZ-JKFIT

    Orbital Energies [Eh]
    ---------------------

    Doubly Occupied:

       1A    -20.547883     2A    -20.531025     3A    -15.596733
       4A    -11.357839     5A    -11.297482     6A    -11.277689
       7A    -11.232719     8A    -11.230660     9A    -11.222610
      10A     -1.394739    11A     -1.344904    12A     -1.249080
      13A     -1.073152    14A     -1.024401    15A     -0.950256
      16A     -0.894560    17A     -0.823074    18A     -0.795900
      19A     -0.736373    20A     -0.679001    21A     -0.649785
      22A     -0.631477    23A     -0.629140    24A     -0.597088
      25A     -0.581628    26A     -0.566478    27A     -0.555491
      28A     -0.547058    29A     -0.540513    30A     -0.530805
      31A     -0.511428    32A     -0.502547    33A     -0.491422
      34A     -0.445251    35A     -0.433152    36A     -0.401848

  @DF-RHF Final Energy:  -439.13713594865294

   => Energetics <=

    Nuclear Repulsion Energy =            485.4147742268796151
    One-Electron Energy =               -1561.3534365785824320
    Two-Electron Energy =                 636.8015264030498201
    Total Energy =                       -439.1371359486529400
  Basis Set: (AUG-CC-PVTZ AUX)
    Blend: AUG-CC-PVTZ-RI
    Molecular point group: c1

    Geometry (in Angstrom), charge = 0, multiplicity = 1:

       Center              X                  Y                   Z               Mass
    ------------   -----------------  -----------------  -----------------  -----------------
         O           -2.898173425901    -0.347731079277    -0.257803718644    15.994914619570
         O           -0.583956425901    -1.513448079277     0.081977281356    15.994914619570
         N            0.663277574099     0.344815920723    -0.352936718644    14.003074004430
         C            1.950821574099    -0.306901079277    -0.131123718644    12.000000000000
         C           -1.788951425901     0.520457920723    -0.342742718644    12.000000000000
         C            2.307373574099    -0.311386079277     1.351157281356    12.000000000000
         C            3.005841574099     0.376645920723    -0.986140718644    12.000000000000
         C           -0.507281325901    -0.297360979277    -0.171933618644    12.000000000000
         C           -1.888907125901     1.588598020723     0.739988881356    12.000000000000
         H            1.816852574099    -1.339821079277    -0.464113718644     1.007825032230
         H            0.649450574099     1.352564920723    -0.464282718644     1.007825032230
         H           -1.770228425901     0.993498920723    -1.337088718644     1.007825032230
         H            2.407183574099     0.713350920723     1.722872281356     1.007825032230
         H            1.526259574099    -0.819800079277     1.920702281356     1.007825032230
         H            3.254696574099    -0.832269079277     1.520128281356     1.007825032230
         H            3.129066574099     1.423239920723    -0.684991718644     1.007825032230
         H            2.730198574099     0.347691920723    -2.042749718644     1.007825032230
         H            3.972500574099    -0.118543079277    -0.864841718644     1.007825032230
         H           -1.843454425901     1.125153920723     1.720607281356     1.007825032230
         H           -2.868454425901     2.088610920723     0.642814281356     1.007825032230
         H           -1.115443425901     2.351115920723     0.652880281356     1.007825032230
         H           -2.500408425901    -1.231884079277    -0.095296718644     1.007825032230

  Basis Set: AUG-CC-PVTZ
    Blend: AUG-CC-PVTZ
  Basis Set: (AUG-CC-PVTZ AUX)
    Blend: AUG-CC-PVTZ-JKFIT
	 Reference Energy          =    -439.1371359486529400 [Eh]
	 Singles Energy            =      -0.0000000000000000 [Eh]
	 Same-Spin Energy          =      -0.4461628795723378 [Eh]
	 Opposite-Spin Energy      =      -1.4638695571310443 [Eh]
	 Correlation Energy        =      -1.9100324367033821 [Eh]
	 Total Energy              =    -441.0471683853563150 [Eh]

	 ================> DF-SCS-MP2 Energies <==================
	-----------------------------------------------------------
	 SCS Same-Spin Scale       =       0.3333333333333333 [-]
	 SCS Opposite-Spin Scale   =       1.2000000000000000 [-]
	 SCS Same-Spin Energy      =      -0.1487209598574459 [Eh]
	 SCS Opposite-Spin Energy  =      -1.7566434685572532 [Eh]
	 SCS Correlation Energy    =      -1.9053644284146991 [Eh]
	 SCS Total Energy          =    -441.0425003770676540 [Eh]
	-----------------------------------------------------------

  Dipole Moment: [D]
     X:     3.6148      Y:     2.9491      Z:    -0.2247     Total:     4.6706

*** Psi4 exiting successfully. Buy a developer a beer!
