                               Psi4 1.3.2 release

  ==> Input File <==

--------------------------------------------------------------------------
#psi4
#
memory 32 gb

molecule  {
0 1
  O       -2.8968130    -0.3474360    -0.2563530
  O       -0.5825960    -1.5131530     0.0834280
  N        0.6646380     0.3451110    -0.3514860
  C        1.9521820    -0.3066060    -0.1296730
  C       -1.7875910     0.5207530    -0.3412920
  C        2.3087340    -0.3110910     1.3526080
  C        3.0072020     0.3769410    -0.9846900
  C       -0.4875697    -0.2812031    -0.2547317
  C       -1.8991130     1.5929580     0.7362800
  H        1.8182130    -1.3395260    -0.4626630
  H        0.6508110     1.3528600    -0.4628320
  H       -1.7178823     0.9685572    -1.3450123
  H        2.4085440     0.7136460     1.7243230
  H        1.5276200    -0.8195050     1.9221530
  H        3.2560570    -0.8319740     1.5215790
  H        3.1304270     1.4235350    -0.6835410
  H        2.7315590     0.3479870    -2.0412990
  H        3.9738610    -0.1182480    -0.8633910
  H       -1.8420940     1.1254490     1.7220580
  H       -2.8670940     2.0889060     0.6442650
  H       -1.1140830     2.3514110     0.6543310
  H       -2.4990480    -1.2315890    -0.0938460
units angstrom
no_reorient  #important for SAPT in psi4, default
symmetry c1  #important for SAPT in psi4, default
}

set PROPERTIES_ORIGIN ["COM"]
properties('MP2/aug-cc-pvtz', properties = ['dipole'])
--------------------------------------------------------------------------

    Molecular point group: c1
  Charge       = 0
  Multiplicity = 1
  Basis Set: AUG-CC-PVTZ
    Blend: AUG-CC-PVTZ
  Basis Set: (AUG-CC-PVTZ AUX)
    Blend: AUG-CC-PVTZ-JKFIT

    Orbital Energies [Eh]
    ---------------------

    Doubly Occupied:

       1A    -20.547257     2A    -20.521692     3A    -15.603692
       4A    -11.356712     5A    -11.298370     6A    -11.281139
       7A    -11.235001     8A    -11.231983     9A    -11.224238
      10A     -1.381344    11A     -1.338622    12A     -1.253079
      13A     -1.077963    14A     -1.025165    15A     -0.952176
      16A     -0.899367    17A     -0.827197    18A     -0.803591
      19A     -0.731324    20A     -0.677932    21A     -0.651685
      22A     -0.631373    23A     -0.624985    24A     -0.595356
      25A     -0.579473    26A     -0.566695    27A     -0.557507
      28A     -0.551017    29A     -0.540086    30A     -0.528891
      31A     -0.505425    32A     -0.500536    33A     -0.491628
      34A     -0.445248    35A     -0.427216    36A     -0.401762

  @DF-RHF Final Energy:  -439.12914996478617

   => Energetics <=

    Nuclear Repulsion Energy =            485.1256296740742755
    One-Electron Energy =               -1560.7760985520685608
    Two-Electron Energy =                 636.5213189132080061
    Total Energy =                       -439.1291499647861656
  Basis Set: (AUG-CC-PVTZ AUX)
    Blend: AUG-CC-PVTZ-RI
    Molecular point group: c1

    Geometry (in Angstrom), charge = 0, multiplicity = 1:

       Center              X                  Y                   Z               Mass
    ------------   -----------------  -----------------  -----------------  -----------------
         O           -2.899186461036    -0.349361185128    -0.249547480648    15.994914619570
         O           -0.584969461036    -1.515078185128     0.090233519352    15.994914619570
         N            0.662264538964     0.343185814872    -0.344680480648    14.003074004430
         C            1.949808538964    -0.308531185128    -0.122867480648    12.000000000000
         C           -1.789964461036     0.518827814872    -0.334486480648    12.000000000000
         C            2.306360538964    -0.313016185128     1.359413519352    12.000000000000
         C            3.004828538964     0.375015814872    -0.977884480648    12.000000000000
         C           -0.489943161036    -0.283128285128    -0.247926180648    12.000000000000
         C           -1.901486461036     1.591032814872     0.743085519352    12.000000000000
         H            1.815839538964    -1.341451185128    -0.455857480648     1.007825032230
         H            0.648437538964     1.350934814872    -0.456026480648     1.007825032230
         H           -1.720255761036     0.966632014872    -1.338206780648     1.007825032230
         H            2.406170538964     0.711720814872     1.731128519352     1.007825032230
         H            1.525246538964    -0.821430185128     1.928958519352     1.007825032230
         H            3.253683538964    -0.833899185128     1.528384519352     1.007825032230
         H            3.128053538964     1.421609814872    -0.676735480648     1.007825032230
         H            2.729185538964     0.346061814872    -2.034493480648     1.007825032230
         H            3.971487538964    -0.120173185128    -0.856585480648     1.007825032230
         H           -1.844467461036     1.123523814872     1.728863519352     1.007825032230
         H           -2.869467461036     2.086980814872     0.651070519352     1.007825032230
         H           -1.116456461036     2.349485814872     0.661136519352     1.007825032230
         H           -2.501421461036    -1.233514185128    -0.087040480648     1.007825032230

  Basis Set: AUG-CC-PVTZ
    Blend: AUG-CC-PVTZ
  Basis Set: (AUG-CC-PVTZ AUX)
    Blend: AUG-CC-PVTZ-JKFIT
	 Reference Energy          =    -439.1291499647861656 [Eh]
	 Singles Energy            =      -0.0000000000000000 [Eh]
	 Same-Spin Energy          =      -0.4468566362101475 [Eh]
	 Opposite-Spin Energy      =      -1.4652115332181150 [Eh]
	 Correlation Energy        =      -1.9120681694282626 [Eh]
	 Total Energy              =    -441.0412181342144322 [Eh]

	 ================> DF-SCS-MP2 Energies <==================
	-----------------------------------------------------------
	 SCS Same-Spin Scale       =       0.3333333333333333 [-]
	 SCS Opposite-Spin Scale   =       1.2000000000000000 [-]
	 SCS Same-Spin Energy      =      -0.1489522120700492 [Eh]
	 SCS Opposite-Spin Energy  =      -1.7582538398617380 [Eh]
	 SCS Correlation Energy    =      -1.9072060519317873 [Eh]
	 SCS Total Energy          =    -441.0363560167179457 [Eh]
	-----------------------------------------------------------

  Dipole Moment: [D]
     X:     3.8452      Y:     3.1460      Z:    -0.2821     Total:     4.9761

*** Psi4 exiting successfully. Buy a developer a beer!
