                               Psi4 1.3.2 release

  ==> Input File <==

--------------------------------------------------------------------------
#psi4
#
memory 32 gb

molecule  {
0 1
  O       -2.8968130    -0.3474360    -0.2563530
  O       -0.5825960    -1.5131530     0.0834280
  N        0.6646380     0.3451110    -0.3514860
  C        1.9521820    -0.3066060    -0.1296730
  C       -1.7875910     0.5207530    -0.3412920
  C        2.3087340    -0.3110910     1.3526080
  C        3.0072020     0.3769410    -0.9846900
  C       -0.4729574    -0.3650478    -0.1774180
  C       -1.8991130     1.5929580     0.7362800
  H        1.8182130    -1.3395260    -0.4626630
  H        0.7037114     1.3517147    -0.4671121
  H       -1.7688680     0.9937940    -1.3356380
  H        2.4085440     0.7136460     1.7243230
  H        1.5276200    -0.8195050     1.9221530
  H        3.2560570    -0.8319740     1.5215790
  H        3.1304270     1.4235350    -0.6835410
  H        2.7315590     0.3479870    -2.0412990
  H        3.9738610    -0.1182480    -0.8633910
  H       -1.8420940     1.1254490     1.7220580
  H       -2.8670940     2.0889060     0.6442650
  H       -1.1140830     2.3514110     0.6543310
  H       -2.4990480    -1.2315890    -0.0938460
units angstrom
no_reorient  #important for SAPT in psi4, default
symmetry c1  #important for SAPT in psi4, default
}

set PROPERTIES_ORIGIN ["COM"]
properties('MP2/aug-cc-pvtz', properties = ['dipole'])
--------------------------------------------------------------------------

    Molecular point group: c1
  Charge       = 0
  Multiplicity = 1
  Basis Set: AUG-CC-PVTZ
    Blend: AUG-CC-PVTZ
  Basis Set: (AUG-CC-PVTZ AUX)
    Blend: AUG-CC-PVTZ-JKFIT

    Orbital Energies [Eh]
    ---------------------

    Doubly Occupied:

       1A    -20.545250     2A    -20.541590     3A    -15.591598
       4A    -11.355359     5A    -11.292479     6A    -11.274634
       7A    -11.231956     8A    -11.226093     9A    -11.222344
      10A     -1.428377    11A     -1.348415    12A     -1.252244
      13A     -1.066547    14A     -1.016228    15A     -0.950086
      16A     -0.882965    17A     -0.817625    18A     -0.801848
      19A     -0.732372    20A     -0.682638    21A     -0.649226
      22A     -0.639533    23A     -0.628551    24A     -0.604990
      25A     -0.579875    26A     -0.564123    27A     -0.556115
      28A     -0.547534    29A     -0.543591    30A     -0.530845
      31A     -0.518877    32A     -0.506606    33A     -0.493274
      34A     -0.441850    35A     -0.422971    36A     -0.404102

  @DF-RHF Final Energy:  -439.13462984714243

   => Energetics <=

    Nuclear Repulsion Energy =            485.5638356386132273
    One-Electron Energy =               -1561.6115024645296216
    Two-Electron Energy =                 636.9130369787740165
    Total Energy =                       -439.1346298471423779
  Basis Set: (AUG-CC-PVTZ AUX)
    Blend: AUG-CC-PVTZ-RI
    Molecular point group: c1

    Geometry (in Angstrom), charge = 0, multiplicity = 1:

       Center              X                  Y                   Z               Mass
    ------------   -----------------  -----------------  -----------------  -----------------
         O           -2.900538745903    -0.341871508448    -0.256663702509    15.994914619570
         O           -0.586321745903    -1.507588508448     0.083117297491    15.994914619570
         N            0.660912254097     0.350675491552    -0.351796702509    14.003074004430
         C            1.948456254097    -0.301041508448    -0.129983702509    12.000000000000
         C           -1.791316745903     0.526317491552    -0.341602702509    12.000000000000
         C            2.305008254097    -0.305526508448     1.352297297491    12.000000000000
         C            3.003476254097     0.382505491552    -0.985000702509    12.000000000000
         C           -0.476683145903    -0.359483308448    -0.177728702509    12.000000000000
         C           -1.902838745903     1.598522491552     0.735969297491    12.000000000000
         H            1.814487254097    -1.333961508448    -0.462973702509     1.007825032230
         H            0.699985654097     1.357279191552    -0.467422802509     1.007825032230
         H           -1.772593745903     0.999358491552    -1.335948702509     1.007825032230
         H            2.404818254097     0.719210491552     1.724012297491     1.007825032230
         H            1.523894254097    -0.813940508448     1.921842297491     1.007825032230
         H            3.252331254097    -0.826409508448     1.521268297491     1.007825032230
         H            3.126701254097     1.429099491552    -0.683851702509     1.007825032230
         H            2.727833254097     0.353551491552    -2.041609702509     1.007825032230
         H            3.970135254097    -0.112683508448    -0.863701702509     1.007825032230
         H           -1.845819745903     1.131013491552     1.721747297491     1.007825032230
         H           -2.870819745903     2.094470491552     0.643954297491     1.007825032230
         H           -1.117808745903     2.356975491552     0.654020297491     1.007825032230
         H           -2.502773745903    -1.226024508448    -0.094156702509     1.007825032230

  Basis Set: AUG-CC-PVTZ
    Blend: AUG-CC-PVTZ
  Basis Set: (AUG-CC-PVTZ AUX)
    Blend: AUG-CC-PVTZ-JKFIT
	 Reference Energy          =    -439.1346298471424348 [Eh]
	 Singles Energy            =      -0.0000000000000000 [Eh]
	 Same-Spin Energy          =      -0.4448675534677938 [Eh]
	 Opposite-Spin Energy      =      -1.4614131878038319 [Eh]
	 Correlation Energy        =      -1.9062807412716256 [Eh]
	 Total Energy              =    -441.0409105884140786 [Eh]

	 ================> DF-SCS-MP2 Energies <==================
	-----------------------------------------------------------
	 SCS Same-Spin Scale       =       0.3333333333333333 [-]
	 SCS Opposite-Spin Scale   =       1.2000000000000000 [-]
	 SCS Same-Spin Energy      =      -0.1482891844892646 [Eh]
	 SCS Opposite-Spin Energy  =      -1.7536958253645982 [Eh]
	 SCS Correlation Energy    =      -1.9019850098538629 [Eh]
	 SCS Total Energy          =    -441.0366148569963229 [Eh]
	-----------------------------------------------------------

  Dipole Moment: [D]
     X:     3.6862      Y:     2.5918      Z:    -0.2022     Total:     4.5107

*** Psi4 exiting successfully. Buy a developer a beer!
