                               Psi4 1.3.2 release

  ==> Input File <==

--------------------------------------------------------------------------
#psi4
#
memory 32 gb

molecule  {
0 1
  O       -2.8968130    -0.3474360    -0.2563530
  O       -0.5825960    -1.5131530     0.0834280
  N        0.6646380     0.3451110    -0.3514860
  C        1.9521820    -0.3066060    -0.1296730
  C       -1.7875910     0.5207530    -0.3412920
  C        2.3087340    -0.3110910     1.3526080
  C        3.0072020     0.3769410    -0.9846900
  C       -0.5032974    -0.2068393    -0.2025177
  C       -1.8991130     1.5929580     0.7362800
  H        1.8182130    -1.3395260    -0.4626630
  H        0.6508110     1.3528600    -0.4628320
  H       -1.7688680     0.9937940    -1.3356380
  H        2.4085440     0.7136460     1.7243230
  H        1.5276200    -0.8195050     1.9221530
  H        3.2560570    -0.8319740     1.5215790
  H        3.1304270     1.4235350    -0.6835410
  H        2.7315590     0.3479870    -2.0412990
  H        3.9738610    -0.1182480    -0.8633910
  H       -1.8420940     1.1254490     1.7220580
  H       -2.8670940     2.0889060     0.6442650
  H       -1.1140830     2.3514110     0.6543310
  H       -2.4990480    -1.2315890    -0.0938460
units angstrom
no_reorient  #important for SAPT in psi4, default
symmetry c1  #important for SAPT in psi4, default
}

set PROPERTIES_ORIGIN ["COM"]
properties('MP2/aug-cc-pvtz', properties = ['dipole'])
--------------------------------------------------------------------------

    Molecular point group: c1
  Charge       = 0
  Multiplicity = 1
  Basis Set: AUG-CC-PVTZ
    Blend: AUG-CC-PVTZ
  Basis Set: (AUG-CC-PVTZ AUX)
    Blend: AUG-CC-PVTZ-JKFIT

    Orbital Energies [Eh]
    ---------------------

    Doubly Occupied:

       1A    -20.547837     2A    -20.511784     3A    -15.610874
       4A    -11.359103     5A    -11.299908     6A    -11.284226
       7A    -11.237043     8A    -11.233604     9A    -11.225663
      10A     -1.373065    11A     -1.330696    12A     -1.242052
      13A     -1.084514    14A     -1.033051    15A     -0.953816
      16A     -0.905944    17A     -0.833533    18A     -0.803290
      19A     -0.738313    20A     -0.680101    21A     -0.654243
      22A     -0.634185    23A     -0.619802    24A     -0.590218
      25A     -0.575643    26A     -0.566255    27A     -0.559153
      28A     -0.552936    29A     -0.540317    30A     -0.528535
      31A     -0.501206    32A     -0.500514    33A     -0.488654
      34A     -0.443529    35A     -0.425643    36A     -0.397915

  @DF-RHF Final Energy:  -439.11624770090106

   => Energetics <=

    Nuclear Repulsion Energy =            485.1519191971194687
    One-Electron Energy =               -1560.8020016441471398
    Two-Electron Energy =                 636.5338347461266721
    Total Energy =                       -439.1162477009009990
  Basis Set: (AUG-CC-PVTZ AUX)
    Blend: AUG-CC-PVTZ-RI
    Molecular point group: c1

    Geometry (in Angstrom), charge = 0, multiplicity = 1:

       Center              X                  Y                   Z               Mass
    ------------   -----------------  -----------------  -----------------  -----------------
         O           -2.897354829433    -0.356362233822    -0.254399057412    15.994914619570
         O           -0.583137829433    -1.522079233822     0.085381942588    15.994914619570
         N            0.664096170567     0.336184766178    -0.349532057412    14.003074004430
         C            1.951640170567    -0.315532233822    -0.127719057412    12.000000000000
         C           -1.788132829433     0.511826766178    -0.339338057412    12.000000000000
         C            2.308192170567    -0.320017233822     1.354561942588    12.000000000000
         C            3.006660170567     0.368014766178    -0.982736057412    12.000000000000
         C           -0.503839229433    -0.215765533822    -0.200563757412    12.000000000000
         C           -1.899654829433     1.584031766178     0.738233942588    12.000000000000
         H            1.817671170567    -1.348452233822    -0.460709057412     1.007825032230
         H            0.650269170567     1.343933766178    -0.460878057412     1.007825032230
         H           -1.769409829433     0.984867766178    -1.333684057412     1.007825032230
         H            2.408002170567     0.704719766178     1.726276942588     1.007825032230
         H            1.527078170567    -0.828431233822     1.924106942588     1.007825032230
         H            3.255515170567    -0.840900233822     1.523532942588     1.007825032230
         H            3.129885170567     1.414608766178    -0.681587057412     1.007825032230
         H            2.731017170567     0.339060766178    -2.039345057412     1.007825032230
         H            3.973319170567    -0.127174233822    -0.861437057412     1.007825032230
         H           -1.842635829433     1.116522766178     1.724011942588     1.007825032230
         H           -2.867635829433     2.079979766178     0.646218942588     1.007825032230
         H           -1.114624829433     2.342484766178     0.656284942588     1.007825032230
         H           -2.499589829433    -1.240515233822    -0.091892057412     1.007825032230

  Basis Set: AUG-CC-PVTZ
    Blend: AUG-CC-PVTZ
  Basis Set: (AUG-CC-PVTZ AUX)
    Blend: AUG-CC-PVTZ-JKFIT
	 Reference Energy          =    -439.1162477009010559 [Eh]
	 Singles Energy            =      -0.0000000000000000 [Eh]
	 Same-Spin Energy          =      -0.4481651812255746 [Eh]
	 Opposite-Spin Energy      =      -1.4676651922881567 [Eh]
	 Correlation Energy        =      -1.9158303735137312 [Eh]
	 Total Energy              =    -441.0320780744148124 [Eh]

	 ================> DF-SCS-MP2 Energies <==================
	-----------------------------------------------------------
	 SCS Same-Spin Scale       =       0.3333333333333333 [-]
	 SCS Opposite-Spin Scale   =       1.2000000000000000 [-]
	 SCS Same-Spin Energy      =      -0.1493883937418582 [Eh]
	 SCS Opposite-Spin Energy  =      -1.7611982307457881 [Eh]
	 SCS Correlation Energy    =      -1.9105866244876464 [Eh]
	 SCS Total Energy          =    -441.0268343253886769 [Eh]
	-----------------------------------------------------------

  Dipole Moment: [D]
     X:     3.9241      Y:     3.4532      Z:    -0.3100     Total:     5.2363

*** Psi4 exiting successfully. Buy a developer a beer!
