                               Psi4 1.3.2 release

  ==> Input File <==

--------------------------------------------------------------------------
#psi4
#
memory 32 gb

molecule  {
0 1
  O       -2.8968130    -0.3474360    -0.2563530
  O       -0.5825960    -1.5131530     0.0834280
  N        0.6646380     0.3451110    -0.3514860
  C        1.9521820    -0.3066060    -0.1296730
  C       -1.7875910     0.5207530    -0.3412920
  C        2.3087340    -0.3110910     1.3526080
  C        3.0072020     0.3769410    -0.9846900
  C       -0.5126105    -0.3115813    -0.1918733
  C       -1.9106708     1.5969412     0.7310384
  H        1.8182130    -1.3395260    -0.4626630
  H        0.6508110     1.3528600    -0.4628320
  H       -1.7688680     0.9937940    -1.3356380
  H        2.4085440     0.7136460     1.7243230
  H        1.5276200    -0.8195050     1.9221530
  H        3.2560570    -0.8319740     1.5215790
  H        3.1304270     1.4235350    -0.6835410
  H        2.7315590     0.3479870    -2.0412990
  H        3.9738610    -0.1182480    -0.8633910
  H       -1.8420940     1.1254490     1.7220580
  H       -2.8670940     2.0889060     0.6442650
  H       -1.1140830     2.3514110     0.6543310
  H       -2.4990480    -1.2315890    -0.0938460
units angstrom
no_reorient  #important for SAPT in psi4, default
symmetry c1  #important for SAPT in psi4, default
}

set PROPERTIES_ORIGIN ["COM"]
properties('MP2/aug-cc-pvtz', properties = ['dipole'])
--------------------------------------------------------------------------

    Molecular point group: c1
  Charge       = 0
  Multiplicity = 1
  Basis Set: AUG-CC-PVTZ
    Blend: AUG-CC-PVTZ
  Basis Set: (AUG-CC-PVTZ AUX)
    Blend: AUG-CC-PVTZ-JKFIT

    Orbital Energies [Eh]
    ---------------------

    Doubly Occupied:

       1A    -20.547744     2A    -20.533966     3A    -15.594718
       4A    -11.358793     5A    -11.297251     6A    -11.276767
       7A    -11.231929     8A    -11.230946     9A    -11.221892
      10A     -1.399782    11A     -1.346616    12A     -1.246764
      13A     -1.071354    14A     -1.023365    15A     -0.949463
      16A     -0.895484    17A     -0.821679    18A     -0.794018
      19A     -0.736541    20A     -0.678839    21A     -0.649299
      22A     -0.633469    23A     -0.628314    24A     -0.597117
      25A     -0.581918    26A     -0.568599    27A     -0.554746
      28A     -0.549233    29A     -0.538427    30A     -0.528980
      31A     -0.513262    32A     -0.502986    33A     -0.491501
      34A     -0.444660    35A     -0.435453    36A     -0.400968

  @DF-RHF Final Energy:  -439.13786514808879

   => Energetics <=

    Nuclear Repulsion Energy =            485.1934265152840453
    One-Electron Energy =               -1560.9089074531966617
    Two-Electron Energy =                 636.5776157898237670
    Total Energy =                       -439.1378651480888493
  Basis Set: (AUG-CC-PVTZ AUX)
    Blend: AUG-CC-PVTZ-RI
    Molecular point group: c1

    Geometry (in Angstrom), charge = 0, multiplicity = 1:

       Center              X                  Y                   Z               Mass
    ------------   -----------------  -----------------  -----------------  -----------------
         O           -2.895444371297    -0.347139082482    -0.254893613143    15.994914619570
         O           -0.581227371297    -1.512856082482     0.084887386857    15.994914619570
         N            0.666006628703     0.345407917518    -0.350026613143    14.003074004430
         C            1.953550628703    -0.306309082482    -0.128213613143    12.000000000000
         C           -1.786222371297     0.521049917518    -0.339832613143    12.000000000000
         C            2.310102628703    -0.310794082482     1.354067386857    12.000000000000
         C            3.008570628703     0.377237917518    -0.983230613143    12.000000000000
         C           -0.511241871297    -0.311284382482    -0.190413913143    12.000000000000
         C           -1.909302171297     1.597238117518     0.732497786857    12.000000000000
         H            1.819581628703    -1.339229082482    -0.461203613143     1.007825032230
         H            0.652179628703     1.353156917518    -0.461372613143     1.007825032230
         H           -1.767499371297     0.994090917518    -1.334178613143     1.007825032230
         H            2.409912628703     0.713942917518     1.725782386857     1.007825032230
         H            1.528988628703    -0.819208082482     1.923612386857     1.007825032230
         H            3.257425628703    -0.831677082482     1.523038386857     1.007825032230
         H            3.131795628703     1.423831917518    -0.682081613143     1.007825032230
         H            2.732927628703     0.348283917518    -2.039839613143     1.007825032230
         H            3.975229628703    -0.117951082482    -0.861931613143     1.007825032230
         H           -1.840725371297     1.125745917518     1.723517386857     1.007825032230
         H           -2.865725371297     2.089202917518     0.645724386857     1.007825032230
         H           -1.112714371297     2.351707917518     0.655790386857     1.007825032230
         H           -2.497679371297    -1.231292082482    -0.092386613143     1.007825032230

  Basis Set: AUG-CC-PVTZ
    Blend: AUG-CC-PVTZ
  Basis Set: (AUG-CC-PVTZ AUX)
    Blend: AUG-CC-PVTZ-JKFIT
	 Reference Energy          =    -439.1378651480887925 [Eh]
	 Singles Energy            =      -0.0000000000000000 [Eh]
	 Same-Spin Energy          =      -0.4459137188931470 [Eh]
	 Opposite-Spin Energy      =      -1.4634710668979503 [Eh]
	 Correlation Energy        =      -1.9093847857910973 [Eh]
	 Total Energy              =    -441.0472499338798684 [Eh]

	 ================> DF-SCS-MP2 Energies <==================
	-----------------------------------------------------------
	 SCS Same-Spin Scale       =       0.3333333333333333 [-]
	 SCS Opposite-Spin Scale   =       1.2000000000000000 [-]
	 SCS Same-Spin Energy      =      -0.1486379062977157 [Eh]
	 SCS Opposite-Spin Energy  =      -1.7561652802775403 [Eh]
	 SCS Correlation Energy    =      -1.9048031865752559 [Eh]
	 SCS Total Energy          =    -441.0426683346640289 [Eh]
	-----------------------------------------------------------

  Dipole Moment: [D]
     X:     3.5386      Y:     2.8834      Z:    -0.2258     Total:     4.5702

*** Psi4 exiting successfully. Buy a developer a beer!
