                               Psi4 1.3.2 release

  ==> Input File <==

--------------------------------------------------------------------------
#psi4
#
memory 32 gb

molecule  {
0 1
  O       -2.8834011    -0.3586694    -0.2103087
  O       -0.5825960    -1.5131530     0.0834280
  N        0.6646380     0.3451110    -0.3514860
  C        1.9521820    -0.3066060    -0.1296730
  C       -1.7875910     0.5207530    -0.3412920
  C        2.3087340    -0.3110910     1.3526080
  C        3.0072020     0.3769410    -0.9846900
  C       -0.5092170    -0.3043550    -0.1811720
  C       -1.8991130     1.5929580     0.7362800
  H        1.8182130    -1.3395260    -0.4626630
  H        0.6508110     1.3528600    -0.4628320
  H       -1.7370819     1.0127637    -1.3252720
  H        2.4085440     0.7136460     1.7243230
  H        1.5276200    -0.8195050     1.9221530
  H        3.2560570    -0.8319740     1.5215790
  H        3.1304270     1.4235350    -0.6835410
  H        2.7315590     0.3479870    -2.0412990
  H        3.9738610    -0.1182480    -0.8633910
  H       -1.8420940     1.1254490     1.7220580
  H       -2.8670940     2.0889060     0.6442650
  H       -1.1140830     2.3514110     0.6543310
  H       -2.4990480    -1.2315890    -0.0938460
units angstrom
no_reorient  #important for SAPT in psi4, default
symmetry c1  #important for SAPT in psi4, default
}

set PROPERTIES_ORIGIN ["COM"]
properties('MP2/aug-cc-pvtz', properties = ['dipole'])
--------------------------------------------------------------------------

    Molecular point group: c1
  Charge       = 0
  Multiplicity = 1
  Basis Set: AUG-CC-PVTZ
    Blend: AUG-CC-PVTZ
  Basis Set: (AUG-CC-PVTZ AUX)
    Blend: AUG-CC-PVTZ-JKFIT

    Orbital Energies [Eh]
    ---------------------

    Doubly Occupied:

       1A    -20.546953     2A    -20.531377     3A    -15.595141
       4A    -11.357308     5A    -11.298406     6A    -11.276879
       7A    -11.232106     8A    -11.230297     9A    -11.221921
      10A     -1.398151    11A     -1.348728    12A     -1.247481
      13A     -1.072463    14A     -1.024909    15A     -0.949580
      16A     -0.895196    17A     -0.822604    18A     -0.794722
      19A     -0.737337    20A     -0.682063    21A     -0.652325
      22A     -0.632255    23A     -0.628394    24A     -0.596616
      25A     -0.581519    26A     -0.567021    27A     -0.554888
      28A     -0.547900    29A     -0.539976    30A     -0.529917
      31A     -0.512208    32A     -0.502396    33A     -0.491009
      34A     -0.446854    35A     -0.433280    36A     -0.400848

  @DF-RHF Final Energy:  -439.13811364166872

   => Energetics <=

    Nuclear Repulsion Energy =            485.7599730736230867
    One-Electron Energy =               -1562.0341132669784656
    Two-Electron Energy =                 637.1360265516866548
    Total Energy =                       -439.1381136416687241
  Basis Set: (AUG-CC-PVTZ AUX)
    Blend: AUG-CC-PVTZ-RI
    Molecular point group: c1

    Geometry (in Angstrom), charge = 0, multiplicity = 1:

       Center              X                  Y                   Z               Mass
    ------------   -----------------  -----------------  -----------------  -----------------
         O           -2.885281823517    -0.357444588360    -0.216006254439    15.994914619570
         O           -0.584476723517    -1.511928188360     0.077730445561    15.994914619570
         N            0.662757276483     0.346335811640    -0.357183554439    14.003074004430
         C            1.950301276483    -0.305381188360    -0.135370554439    12.000000000000
         C           -1.789471723517     0.521977811640    -0.346989554439    12.000000000000
         C            2.306853276483    -0.309866188360     1.346910445561    12.000000000000
         C            3.005321276483     0.378165811640    -0.990387554439    12.000000000000
         C           -0.511097723517    -0.303130188360    -0.186869554439    12.000000000000
         C           -1.900993723517     1.594182811640     0.730582445561    12.000000000000
         H            1.816332276483    -1.338301188360    -0.468360554439     1.007825032230
         H            0.648930276483     1.354084811640    -0.468529554439     1.007825032230
         H           -1.738962623517     1.013988511640    -1.330969554439     1.007825032230
         H            2.406663276483     0.714870811640     1.718625445561     1.007825032230
         H            1.525739276483    -0.818280188360     1.916455445561     1.007825032230
         H            3.254176276483    -0.830749188360     1.515881445561     1.007825032230
         H            3.128546276483     1.424759811640    -0.689238554439     1.007825032230
         H            2.729678276483     0.349211811640    -2.046996554439     1.007825032230
         H            3.971980276483    -0.117023188360    -0.869088554439     1.007825032230
         H           -1.843974723517     1.126673811640     1.716360445561     1.007825032230
         H           -2.868974723517     2.090130811640     0.638567445561     1.007825032230
         H           -1.115963723517     2.352635811640     0.648633445561     1.007825032230
         H           -2.500928723517    -1.230364188360    -0.099543554439     1.007825032230

  Basis Set: AUG-CC-PVTZ
    Blend: AUG-CC-PVTZ
  Basis Set: (AUG-CC-PVTZ AUX)
    Blend: AUG-CC-PVTZ-JKFIT
	 Reference Energy          =    -439.1381136416687241 [Eh]
	 Singles Energy            =      -0.0000000000000000 [Eh]
	 Same-Spin Energy          =      -0.4457576480056443 [Eh]
	 Opposite-Spin Energy      =      -1.4629530326737703 [Eh]
	 Correlation Energy        =      -1.9087106806794145 [Eh]
	 Total Energy              =    -441.0468243223481295 [Eh]

	 ================> DF-SCS-MP2 Energies <==================
	-----------------------------------------------------------
	 SCS Same-Spin Scale       =       0.3333333333333333 [-]
	 SCS Opposite-Spin Scale   =       1.2000000000000000 [-]
	 SCS Same-Spin Energy      =      -0.1485858826685481 [Eh]
	 SCS Opposite-Spin Energy  =      -1.7555436392085244 [Eh]
	 SCS Correlation Energy    =      -1.9041295218770724 [Eh]
	 SCS Total Energy          =    -441.0422431635457770 [Eh]
	-----------------------------------------------------------

  Dipole Moment: [D]
     X:     3.5251      Y:     2.9263      Z:    -0.3163     Total:     4.5923

*** Psi4 exiting successfully. Buy a developer a beer!
