                               Psi4 1.3.2 release

  ==> Input File <==

--------------------------------------------------------------------------
#psi4
#
memory 32 gb

molecule  {
0 1
  O       -2.8968130    -0.3474360    -0.2563530
  O       -0.5717961    -1.5137674     0.0833953
  N        0.6646380     0.3451110    -0.3514860
  C        1.9521820    -0.3066060    -0.1296730
  C       -1.7802104     0.5315992    -0.3437699
  C        2.3087340    -0.3110910     1.3526080
  C        3.0072020     0.3769410    -0.9846900
  C       -0.5092170    -0.3043550    -0.1811720
  C       -1.8991130     1.5929580     0.7362800
  H        1.8182130    -1.3395260    -0.4626630
  H        0.6508110     1.3528600    -0.4628320
  H       -1.7688680     0.9937940    -1.3356380
  H        2.4085440     0.7136460     1.7243230
  H        1.5276200    -0.8195050     1.9221530
  H        3.2560570    -0.8319740     1.5215790
  H        3.1304270     1.4235350    -0.6835410
  H        2.7315590     0.3479870    -2.0412990
  H        3.9738610    -0.1182480    -0.8633910
  H       -1.8420940     1.1254490     1.7220580
  H       -2.8670940     2.0889060     0.6442650
  H       -1.1140830     2.3514110     0.6543310
  H       -2.4990480    -1.2315890    -0.0938460
units angstrom
no_reorient  #important for SAPT in psi4, default
symmetry c1  #important for SAPT in psi4, default
}

set PROPERTIES_ORIGIN ["COM"]
properties('MP2/aug-cc-pvtz', properties = ['dipole'])
--------------------------------------------------------------------------

    Molecular point group: c1
  Charge       = 0
  Multiplicity = 1
  Basis Set: AUG-CC-PVTZ
    Blend: AUG-CC-PVTZ
  Basis Set: (AUG-CC-PVTZ AUX)
    Blend: AUG-CC-PVTZ-JKFIT

    Orbital Energies [Eh]
    ---------------------

    Doubly Occupied:

       1A    -20.547139     2A    -20.532523     3A    -15.595237
       4A    -11.358547     5A    -11.297734     6A    -11.276843
       7A    -11.232117     8A    -11.231371     9A    -11.222042
      10A     -1.396011    11A     -1.342257    12A     -1.247505
      13A     -1.072711    14A     -1.025359    15A     -0.949637
      16A     -0.895772    17A     -0.822254    18A     -0.794868
      19A     -0.734869    20A     -0.678642    21A     -0.649444
      22A     -0.632205    23A     -0.628451    24A     -0.596907
      25A     -0.580778    26A     -0.567778    27A     -0.554832
      28A     -0.548326    29A     -0.538239    30A     -0.530234
      31A     -0.512193    32A     -0.502548    33A     -0.491131
      34A     -0.446743    35A     -0.434914    36A     -0.401174

  @DF-RHF Final Energy:  -439.13735505683178

   => Energetics <=

    Nuclear Repulsion Energy =            485.2428937810833531
    One-Electron Energy =               -1561.0218306135750481
    Two-Electron Energy =                 636.6415817756598017
    Total Energy =                       -439.1373550568317796
  Basis Set: (AUG-CC-PVTZ AUX)
    Blend: AUG-CC-PVTZ-RI
    Molecular point group: c1

    Geometry (in Angstrom), charge = 0, multiplicity = 1:

       Center              X                  Y                   Z               Mass
    ------------   -----------------  -----------------  -----------------  -----------------
         O           -2.898806265547    -0.348353810546    -0.256122168180    15.994914619570
         O           -0.573789365547    -1.514685210546     0.083626131820    15.994914619570
         N            0.662644734453     0.344193189454    -0.351255168180    14.003074004430
         C            1.950188734453    -0.307523810546    -0.129442168180    12.000000000000
         C           -1.782203665547     0.530681389454    -0.343539068180    12.000000000000
         C            2.306740734453    -0.312008810546     1.352838831820    12.000000000000
         C            3.005208734453     0.376023189454    -0.984459168180    12.000000000000
         C           -0.511210265547    -0.305272810546    -0.180941168180    12.000000000000
         C           -1.901106265547     1.592040189454     0.736510831820    12.000000000000
         H            1.816219734453    -1.340443810546    -0.462432168180     1.007825032230
         H            0.648817734453     1.351942189454    -0.462601168180     1.007825032230
         H           -1.770861265547     0.992876189454    -1.335407168180     1.007825032230
         H            2.406550734453     0.712728189454     1.724553831820     1.007825032230
         H            1.525626734453    -0.820422810546     1.922383831820     1.007825032230
         H            3.254063734453    -0.832891810546     1.521809831820     1.007825032230
         H            3.128433734453     1.422617189454    -0.683310168180     1.007825032230
         H            2.729565734453     0.347069189454    -2.041068168180     1.007825032230
         H            3.971867734453    -0.119165810546    -0.863160168180     1.007825032230
         H           -1.844087265547     1.124531189454     1.722288831820     1.007825032230
         H           -2.869087265547     2.087988189454     0.644495831820     1.007825032230
         H           -1.116076265547     2.350493189454     0.654561831820     1.007825032230
         H           -2.501041265547    -1.232506810546    -0.093615168180     1.007825032230

  Basis Set: AUG-CC-PVTZ
    Blend: AUG-CC-PVTZ
  Basis Set: (AUG-CC-PVTZ AUX)
    Blend: AUG-CC-PVTZ-JKFIT
	 Reference Energy          =    -439.1373550568317796 [Eh]
	 Singles Energy            =      -0.0000000000000000 [Eh]
	 Same-Spin Energy          =      -0.4460624269778211 [Eh]
	 Opposite-Spin Energy      =      -1.4639051202942250 [Eh]
	 Correlation Energy        =      -1.9099675472720461 [Eh]
	 Total Energy              =    -441.0473226041038401 [Eh]

	 ================> DF-SCS-MP2 Energies <==================
	-----------------------------------------------------------
	 SCS Same-Spin Scale       =       0.3333333333333333 [-]
	 SCS Opposite-Spin Scale   =       1.2000000000000000 [-]
	 SCS Same-Spin Energy      =      -0.1486874756592737 [Eh]
	 SCS Opposite-Spin Energy  =      -1.7566861443530699 [Eh]
	 SCS Correlation Energy    =      -1.9053736200123437 [Eh]
	 SCS Total Energy          =    -441.0427286768441490 [Eh]
	-----------------------------------------------------------

  Dipole Moment: [D]
     X:     3.5664      Y:     2.9528      Z:    -0.2252     Total:     4.6356

*** Psi4 exiting successfully. Buy a developer a beer!
