                               Psi4 1.4a3.dev225

  ==> Input File <==

--------------------------------------------------------------------------
#psi4
#
memory 32 gb

molecule  {
0 1
  O       -1.7446660    -1.3796590    -0.7880960
  O       -0.4296620     1.7569970     0.2600660
  N        0.4723820    -0.3330750    -0.0012650
  C        1.8394770     0.0732600     0.3013020
  C       -1.9099390    -0.0103690    -0.3967440
  C        2.4958720     0.7244850    -0.9128940
  C        2.6145980    -1.1365250     0.8043010
  C       -0.5442740     0.5588710    -0.0269710
  C       -2.8608870     0.1360220     0.7815810
  H        1.7638430     0.8203410     1.0982830
  H        0.2750420    -1.2730860    -0.3263580
  H       -2.2722210     0.5864250    -1.2458220
  H        2.5570320     0.0100450    -1.7401110
  H        1.9072700     1.5874400    -1.2316560
  H        3.5085800     1.0627310    -0.6705710
  H        2.6773940    -1.9046250     0.0252330
  H        2.1327900    -1.5715010     1.6841320
  H        3.6348850    -0.8497170     1.0733550
  H       -2.5011890    -0.4705790     1.6169940
  H       -3.8694610    -0.1962540     0.5126420
  H       -2.9055320     1.1820880     1.0905810
  H       -2.6113566    -1.7374376    -0.9535770
units angstrom
no_reorient  #important for SAPT in psi4, default
symmetry c1  #important for SAPT in psi4, default
}

set PROPERTIES_ORIGIN ["COM"]
properties('MP2/aug-cc-pvtz', properties = ['dipole'])
--------------------------------------------------------------------------

    Molecular point group: c1
  Charge       = 0
  Multiplicity = 1
  Basis Set: AUG-CC-PVTZ
    Blend: AUG-CC-PVTZ
  Basis Set: (AUG-CC-PVTZ AUX)
    Blend: AUG-CC-PVTZ-JKFIT

    Orbital Energies [Eh]
    ---------------------

    Doubly Occupied:

       1A    -20.579266     2A    -20.509411     3A    -15.575705
       4A    -11.343033     5A    -11.301298     6A    -11.264009
       7A    -11.229094     8A    -11.221385     9A    -11.209327
      10A     -1.391370    11A     -1.359795    12A     -1.227989
      13A     -1.058237    14A     -1.028847    15A     -0.937191
      16A     -0.898046    17A     -0.813877    18A     -0.778255
      19A     -0.715031    20A     -0.691506    21A     -0.644702
      22A     -0.641477    23A     -0.614382    24A     -0.594691
      25A     -0.578518    26A     -0.563659    27A     -0.551722
      28A     -0.542421    29A     -0.526398    30A     -0.520688
      31A     -0.517317    32A     -0.491112    33A     -0.480294
      34A     -0.459580    35A     -0.413926    36A     -0.382604

  @DF-RHF Final Energy:  -439.13884785704107

   => Energetics <=

    Nuclear Repulsion Energy =            486.0573486676995572
    One-Electron Energy =               -1563.0800703147403965
    Two-Electron Energy =                 637.8838737899995976
    Total Energy =                       -439.1388478570411280
  Basis Set: (AUG-CC-PVTZ AUX)
    Blend: AUG-CC-PVTZ-RI
    Molecular point group: c1

    Geometry (in Angstrom), charge = 0, multiplicity = 1:

       Center              X                  Y                   Z               Mass
    ------------   -----------------  -----------------  -----------------  -----------------
         O           -1.712517272838    -1.400595498267    -0.781107293206    15.994914619570
         O           -0.397513272838     1.736060501733     0.267054706794    15.994914619570
         N            0.504530727162    -0.354011498267     0.005723706794    14.003074004430
         C            1.871625727162     0.052323501733     0.308290706794    12.000000000000
         C           -1.877790272838    -0.031305498267    -0.389755293206    12.000000000000
         C            2.528020727162     0.703548501733    -0.905905293206    12.000000000000
         C            2.646746727162    -1.157461498267     0.811289706794    12.000000000000
         C           -0.512125272838     0.537934501733    -0.019982293206    12.000000000000
         C           -2.828738272838     0.115085501733     0.788569706794    12.000000000000
         H            1.795991727162     0.799404501733     1.105271706794     1.007825032230
         H            0.307190727162    -1.294022498267    -0.319369293206     1.007825032230
         H           -2.240072272838     0.565488501733    -1.238833293206     1.007825032230
         H            2.589180727162    -0.010891498267    -1.733122293206     1.007825032230
         H            1.939418727162     1.566503501733    -1.224667293206     1.007825032230
         H            3.540728727162     1.041794501733    -0.663582293206     1.007825032230
         H            2.709542727162    -1.925561498267     0.032221706794     1.007825032230
         H            2.164938727162    -1.592437498267     1.691120706794     1.007825032230
         H            3.667033727162    -0.870653498267     1.080343706794     1.007825032230
         H           -2.469040272838    -0.491515498267     1.623982706794     1.007825032230
         H           -3.837312272838    -0.217190498267     0.519630706794     1.007825032230
         H           -2.873383272838     1.161151501733     1.097569706794     1.007825032230
         H           -2.579207872838    -1.758374098267    -0.946588293206     1.007825032230

  Basis Set: AUG-CC-PVTZ
    Blend: AUG-CC-PVTZ
  Basis Set: (AUG-CC-PVTZ AUX)
    Blend: AUG-CC-PVTZ-JKFIT
	 Reference Energy          =    -439.1388478570410712 [Eh]
	 Singles Energy            =      -0.0000000000000000 [Eh]
	 Same-Spin Energy          =      -0.4452569859545138 [Eh]
	 Opposite-Spin Energy      =      -1.4628511168065927 [Eh]
	 Correlation Energy        =      -1.9081081027611067 [Eh]
	 Total Energy              =    -441.0469559598021760 [Eh]

	 ================> DF-SCS-MP2 Energies <==================
	-----------------------------------------------------------
	 SCS Same-Spin Scale       =       0.3333333333333333 [-]
	 SCS Opposite-Spin Scale   =       1.2000000000000000 [-]
	 SCS Same-Spin Energy      =      -0.1484189953181713 [Eh]
	 SCS Opposite-Spin Energy  =      -1.7554213401679113 [Eh]
	 SCS Correlation Energy    =      -1.9038403354860824 [Eh]
	 SCS Total Energy          =    -441.0426881925271800 [Eh]
	-----------------------------------------------------------

  Dipole Moment: [D]
     X:    -0.6573      Y:    -2.8659      Z:    -0.4588     Total:     2.9759

*** Psi4 exiting successfully. Buy a developer a beer!
