                               Psi4 1.3.2 release

  ==> Input File <==

--------------------------------------------------------------------------
#psi4
#
memory 32 gb

molecule  {
0 1
  O       -2.8968130    -0.3474360    -0.2563530
  O       -0.6041783    -1.5116482     0.0834329
  N        0.6646380     0.3451110    -0.3514860
  C        1.9521820    -0.3066060    -0.1296730
  C       -1.8020595     0.4988730    -0.3362999
  C        2.3087340    -0.3110910     1.3526080
  C        3.0072020     0.3769410    -0.9846900
  C       -0.5092170    -0.3043550    -0.1811720
  C       -1.8991130     1.5929580     0.7362800
  H        1.8182130    -1.3395260    -0.4626630
  H        0.6508110     1.3528600    -0.4628320
  H       -1.7688680     0.9937940    -1.3356380
  H        2.4085440     0.7136460     1.7243230
  H        1.5276200    -0.8195050     1.9221530
  H        3.2560570    -0.8319740     1.5215790
  H        3.1304270     1.4235350    -0.6835410
  H        2.7315590     0.3479870    -2.0412990
  H        3.9738610    -0.1182480    -0.8633910
  H       -1.8420940     1.1254490     1.7220580
  H       -2.8670940     2.0889060     0.6442650
  H       -1.1140830     2.3514110     0.6543310
  H       -2.4990480    -1.2315890    -0.0938460
units angstrom
no_reorient  #important for SAPT in psi4, default
symmetry c1  #important for SAPT in psi4, default
}

set PROPERTIES_ORIGIN ["COM"]
properties('MP2/aug-cc-pvtz', properties = ['dipole'])
--------------------------------------------------------------------------

    Molecular point group: c1
  Charge       = 0
  Multiplicity = 1
  Basis Set: AUG-CC-PVTZ
    Blend: AUG-CC-PVTZ
  Basis Set: (AUG-CC-PVTZ AUX)
    Blend: AUG-CC-PVTZ-JKFIT

    Orbital Energies [Eh]
    ---------------------

    Doubly Occupied:

       1A    -20.549157     2A    -20.532420     3A    -15.596713
       4A    -11.357841     5A    -11.296758     6A    -11.278006
       7A    -11.232746     8A    -11.229557     9A    -11.222678
      10A     -1.400461    11A     -1.352571    12A     -1.248953
      13A     -1.071468    14A     -1.020717    15A     -0.950314
      16A     -0.893470    17A     -0.822677    18A     -0.795234
      19A     -0.740116    20A     -0.679287    21A     -0.649635
      22A     -0.632851    23A     -0.629578    24A     -0.597580
      25A     -0.584117    26A     -0.567009    27A     -0.555660
      28A     -0.547708    29A     -0.541251    30A     -0.530217
      31A     -0.512433    32A     -0.503241    33A     -0.492264
      34A     -0.440725    35A     -0.433100    36A     -0.401917

  @DF-RHF Final Energy:  -439.13747691676787

   => Energetics <=

    Nuclear Repulsion Energy =            485.4461435146210420
    One-Electron Energy =               -1561.3863785640805872
    Two-Electron Energy =                 636.8027581326916788
    Total Energy =                       -439.1374769167678096
  Basis Set: (AUG-CC-PVTZ AUX)
    Blend: AUG-CC-PVTZ-RI
    Molecular point group: c1

    Geometry (in Angstrom), charge = 0, multiplicity = 1:

       Center              X                  Y                   Z               Mass
    ------------   -----------------  -----------------  -----------------  -----------------
         O           -2.892855299195    -0.345616719175    -0.256810536648    15.994914619570
         O           -0.600220599195    -1.509828919175     0.082975363352    15.994914619570
         N            0.668595700805     0.346930280825    -0.351943536648    14.003074004430
         C            1.956139700805    -0.304786719175    -0.130130536648    12.000000000000
         C           -1.798101799195     0.500692280825    -0.336757436648    12.000000000000
         C            2.312691700805    -0.309271719175     1.352150463352    12.000000000000
         C            3.011159700805     0.378760280825    -0.985147536648    12.000000000000
         C           -0.505259299195    -0.302535719175    -0.181629536648    12.000000000000
         C           -1.895155299195     1.594777280825     0.735822463352    12.000000000000
         H            1.822170700805    -1.337706719175    -0.463120536648     1.007825032230
         H            0.654768700805     1.354679280825    -0.463289536648     1.007825032230
         H           -1.764910299195     0.995613280825    -1.336095536648     1.007825032230
         H            2.412501700805     0.715465280825     1.723865463352     1.007825032230
         H            1.531577700805    -0.817685719175     1.921695463352     1.007825032230
         H            3.260014700805    -0.830154719175     1.521121463352     1.007825032230
         H            3.134384700805     1.425354280825    -0.683998536648     1.007825032230
         H            2.735516700805     0.349806280825    -2.041756536648     1.007825032230
         H            3.977818700805    -0.116428719175    -0.863848536648     1.007825032230
         H           -1.838136299195     1.127268280825     1.721600463352     1.007825032230
         H           -2.863136299195     2.090725280825     0.643807463352     1.007825032230
         H           -1.110125299195     2.353230280825     0.653873463352     1.007825032230
         H           -2.495090299195    -1.229769719175    -0.094303536648     1.007825032230

  Basis Set: AUG-CC-PVTZ
    Blend: AUG-CC-PVTZ
  Basis Set: (AUG-CC-PVTZ AUX)
    Blend: AUG-CC-PVTZ-JKFIT
	 Reference Energy          =    -439.1374769167678664 [Eh]
	 Singles Energy            =      -0.0000000000000000 [Eh]
	 Same-Spin Energy          =      -0.4460117354305907 [Eh]
	 Opposite-Spin Energy      =      -1.4632234959008725 [Eh]
	 Correlation Energy        =      -1.9092352313314631 [Eh]
	 Total Energy              =    -441.0467121480993455 [Eh]

	 ================> DF-SCS-MP2 Energies <==================
	-----------------------------------------------------------
	 SCS Same-Spin Scale       =       0.3333333333333333 [-]
	 SCS Opposite-Spin Scale   =       1.2000000000000000 [-]
	 SCS Same-Spin Energy      =      -0.1486705784768635 [Eh]
	 SCS Opposite-Spin Energy  =      -1.7558681950810471 [Eh]
	 SCS Correlation Energy    =      -1.9045387735579107 [Eh]
	 SCS Total Energy          =    -441.0420156903257976 [Eh]
	-----------------------------------------------------------

  Dipole Moment: [D]
     X:     3.5966      Y:     2.8404      Z:    -0.2229     Total:     4.5884

*** Psi4 exiting successfully. Buy a developer a beer!
