                               Psi4 1.3.2 release

  ==> Input File <==

--------------------------------------------------------------------------
#psi4
#
memory 32 gb

molecule  {
0 1
  O       -2.8968130    -0.3474360    -0.2563530
  O       -0.5825960    -1.5131530     0.0834280
  N        0.6646380     0.3451110    -0.3514860
  C        1.9521820    -0.3066060    -0.1296730
  C       -1.7875910     0.5207530    -0.3412920
  C        2.3087340    -0.3110910     1.3526080
  C        3.0072020     0.3769410    -0.9846900
  C       -0.4853955    -0.3450251    -0.1786168
  C       -1.8991130     1.5929580     0.7362800
  H        1.8182130    -1.3395260    -0.4626630
  H        0.6860827     1.3524033    -0.4657201
  H       -1.7688680     0.9937940    -1.3356380
  H        2.4085440     0.7136460     1.7243230
  H        1.5276200    -0.8195050     1.9221530
  H        3.2560570    -0.8319740     1.5215790
  H        3.1304270     1.4235350    -0.6835410
  H        2.7315590     0.3479870    -2.0412990
  H        3.9738610    -0.1182480    -0.8633910
  H       -1.8420940     1.1254490     1.7220580
  H       -2.8670940     2.0889060     0.6442650
  H       -1.1140830     2.3514110     0.6543310
  H       -2.4990480    -1.2315890    -0.0938460
units angstrom
no_reorient  #important for SAPT in psi4, default
symmetry c1  #important for SAPT in psi4, default
}

set PROPERTIES_ORIGIN ["COM"]
properties('MP2/aug-cc-pvtz', properties = ['dipole'])
--------------------------------------------------------------------------

    Molecular point group: c1
  Charge       = 0
  Multiplicity = 1
  Basis Set: AUG-CC-PVTZ
    Blend: AUG-CC-PVTZ
  Basis Set: (AUG-CC-PVTZ AUX)
    Blend: AUG-CC-PVTZ-JKFIT

    Orbital Energies [Eh]
    ---------------------

    Doubly Occupied:

       1A    -20.546136     2A    -20.538535     3A    -15.592840
       4A    -11.356213     5A    -11.294360     6A    -11.275432
       7A    -11.232033     8A    -11.227680     9A    -11.222268
      10A     -1.416796    11A     -1.348267    12A     -1.251002
      13A     -1.068272    14A     -1.018764    15A     -0.949958
      16A     -0.886873    17A     -0.819038    18A     -0.799655
      19A     -0.733599    20A     -0.680503    21A     -0.648478
      22A     -0.638180    23A     -0.628605    24A     -0.602457
      25A     -0.580520    26A     -0.565282    27A     -0.555563
      28A     -0.547260    29A     -0.541824    30A     -0.531331
      31A     -0.516339    32A     -0.505481    33A     -0.492703
      34A     -0.442981    35A     -0.427787    36A     -0.403354

  @DF-RHF Final Energy:  -439.13762991260620

   => Energetics <=

    Nuclear Repulsion Energy =            485.4688344719377824
    One-Electron Energy =               -1561.4401942551894535
    Two-Electron Energy =                 636.8337298706455840
    Total Energy =                       -439.1376299126061440
  Basis Set: (AUG-CC-PVTZ AUX)
    Blend: AUG-CC-PVTZ-RI
    Molecular point group: c1

    Geometry (in Angstrom), charge = 0, multiplicity = 1:

       Center              X                  Y                   Z               Mass
    ------------   -----------------  -----------------  -----------------  -----------------
         O           -2.899264675052    -0.343709618756    -0.256564669408    15.994914619570
         O           -0.585047675052    -1.509426618756     0.083216330592    15.994914619570
         N            0.662186324948     0.348837381244    -0.351697669408    14.003074004430
         C            1.949730324948    -0.302879618756    -0.129884669408    12.000000000000
         C           -1.790042675052     0.524479381244    -0.341503669408    12.000000000000
         C            2.306282324948    -0.307364618756     1.352396330592    12.000000000000
         C            3.004750324948     0.380667381244    -0.984901669408    12.000000000000
         C           -0.487847175052    -0.341298718756    -0.178828469408    12.000000000000
         C           -1.901564675052     1.596684381244     0.736068330592    12.000000000000
         H            1.815761324948    -1.335799618756    -0.462874669408     1.007825032230
         H            0.683631024948     1.356129681244    -0.465931769408     1.007825032230
         H           -1.771319675052     0.997520381244    -1.335849669408     1.007825032230
         H            2.406092324948     0.717372381244     1.724111330592     1.007825032230
         H            1.525168324948    -0.815778618756     1.921941330592     1.007825032230
         H            3.253605324948    -0.828247618756     1.521367330592     1.007825032230
         H            3.127975324948     1.427261381244    -0.683752669408     1.007825032230
         H            2.729107324948     0.351713381244    -2.041510669408     1.007825032230
         H            3.971409324948    -0.114521618756    -0.863602669408     1.007825032230
         H           -1.844545675052     1.129175381244     1.721846330592     1.007825032230
         H           -2.869545675052     2.092632381244     0.644053330592     1.007825032230
         H           -1.116534675052     2.355137381244     0.654119330592     1.007825032230
         H           -2.501499675052    -1.227862618756    -0.094057669408     1.007825032230

  Basis Set: AUG-CC-PVTZ
    Blend: AUG-CC-PVTZ
  Basis Set: (AUG-CC-PVTZ AUX)
    Blend: AUG-CC-PVTZ-JKFIT
	 Reference Energy          =    -439.1376299126062008 [Eh]
	 Singles Energy            =      -0.0000000000000000 [Eh]
	 Same-Spin Energy          =      -0.4451878375490645 [Eh]
	 Opposite-Spin Energy      =      -1.4620317216149294 [Eh]
	 Correlation Energy        =      -1.9072195591639940 [Eh]
	 Total Energy              =    -441.0448494717701919 [Eh]

	 ================> DF-SCS-MP2 Energies <==================
	-----------------------------------------------------------
	 SCS Same-Spin Scale       =       0.3333333333333333 [-]
	 SCS Opposite-Spin Scale   =       1.2000000000000000 [-]
	 SCS Same-Spin Energy      =      -0.1483959458496882 [Eh]
	 SCS Opposite-Spin Energy  =      -1.7544380659379153 [Eh]
	 SCS Correlation Energy    =      -1.9028340117876035 [Eh]
	 SCS Total Energy          =    -441.0404639243938050 [Eh]
	-----------------------------------------------------------

  Dipole Moment: [D]
     X:     3.6436      Y:     2.7036      Z:    -0.2101     Total:     4.5419

*** Psi4 exiting successfully. Buy a developer a beer!
