                               Psi4 1.3.2 release

  ==> Input File <==

--------------------------------------------------------------------------
#psi4
#
memory 32 gb

molecule  {
0 1
  O       -2.9053850    -0.3342786    -0.2373798
  O       -0.5825960    -1.5131530     0.0834280
  N        0.6646380     0.3451110    -0.3514860
  C        1.9521820    -0.3066060    -0.1296730
  C       -1.7875910     0.5207530    -0.3412920
  C        2.3087340    -0.3110910     1.3526080
  C        3.0072020     0.3769410    -0.9846900
  C       -0.5092170    -0.3043550    -0.1811720
  C       -1.9219557     1.5820421     0.7444490
  H        1.8182130    -1.3395260    -0.4626630
  H        0.6508110     1.3528600    -0.4628320
  H       -1.7688680     0.9937940    -1.3356380
  H        2.4085440     0.7136460     1.7243230
  H        1.5276200    -0.8195050     1.9221530
  H        3.2560570    -0.8319740     1.5215790
  H        3.1304270     1.4235350    -0.6835410
  H        2.7315590     0.3479870    -2.0412990
  H        3.9738610    -0.1182480    -0.8633910
  H       -1.8420940     1.1254490     1.7220580
  H       -2.8670940     2.0889060     0.6442650
  H       -1.1140830     2.3514110     0.6543310
  H       -2.4990480    -1.2315890    -0.0938460
units angstrom
no_reorient  #important for SAPT in psi4, default
symmetry c1  #important for SAPT in psi4, default
}

set PROPERTIES_ORIGIN ["COM"]
properties('MP2/aug-cc-pvtz', properties = ['dipole'])
--------------------------------------------------------------------------

    Molecular point group: c1
  Charge       = 0
  Multiplicity = 1
  Basis Set: AUG-CC-PVTZ
    Blend: AUG-CC-PVTZ
  Basis Set: (AUG-CC-PVTZ AUX)
    Blend: AUG-CC-PVTZ-JKFIT

    Orbital Energies [Eh]
    ---------------------

    Doubly Occupied:

       1A    -20.548305     2A    -20.533233     3A    -15.596072
       4A    -11.359020     5A    -11.296929     6A    -11.277441
       7A    -11.232447     8A    -11.230156     9A    -11.222384
      10A     -1.397059    11A     -1.344498    12A     -1.248284
      13A     -1.071980    14A     -1.022688    15A     -0.949994
      16A     -0.895428    17A     -0.821925    18A     -0.795105
      19A     -0.735266    20A     -0.678581    21A     -0.649498
      22A     -0.632410    23A     -0.628873    24A     -0.596841
      25A     -0.581143    26A     -0.567317    27A     -0.555162
      28A     -0.549348    29A     -0.537855    30A     -0.528399
      31A     -0.512667    32A     -0.503069    33A     -0.491773
      34A     -0.443969    35A     -0.435472    36A     -0.401755

  @DF-RHF Final Energy:  -439.13587865011095

   => Energetics <=

    Nuclear Repulsion Energy =            485.1489906941955041
    One-Electron Energy =               -1560.8250472600329886
    Two-Electron Energy =                 636.5401779157264173
    Total Energy =                       -439.1358786501109535
  Basis Set: (AUG-CC-PVTZ AUX)
    Blend: AUG-CC-PVTZ-RI
    Molecular point group: c1

    Geometry (in Angstrom), charge = 0, multiplicity = 1:

       Center              X                  Y                   Z               Mass
    ------------   -----------------  -----------------  -----------------  -----------------
         O           -2.902248143182    -0.334884678210    -0.240442471141    15.994914619570
         O           -0.579459143182    -1.513759078210     0.080365328859    15.994914619570
         N            0.667774856818     0.344504921790    -0.354548671141    14.003074004430
         C            1.955318856818    -0.307212078210    -0.132735671141    12.000000000000
         C           -1.784454143182     0.520146921790    -0.344354671141    12.000000000000
         C            2.311870856818    -0.311697078210     1.349545328859    12.000000000000
         C            3.010338856818     0.376334921790    -0.987752671141    12.000000000000
         C           -0.506080143182    -0.304961078210    -0.184234671141    12.000000000000
         C           -1.918818843182     1.581436021790     0.741386328859    12.000000000000
         H            1.821349856818    -1.340132078210    -0.465725671141     1.007825032230
         H            0.653947856818     1.352253921790    -0.465894671141     1.007825032230
         H           -1.765731143182     0.993187921790    -1.338700671141     1.007825032230
         H            2.411680856818     0.713039921790     1.721260328859     1.007825032230
         H            1.530756856818    -0.820111078210     1.919090328859     1.007825032230
         H            3.259193856818    -0.832580078210     1.518516328859     1.007825032230
         H            3.133563856818     1.422928921790    -0.686603671141     1.007825032230
         H            2.734695856818     0.347380921790    -2.044361671141     1.007825032230
         H            3.976997856818    -0.118854078210    -0.866453671141     1.007825032230
         H           -1.838957143182     1.124842921790     1.718995328859     1.007825032230
         H           -2.863957143182     2.088299921790     0.641202328859     1.007825032230
         H           -1.110946143182     2.350804921790     0.651268328859     1.007825032230
         H           -2.495911143182    -1.232195078210    -0.096908671141     1.007825032230

  Basis Set: AUG-CC-PVTZ
    Blend: AUG-CC-PVTZ
  Basis Set: (AUG-CC-PVTZ AUX)
    Blend: AUG-CC-PVTZ-JKFIT
	 Reference Energy          =    -439.1358786501109535 [Eh]
	 Singles Energy            =      -0.0000000000000000 [Eh]
	 Same-Spin Energy          =      -0.4462351337383199 [Eh]
	 Opposite-Spin Energy      =      -1.4641352657046707 [Eh]
	 Correlation Energy        =      -1.9103703994429906 [Eh]
	 Total Energy              =    -441.0462490495539214 [Eh]

	 ================> DF-SCS-MP2 Energies <==================
	-----------------------------------------------------------
	 SCS Same-Spin Scale       =       0.3333333333333333 [-]
	 SCS Opposite-Spin Scale   =       1.2000000000000000 [-]
	 SCS Same-Spin Energy      =      -0.1487450445794400 [Eh]
	 SCS Opposite-Spin Energy  =      -1.7569623188456047 [Eh]
	 SCS Correlation Energy    =      -1.9057073634250448 [Eh]
	 SCS Total Energy          =    -441.0415860135360049 [Eh]
	-----------------------------------------------------------

  Dipole Moment: [D]
     X:     3.5946      Y:     2.8716      Z:    -0.2638     Total:     4.6084

*** Psi4 exiting successfully. Buy a developer a beer!
