                               Psi4 1.4a3.dev225

  ==> Input File <==

--------------------------------------------------------------------------
#psi4
#
memory 32 gb

molecule  {
0 1
  O       -1.7446660    -1.3796590    -0.7880960
  O       -0.4296620     1.7569970     0.2600660
  N        0.4723820    -0.3330750    -0.0012650
  C        1.8394770     0.0732600     0.3013020
  C       -1.9122446     0.0087328    -0.3912846
  C        2.4958720     0.7244850    -0.9128940
  C        2.6145980    -1.1365250     0.8043010
  C       -0.5442740     0.5588710    -0.0269710
  C       -2.8608870     0.1360220     0.7815810
  H        1.7638430     0.8203410     1.0982830
  H        0.2750420    -1.2730860    -0.3263580
  H       -2.2722210     0.5864250    -1.2458220
  H        2.5570320     0.0100450    -1.7401110
  H        1.9072700     1.5874400    -1.2316560
  H        3.5085800     1.0627310    -0.6705710
  H        2.6773940    -1.9046250     0.0252330
  H        2.1327900    -1.5715010     1.6841320
  H        3.6348850    -0.8497170     1.0733550
  H       -2.5011890    -0.4705790     1.6169940
  H       -3.8694610    -0.1962540     0.5126420
  H       -2.9055320     1.1820880     1.0905810
  H       -2.6295620    -1.7449530    -0.9570530
units angstrom
no_reorient  #important for SAPT in psi4, default
symmetry c1  #important for SAPT in psi4, default
}

set PROPERTIES_ORIGIN ["COM"]
properties('MP2/aug-cc-pvtz', properties = ['dipole'])
--------------------------------------------------------------------------

    Molecular point group: c1
  Charge       = 0
  Multiplicity = 1
  Basis Set: AUG-CC-PVTZ
    Blend: AUG-CC-PVTZ
  Basis Set: (AUG-CC-PVTZ AUX)
    Blend: AUG-CC-PVTZ-JKFIT

    Orbital Energies [Eh]
    ---------------------

    Doubly Occupied:

       1A    -20.578406     2A    -20.509517     3A    -15.575997
       4A    -11.343234     5A    -11.301191     6A    -11.264191
       7A    -11.229402     8A    -11.221435     9A    -11.209398
      10A     -1.382318    11A     -1.357073    12A     -1.227979
      13A     -1.058540    14A     -1.030382    15A     -0.937253
      16A     -0.897917    17A     -0.813933    18A     -0.777870
      19A     -0.710133    20A     -0.688427    21A     -0.643981
      22A     -0.639592    23A     -0.613999    24A     -0.594568
      25A     -0.578454    26A     -0.564325    27A     -0.550598
      28A     -0.542464    29A     -0.523755    30A     -0.521137
      31A     -0.517200    32A     -0.491096    33A     -0.480316
      34A     -0.461480    35A     -0.414935    36A     -0.382680

  @DF-RHF Final Energy:  -439.13729117033688

   => Energetics <=

    Nuclear Repulsion Energy =            485.8462599442904661
    One-Electron Energy =               -1562.6967556486522426
    Two-Electron Energy =                 637.7132045340248396
    Total Energy =                       -439.1372911703368800
  Basis Set: (AUG-CC-PVTZ AUX)
    Blend: AUG-CC-PVTZ-RI
    Molecular point group: c1

    Geometry (in Angstrom), charge = 0, multiplicity = 1:

       Center              X                  Y                   Z               Mass
    ------------   -----------------  -----------------  -----------------  -----------------
         O           -1.712166266406    -1.402286241770    -0.781580307248    15.994914619570
         O           -0.397162266406     1.734369758230     0.266581692752    15.994914619570
         N            0.504881733594    -0.355702241770     0.005250692752    14.003074004430
         C            1.871976733594     0.050632758230     0.307817692752    12.000000000000
         C           -1.879744866406    -0.013894441770    -0.384768907248    12.000000000000
         C            2.528371733594     0.701857758230    -0.906378307248    12.000000000000
         C            2.647097733594    -1.159152241770     0.810816692752    12.000000000000
         C           -0.511774266406     0.536243758230    -0.020455307248    12.000000000000
         C           -2.828387266406     0.113394758230     0.788096692752    12.000000000000
         H            1.796342733594     0.797713758230     1.104798692752     1.007825032230
         H            0.307541733594    -1.295713241770    -0.319842307248     1.007825032230
         H           -2.239721266406     0.563797758230    -1.239306307248     1.007825032230
         H            2.589531733594    -0.012582241770    -1.733595307248     1.007825032230
         H            1.939769733594     1.564812758230    -1.225140307248     1.007825032230
         H            3.541079733594     1.040103758230    -0.664055307248     1.007825032230
         H            2.709893733594    -1.927252241770     0.031748692752     1.007825032230
         H            2.165289733594    -1.594128241770     1.690647692752     1.007825032230
         H            3.667384733594    -0.872344241770     1.079870692752     1.007825032230
         H           -2.468689266406    -0.493206241770     1.623509692752     1.007825032230
         H           -3.836961266406    -0.218881241770     0.519157692752     1.007825032230
         H           -2.873032266406     1.159460758230     1.097096692752     1.007825032230
         H           -2.597062266406    -1.767580241770    -0.950537307248     1.007825032230

  Basis Set: AUG-CC-PVTZ
    Blend: AUG-CC-PVTZ
  Basis Set: (AUG-CC-PVTZ AUX)
    Blend: AUG-CC-PVTZ-JKFIT
	 Reference Energy          =    -439.1372911703368800 [Eh]
	 Singles Energy            =      -0.0000000000000000 [Eh]
	 Same-Spin Energy          =      -0.4455458391521319 [Eh]
	 Opposite-Spin Energy      =      -1.4637710370500532 [Eh]
	 Correlation Energy        =      -1.9093168762021850 [Eh]
	 Total Energy              =    -441.0466080465390633 [Eh]

	 ================> DF-SCS-MP2 Energies <==================
	-----------------------------------------------------------
	 SCS Same-Spin Scale       =       0.3333333333333333 [-]
	 SCS Opposite-Spin Scale   =       1.2000000000000000 [-]
	 SCS Same-Spin Energy      =      -0.1485152797173773 [Eh]
	 SCS Opposite-Spin Energy  =      -1.7565252444600639 [Eh]
	 SCS Correlation Energy    =      -1.9050405241774411 [Eh]
	 SCS Total Energy          =    -441.0423316945143029 [Eh]
	-----------------------------------------------------------

  Dipole Moment: [D]
     X:    -0.6721      Y:    -2.8108      Z:    -0.4357     Total:     2.9227

*** Psi4 exiting successfully. Buy a developer a beer!
