                               Psi4 1.3.2 release

  ==> Input File <==

--------------------------------------------------------------------------
#psi4
#
memory 32 gb

molecule  {
0 1
  O       -2.8968130    -0.3474360    -0.2563530
  O       -0.5825960    -1.5131530     0.0834280
  N        0.6743080     0.3668347    -0.3423257
  C        1.9521820    -0.3066060    -0.1296730
  C       -1.7875910     0.5207530    -0.3412920
  C        2.3087340    -0.3110910     1.3526080
  C        3.0072020     0.3769410    -0.9846900
  C       -0.5092170    -0.3043550    -0.1811720
  C       -1.8991130     1.5929580     0.7362800
  H        1.8363474    -1.3432078    -0.4579911
  H        0.6508110     1.3528600    -0.4628320
  H       -1.7688680     0.9937940    -1.3356380
  H        2.4085440     0.7136460     1.7243230
  H        1.5276200    -0.8195050     1.9221530
  H        3.2560570    -0.8319740     1.5215790
  H        3.1304270     1.4235350    -0.6835410
  H        2.7315590     0.3479870    -2.0412990
  H        3.9738610    -0.1182480    -0.8633910
  H       -1.8420940     1.1254490     1.7220580
  H       -2.8670940     2.0889060     0.6442650
  H       -1.1140830     2.3514110     0.6543310
  H       -2.4990480    -1.2315890    -0.0938460
units angstrom
no_reorient  #important for SAPT in psi4, default
symmetry c1  #important for SAPT in psi4, default
}

set PROPERTIES_ORIGIN ["COM"]
properties('MP2/aug-cc-pvtz', properties = ['dipole'])
--------------------------------------------------------------------------

    Molecular point group: c1
  Charge       = 0
  Multiplicity = 1
  Basis Set: AUG-CC-PVTZ
    Blend: AUG-CC-PVTZ
  Basis Set: (AUG-CC-PVTZ AUX)
    Blend: AUG-CC-PVTZ-JKFIT

    Orbital Energies [Eh]
    ---------------------

    Doubly Occupied:

       1A    -20.548356     2A    -20.535927     3A    -15.593736
       4A    -11.361237     5A    -11.297772     6A    -11.276661
       7A    -11.231307     8A    -11.230978     9A    -11.221224
      10A     -1.397621    11A     -1.346175    12A     -1.246993
      13A     -1.070933    14A     -1.023823    15A     -0.949130
      16A     -0.894677    17A     -0.821973    18A     -0.795882
      19A     -0.736095    20A     -0.680117    21A     -0.651048
      22A     -0.634689    23A     -0.627121    24A     -0.596838
      25A     -0.581805    26A     -0.567672    27A     -0.554509
      28A     -0.546954    29A     -0.539135    30A     -0.529715
      31A     -0.514414    32A     -0.502599    33A     -0.490333
      34A     -0.445414    35A     -0.435297    36A     -0.401139

  @DF-RHF Final Energy:  -439.13706568109131

   => Energetics <=

    Nuclear Repulsion Energy =            485.0253135899047265
    One-Electron Energy =               -1560.5661610484273751
    Two-Electron Energy =                 636.4037817774313908
    Total Energy =                       -439.1370656810912578
  Basis Set: (AUG-CC-PVTZ AUX)
    Blend: AUG-CC-PVTZ-RI
    Molecular point group: c1

    Geometry (in Angstrom), charge = 0, multiplicity = 1:

       Center              X                  Y                   Z               Mass
    ------------   -----------------  -----------------  -----------------  -----------------
         O           -2.897985296362    -0.349728091445    -0.257367365271    15.994914619570
         O           -0.583768296362    -1.515445091445     0.082413634729    15.994914619570
         N            0.673135703638     0.364542608555    -0.343340065271    14.003074004430
         C            1.951009703638    -0.308898091445    -0.130687365271    12.000000000000
         C           -1.788763296362     0.518460908555    -0.342306365271    12.000000000000
         C            2.307561703638    -0.313383091445     1.351593634729    12.000000000000
         C            3.006029703638     0.374648908555    -0.985704365271    12.000000000000
         C           -0.510389296362    -0.306647091445    -0.182186365271    12.000000000000
         C           -1.900285296362     1.590665908555     0.735265634729    12.000000000000
         H            1.835175103638    -1.345499891445    -0.459005465271     1.007825032230
         H            0.649638703638     1.350567908555    -0.463846365271     1.007825032230
         H           -1.770040296362     0.991501908555    -1.336652365271     1.007825032230
         H            2.407371703638     0.711353908555     1.723308634729     1.007825032230
         H            1.526447703638    -0.821797091445     1.921138634729     1.007825032230
         H            3.254884703638    -0.834266091445     1.520564634729     1.007825032230
         H            3.129254703638     1.421242908555    -0.684555365271     1.007825032230
         H            2.730386703638     0.345694908555    -2.042313365271     1.007825032230
         H            3.972688703638    -0.120540091445    -0.864405365271     1.007825032230
         H           -1.843266296362     1.123156908555     1.721043634729     1.007825032230
         H           -2.868266296362     2.086613908555     0.643250634729     1.007825032230
         H           -1.115255296362     2.349118908555     0.653316634729     1.007825032230
         H           -2.500220296362    -1.233881091445    -0.094860365271     1.007825032230

  Basis Set: AUG-CC-PVTZ
    Blend: AUG-CC-PVTZ
  Basis Set: (AUG-CC-PVTZ AUX)
    Blend: AUG-CC-PVTZ-JKFIT
	 Reference Energy          =    -439.1370656810913147 [Eh]
	 Singles Energy            =      -0.0000000000000000 [Eh]
	 Same-Spin Energy          =      -0.4459536357276967 [Eh]
	 Opposite-Spin Energy      =      -1.4636679619371100 [Eh]
	 Correlation Energy        =      -1.9096215976648068 [Eh]
	 Total Energy              =    -441.0466872787561101 [Eh]

	 ================> DF-SCS-MP2 Energies <==================
	-----------------------------------------------------------
	 SCS Same-Spin Scale       =       0.3333333333333333 [-]
	 SCS Opposite-Spin Scale   =       1.2000000000000000 [-]
	 SCS Same-Spin Energy      =      -0.1486512119092322 [Eh]
	 SCS Opposite-Spin Energy  =      -1.7564015543245319 [Eh]
	 SCS Correlation Energy    =      -1.9050527662337642 [Eh]
	 SCS Total Energy          =    -441.0421184473250946 [Eh]
	-----------------------------------------------------------

  Dipole Moment: [D]
     X:     3.4941      Y:     2.8569      Z:    -0.2356     Total:     4.5195

*** Psi4 exiting successfully. Buy a developer a beer!
