                               Psi4 1.4a3.dev225

  ==> Input File <==

--------------------------------------------------------------------------
#psi4
#
memory 32 gb

molecule  {
0 1
  O       -1.7446660    -1.3796590    -0.7880960
  O       -0.4296620     1.7569970     0.2600660
  N        0.4723820    -0.3330750    -0.0012650
  C        1.8394770     0.0732600     0.3013020
  C       -1.9099390    -0.0103690    -0.3967440
  C        2.4958720     0.7244850    -0.9128940
  C        2.6145980    -1.1365250     0.8043010
  C       -0.5442740     0.5588710    -0.0269710
  C       -2.8608870     0.1360220     0.7815810
  H        1.7638430     0.8203410     1.0982830
  H        0.2750420    -1.2730860    -0.3263580
  H       -2.2722210     0.5864250    -1.2458220
  H        2.5570320     0.0100450    -1.7401110
  H        1.9072700     1.5874400    -1.2316560
  H        3.5085800     1.0627310    -0.6705710
  H        2.6773940    -1.9046250     0.0252330
  H        2.1327900    -1.5715010     1.6841320
  H        3.6348850    -0.8497170     1.0733550
  H       -2.5011890    -0.4705790     1.6169940
  H       -3.8694610    -0.1962540     0.5126420
  H       -2.9055320     1.1820880     1.0905810
  H       -2.6750755    -1.7637414    -0.9657431
units angstrom
no_reorient  #important for SAPT in psi4, default
symmetry c1  #important for SAPT in psi4, default
}

set PROPERTIES_ORIGIN ["COM"]
properties('MP2/aug-cc-pvtz', properties = ['dipole'])
--------------------------------------------------------------------------

    Molecular point group: c1
  Charge       = 0
  Multiplicity = 1
  Basis Set: AUG-CC-PVTZ
    Blend: AUG-CC-PVTZ
  Basis Set: (AUG-CC-PVTZ AUX)
    Blend: AUG-CC-PVTZ-JKFIT

    Orbital Energies [Eh]
    ---------------------

    Doubly Occupied:

       1A    -20.584974     2A    -20.509207     3A    -15.575519
       4A    -11.342802     5A    -11.300446     6A    -11.263855
       7A    -11.228580     8A    -11.221246     9A    -11.209182
      10A     -1.380919    11A     -1.355477    12A     -1.227523
      13A     -1.056351    14A     -1.027115    15A     -0.937048
      16A     -0.895260    17A     -0.813169    18A     -0.776911
      19A     -0.706496    20A     -0.686575    21A     -0.643992
      22A     -0.638393    23A     -0.613653    24A     -0.594054
      25A     -0.578100    26A     -0.561779    27A     -0.550966
      28A     -0.542251    29A     -0.524713    30A     -0.520229
      31A     -0.516813    32A     -0.490771    33A     -0.479873
      34A     -0.458225    35A     -0.413225    36A     -0.382406

  @DF-RHF Final Energy:  -439.13277461919108

   => Energetics <=

    Nuclear Repulsion Energy =            485.6099647697499790
    One-Electron Energy =               -1562.2692831899416888
    Two-Electron Energy =                 637.5265438010006847
    Total Energy =                       -439.1327746191910819
  Basis Set: (AUG-CC-PVTZ AUX)
    Blend: AUG-CC-PVTZ-RI
    Molecular point group: c1

    Geometry (in Angstrom), charge = 0, multiplicity = 1:

       Center              X                  Y                   Z               Mass
    ------------   -----------------  -----------------  -----------------  -----------------
         O           -1.712027416746    -1.400393280767    -0.781013763057    15.994914619570
         O           -0.397023416746     1.736262719233     0.267148236943    15.994914619570
         N            0.505020583254    -0.353809280767     0.005817236943    14.003074004430
         C            1.872115583254     0.052525719233     0.308384236943    12.000000000000
         C           -1.877300416746    -0.031103280767    -0.389661763057    12.000000000000
         C            2.528510583254     0.703750719233    -0.905811763057    12.000000000000
         C            2.647236583254    -1.157259280767     0.811383236943    12.000000000000
         C           -0.511635416746     0.538136719233    -0.019888763057    12.000000000000
         C           -2.828248416746     0.115287719233     0.788663236943    12.000000000000
         H            1.796481583254     0.799606719233     1.105365236943     1.007825032230
         H            0.307680583254    -1.293820280767    -0.319275763057     1.007825032230
         H           -2.239582416746     0.565690719233    -1.238739763057     1.007825032230
         H            2.589670583254    -0.010689280767    -1.733028763057     1.007825032230
         H            1.939908583254     1.566705719233    -1.224573763057     1.007825032230
         H            3.541218583254     1.041996719233    -0.663488763057     1.007825032230
         H            2.710032583254    -1.925359280767     0.032315236943     1.007825032230
         H            2.165428583254    -1.592235280767     1.691214236943     1.007825032230
         H            3.667523583254    -0.870451280767     1.080437236943     1.007825032230
         H           -2.468550416746    -0.491313280767     1.624076236943     1.007825032230
         H           -3.836822416746    -0.216988280767     0.519724236943     1.007825032230
         H           -2.872893416746     1.161353719233     1.097663236943     1.007825032230
         H           -2.642436916746    -1.784475680767    -0.958660863057     1.007825032230

  Basis Set: AUG-CC-PVTZ
    Blend: AUG-CC-PVTZ
  Basis Set: (AUG-CC-PVTZ AUX)
    Blend: AUG-CC-PVTZ-JKFIT
	 Reference Energy          =    -439.1327746191910819 [Eh]
	 Singles Energy            =      -0.0000000000000000 [Eh]
	 Same-Spin Energy          =      -0.4460939449399962 [Eh]
	 Opposite-Spin Energy      =      -1.4650585888515510 [Eh]
	 Correlation Energy        =      -1.9111525337915471 [Eh]
	 Total Energy              =    -441.0439271529826328 [Eh]

	 ================> DF-SCS-MP2 Energies <==================
	-----------------------------------------------------------
	 SCS Same-Spin Scale       =       0.3333333333333333 [-]
	 SCS Opposite-Spin Scale   =       1.2000000000000000 [-]
	 SCS Same-Spin Energy      =      -0.1486979816466654 [Eh]
	 SCS Opposite-Spin Energy  =      -1.7580703066218613 [Eh]
	 SCS Correlation Energy    =      -1.9067682882685266 [Eh]
	 SCS Total Energy          =    -441.0395429074596336 [Eh]
	-----------------------------------------------------------

  Dipole Moment: [D]
     X:    -0.7001      Y:    -2.8971      Z:    -0.4739     Total:     3.0179

*** Psi4 exiting successfully. Buy a developer a beer!
