                               Psi4 1.3.2 release

  ==> Input File <==

--------------------------------------------------------------------------
#psi4
#
memory 32 gb

molecule  {
0 1
  O       -2.8786580    -0.3729536    -0.2943713
  O       -0.5825960    -1.5131530     0.0834280
  N        0.6646380     0.3451110    -0.3514860
  C        1.9521820    -0.3066060    -0.1296730
  C       -1.7875910     0.5207530    -0.3412920
  C        2.3087340    -0.3110910     1.3526080
  C        3.0072020     0.3769410    -0.9846900
  C       -0.5092170    -0.3043550    -0.1811720
  C       -1.8533328     1.6138067     0.7189598
  H        1.8182130    -1.3395260    -0.4626630
  H        0.6508110     1.3528600    -0.4628320
  H       -1.7688680     0.9937940    -1.3356380
  H        2.4085440     0.7136460     1.7243230
  H        1.5276200    -0.8195050     1.9221530
  H        3.2560570    -0.8319740     1.5215790
  H        3.1304270     1.4235350    -0.6835410
  H        2.7315590     0.3479870    -2.0412990
  H        3.9738610    -0.1182480    -0.8633910
  H       -1.8420940     1.1254490     1.7220580
  H       -2.8670940     2.0889060     0.6442650
  H       -1.1140830     2.3514110     0.6543310
  H       -2.4990480    -1.2315890    -0.0938460
units angstrom
no_reorient  #important for SAPT in psi4, default
symmetry c1  #important for SAPT in psi4, default
}

set PROPERTIES_ORIGIN ["COM"]
properties('MP2/aug-cc-pvtz', properties = ['dipole'])
--------------------------------------------------------------------------

    Molecular point group: c1
  Charge       = 0
  Multiplicity = 1
  Basis Set: AUG-CC-PVTZ
    Blend: AUG-CC-PVTZ
  Basis Set: (AUG-CC-PVTZ AUX)
    Blend: AUG-CC-PVTZ-JKFIT

    Orbital Energies [Eh]
    ---------------------

    Doubly Occupied:

       1A    -20.547215     2A    -20.531060     3A    -15.595028
       4A    -11.356868     5A    -11.298566     6A    -11.276803
       7A    -11.232817     8A    -11.232071     9A    -11.221971
      10A     -1.397907    11A     -1.348482    12A     -1.247394
      13A     -1.072935    14A     -1.026277    15A     -0.949581
      16A     -0.894826    17A     -0.823643    18A     -0.794861
      19A     -0.738951    20A     -0.679592    21A     -0.650131
      22A     -0.633134    23A     -0.628866    24A     -0.598190
      25A     -0.584730    26A     -0.571250    27A     -0.554830
      28A     -0.548539    29A     -0.536355    30A     -0.530383
      31A     -0.510758    32A     -0.502160    33A     -0.490903
      34A     -0.446352    35A     -0.431883    36A     -0.400809

  @DF-RHF Final Energy:  -439.13513766166204

   => Energetics <=

    Nuclear Repulsion Energy =            485.6535311221229563
    One-Electron Energy =               -1561.8050953977294739
    Two-Electron Energy =                 637.0164266139444180
    Total Energy =                       -439.1351376616620428
  Basis Set: (AUG-CC-PVTZ AUX)
    Blend: AUG-CC-PVTZ-RI
    Molecular point group: c1

    Geometry (in Angstrom), charge = 0, multiplicity = 1:

       Center              X                  Y                   Z               Mass
    ------------   -----------------  -----------------  -----------------  -----------------
         O           -2.885063646149    -0.371748558065    -0.288147209441    15.994914619570
         O           -0.589001646149    -1.511947958065     0.089652090559    15.994914619570
         N            0.658232353851     0.346316041935    -0.345261909441    14.003074004430
         C            1.945776353851    -0.305400958065    -0.123448909441    12.000000000000
         C           -1.793996646149     0.521958041935    -0.335067909441    12.000000000000
         C            2.302328353851    -0.309885958065     1.358832090559    12.000000000000
         C            3.000796353851     0.378146041935    -0.978465909441    12.000000000000
         C           -0.515622646149    -0.303149958065    -0.174947909441    12.000000000000
         C           -1.859738446149     1.615011741935     0.725183890559    12.000000000000
         H            1.811807353851    -1.338320958065    -0.456438909441     1.007825032230
         H            0.644405353851     1.354065041935    -0.456607909441     1.007825032230
         H           -1.775273646149     0.994999041935    -1.329413909441     1.007825032230
         H            2.402138353851     0.714851041935     1.730547090559     1.007825032230
         H            1.521214353851    -0.818299958065     1.928377090559     1.007825032230
         H            3.249651353851    -0.830768958065     1.527803090559     1.007825032230
         H            3.124021353851     1.424740041935    -0.677316909441     1.007825032230
         H            2.725153353851     0.349192041935    -2.035074909441     1.007825032230
         H            3.967455353851    -0.117042958065    -0.857166909441     1.007825032230
         H           -1.848499646149     1.126654041935     1.728282090559     1.007825032230
         H           -2.873499646149     2.090111041935     0.650489090559     1.007825032230
         H           -1.120488646149     2.352616041935     0.660555090559     1.007825032230
         H           -2.505453646149    -1.230383958065    -0.087621909441     1.007825032230

  Basis Set: AUG-CC-PVTZ
    Blend: AUG-CC-PVTZ
  Basis Set: (AUG-CC-PVTZ AUX)
    Blend: AUG-CC-PVTZ-JKFIT
	 Reference Energy          =    -439.1351376616620428 [Eh]
	 Singles Energy            =      -0.0000000000000000 [Eh]
	 Same-Spin Energy          =      -0.4457683290781600 [Eh]
	 Opposite-Spin Energy      =      -1.4630449204958811 [Eh]
	 Correlation Energy        =      -1.9088132495740411 [Eh]
	 Total Energy              =    -441.0439509112360952 [Eh]

	 ================> DF-SCS-MP2 Energies <==================
	-----------------------------------------------------------
	 SCS Same-Spin Scale       =       0.3333333333333333 [-]
	 SCS Opposite-Spin Scale   =       1.2000000000000000 [-]
	 SCS Same-Spin Energy      =      -0.1485894430260533 [Eh]
	 SCS Opposite-Spin Energy  =      -1.7556539045950572 [Eh]
	 SCS Correlation Energy    =      -1.9042433476211105 [Eh]
	 SCS Total Energy          =    -441.0393810092831473 [Eh]
	-----------------------------------------------------------

  Dipole Moment: [D]
     X:     3.5305      Y:     2.9921      Z:    -0.1493     Total:     4.6303

*** Psi4 exiting successfully. Buy a developer a beer!
