                               Psi4 1.4a3.dev225

  ==> Input File <==

--------------------------------------------------------------------------
#psi4
#
memory 32 gb

molecule  {
0 1
  O       -1.7446660    -1.3796590    -0.7880960
  O       -0.4296620     1.7569970     0.2600660
  N        0.4723820    -0.3330750    -0.0012650
  C        1.8394770     0.0732600     0.3013020
  C       -1.9099390    -0.0103690    -0.3967440
  C        2.4958720     0.7244850    -0.9128940
  C        2.6145980    -1.1365250     0.8043010
  C       -0.5621837     0.5514058    -0.0318203
  C       -2.8608870     0.1360220     0.7815810
  H        1.7638430     0.8203410     1.0982830
  H        0.2750420    -1.2730860    -0.3263580
  H       -2.2722210     0.5864250    -1.2458220
  H        2.5570320     0.0100450    -1.7401110
  H        1.9072700     1.5874400    -1.2316560
  H        3.5085800     1.0627310    -0.6705710
  H        2.6773940    -1.9046250     0.0252330
  H        2.1327900    -1.5715010     1.6841320
  H        3.6348850    -0.8497170     1.0733550
  H       -2.5011890    -0.4705790     1.6169940
  H       -3.8694610    -0.1962540     0.5126420
  H       -2.9055320     1.1820880     1.0905810
  H       -2.6295620    -1.7449530    -0.9570530
units angstrom
no_reorient  #important for SAPT in psi4, default
symmetry c1  #important for SAPT in psi4, default
}

set PROPERTIES_ORIGIN ["COM"]
properties('MP2/aug-cc-pvtz', properties = ['dipole'])
--------------------------------------------------------------------------

    Molecular point group: c1
  Charge       = 0
  Multiplicity = 1
  Basis Set: AUG-CC-PVTZ
    Blend: AUG-CC-PVTZ
  Basis Set: (AUG-CC-PVTZ AUX)
    Blend: AUG-CC-PVTZ-JKFIT

    Orbital Energies [Eh]
    ---------------------

    Doubly Occupied:

       1A    -20.582220     2A    -20.508707     3A    -15.575410
       4A    -11.344363     5A    -11.302225     6A    -11.263658
       7A    -11.230321     8A    -11.220973     9A    -11.208678
      10A     -1.388559    11A     -1.353780    12A     -1.224073
      13A     -1.058916    14A     -1.029829    15A     -0.936555
      16A     -0.901236    17A     -0.813674    18A     -0.774838
      19A     -0.713765    20A     -0.691976    21A     -0.645290
      22A     -0.640138    23A     -0.613805    24A     -0.592217
      25A     -0.576800    26A     -0.564154    27A     -0.551899
      28A     -0.541861    29A     -0.526664    30A     -0.519406
      31A     -0.516688    32A     -0.490328    33A     -0.479704
      34A     -0.459312    35A     -0.415481    36A     -0.380661

  @DF-RHF Final Energy:  -439.13625541489529

   => Energetics <=

    Nuclear Repulsion Energy =            485.8467617856580887
    One-Electron Energy =               -1562.6897079148884586
    Two-Electron Energy =                 637.7066907143350818
    Total Energy =                       -439.1362554148952313
  Basis Set: (AUG-CC-PVTZ AUX)
    Blend: AUG-CC-PVTZ-RI
    Molecular point group: c1

    Geometry (in Angstrom), charge = 0, multiplicity = 1:

       Center              X                  Y                   Z               Mass
    ------------   -----------------  -----------------  -----------------  -----------------
         O           -1.710737914979    -1.399854380120    -0.780636680486    15.994914619570
         O           -0.395733914979     1.736801619880     0.267525319514    15.994914619570
         N            0.506310085021    -0.353270380120     0.006194319514    14.003074004430
         C            1.873405085021     0.053064619880     0.308761319514    12.000000000000
         C           -1.876010914979    -0.030564380120    -0.389284680486    12.000000000000
         C            2.529800085021     0.704289619880    -0.905434680486    12.000000000000
         C            2.648526085021    -1.156720380120     0.811760319514    12.000000000000
         C           -0.528255614979     0.531210419880    -0.024360980486    12.000000000000
         C           -2.826958914979     0.115826619880     0.789040319514    12.000000000000
         H            1.797771085021     0.800145619880     1.105742319514     1.007825032230
         H            0.308970085021    -1.293281380120    -0.318898680486     1.007825032230
         H           -2.238292914979     0.566229619880    -1.238362680486     1.007825032230
         H            2.590960085021    -0.010150380120    -1.732651680486     1.007825032230
         H            1.941198085021     1.567244619880    -1.224196680486     1.007825032230
         H            3.542508085021     1.042535619880    -0.663111680486     1.007825032230
         H            2.711322085021    -1.924820380120     0.032692319514     1.007825032230
         H            2.166718085021    -1.591696380120     1.691591319514     1.007825032230
         H            3.668813085021    -0.869912380120     1.080814319514     1.007825032230
         H           -2.467260914979    -0.490774380120     1.624453319514     1.007825032230
         H           -3.835532914979    -0.216449380120     0.520101319514     1.007825032230
         H           -2.871603914979     1.161892619880     1.098040319514     1.007825032230
         H           -2.595633914979    -1.765148380120    -0.949593680486     1.007825032230

  Basis Set: AUG-CC-PVTZ
    Blend: AUG-CC-PVTZ
  Basis Set: (AUG-CC-PVTZ AUX)
    Blend: AUG-CC-PVTZ-JKFIT
	 Reference Energy          =    -439.1362554148952881 [Eh]
	 Singles Energy            =      -0.0000000000000000 [Eh]
	 Same-Spin Energy          =      -0.4458355940926776 [Eh]
	 Opposite-Spin Energy      =      -1.4641274879638702 [Eh]
	 Correlation Energy        =      -1.9099630820565476 [Eh]
	 Total Energy              =    -441.0462184969518376 [Eh]

	 ================> DF-SCS-MP2 Energies <==================
	-----------------------------------------------------------
	 SCS Same-Spin Scale       =       0.3333333333333333 [-]
	 SCS Opposite-Spin Scale   =       1.2000000000000000 [-]
	 SCS Same-Spin Energy      =      -0.1486118646975592 [Eh]
	 SCS Opposite-Spin Energy  =      -1.7569529855566441 [Eh]
	 SCS Correlation Energy    =      -1.9055648502542033 [Eh]
	 SCS Total Energy          =    -441.0418202651495108 [Eh]
	-----------------------------------------------------------

  Dipole Moment: [D]
     X:    -0.7602      Y:    -2.9045      Z:    -0.4757     Total:     3.0398

*** Psi4 exiting successfully. Buy a developer a beer!
