                               Psi4 1.3.2 release

  ==> Input File <==

--------------------------------------------------------------------------
#psi4
#
memory 32 gb

molecule  {
0 1
  O       -2.8968130    -0.3474360    -0.2563530
  O       -0.5825960    -1.5131530     0.0834280
  N        0.6646380     0.3451110    -0.3514860
  C        1.9521820    -0.3066060    -0.1296730
  C       -1.7875910     0.5207530    -0.3412920
  C        2.3087340    -0.3110910     1.3526080
  C        3.0072020     0.3769410    -0.9846900
  C       -0.5161010    -0.3187442    -0.2025859
  C       -1.9222191     1.6008425     0.7257151
  H        1.8182130    -1.3395260    -0.4626630
  H        0.6508110     1.3528600    -0.4628320
  H       -1.7688680     0.9937940    -1.3356380
  H        2.4085440     0.7136460     1.7243230
  H        1.5276200    -0.8195050     1.9221530
  H        3.2560570    -0.8319740     1.5215790
  H        3.1304270     1.4235350    -0.6835410
  H        2.7315590     0.3479870    -2.0412990
  H        3.9738610    -0.1182480    -0.8633910
  H       -1.8420940     1.1254490     1.7220580
  H       -2.8670940     2.0889060     0.6442650
  H       -1.1140830     2.3514110     0.6543310
  H       -2.4990480    -1.2315890    -0.0938460
units angstrom
no_reorient  #important for SAPT in psi4, default
symmetry c1  #important for SAPT in psi4, default
}

set PROPERTIES_ORIGIN ["COM"]
properties('MP2/aug-cc-pvtz', properties = ['dipole'])
--------------------------------------------------------------------------

    Molecular point group: c1
  Charge       = 0
  Multiplicity = 1
  Basis Set: AUG-CC-PVTZ
    Blend: AUG-CC-PVTZ
  Basis Set: (AUG-CC-PVTZ AUX)
    Blend: AUG-CC-PVTZ-JKFIT

    Orbital Energies [Eh]
    ---------------------

    Doubly Occupied:

       1A    -20.547697     2A    -20.535475     3A    -15.593718
       4A    -11.359359     5A    -11.297213     6A    -11.276303
       7A    -11.231530     8A    -11.231195     9A    -11.221534
      10A     -1.402412    11A     -1.347433    12A     -1.245444
      13A     -1.070457    14A     -1.022908    15A     -0.949064
      16A     -0.896034    17A     -0.820997    18A     -0.793050
      19A     -0.736627    20A     -0.678858    21A     -0.649238
      22A     -0.634515    23A     -0.627783    24A     -0.597206
      25A     -0.582624    26A     -0.569515    27A     -0.554397
      28A     -0.550216    29A     -0.537907    30A     -0.527336
      31A     -0.513906    32A     -0.503172    33A     -0.491417
      34A     -0.444510    35A     -0.436331    36A     -0.400435

  @DF-RHF Final Energy:  -439.13715180834976

   => Energetics <=

    Nuclear Repulsion Energy =            485.0790596034787541
    One-Electron Energy =               -1560.6767857275676761
    Two-Electron Energy =                 636.4605743157392226
    Total Energy =                       -439.1371518083496994
  Basis Set: (AUG-CC-PVTZ AUX)
    Blend: AUG-CC-PVTZ-RI
    Molecular point group: c1

    Geometry (in Angstrom), charge = 0, multiplicity = 1:

       Center              X                  Y                   Z               Mass
    ------------   -----------------  -----------------  -----------------  -----------------
         O           -2.894067765696    -0.346840525628    -0.253425736069    15.994914619570
         O           -0.579850765696    -1.512557525628     0.086355263931    15.994914619570
         N            0.667383234304     0.345706474372    -0.348558736069    14.003074004430
         C            1.954927234304    -0.306010525628    -0.126745736069    12.000000000000
         C           -1.784845765696     0.521348474372    -0.338364736069    12.000000000000
         C            2.311479234304    -0.310495525628     1.355535263931    12.000000000000
         C            3.009947234304     0.377536474372    -0.981762736069    12.000000000000
         C           -0.513355765696    -0.318148725628    -0.199658636069    12.000000000000
         C           -1.919473865696     1.601437974372     0.728642363931    12.000000000000
         H            1.820958234304    -1.338930525628    -0.459735736069     1.007825032230
         H            0.653556234304     1.353455474372    -0.459904736069     1.007825032230
         H           -1.766122765696     0.994389474372    -1.332710736069     1.007825032230
         H            2.411289234304     0.714241474372     1.727250263931     1.007825032230
         H            1.530365234304    -0.818909525628     1.925080263931     1.007825032230
         H            3.258802234304    -0.831378525628     1.524506263931     1.007825032230
         H            3.133172234304     1.424130474372    -0.680613736069     1.007825032230
         H            2.734304234304     0.348582474372    -2.038371736069     1.007825032230
         H            3.976606234304    -0.117652525628    -0.860463736069     1.007825032230
         H           -1.839348765696     1.126044474372     1.724985263931     1.007825032230
         H           -2.864348765696     2.089501474372     0.647192263931     1.007825032230
         H           -1.111337765696     2.352006474372     0.657258263931     1.007825032230
         H           -2.496302765696    -1.230993525628    -0.090918736069     1.007825032230

  Basis Set: AUG-CC-PVTZ
    Blend: AUG-CC-PVTZ
  Basis Set: (AUG-CC-PVTZ AUX)
    Blend: AUG-CC-PVTZ-JKFIT
	 Reference Energy          =    -439.1371518083497563 [Eh]
	 Singles Energy            =      -0.0000000000000000 [Eh]
	 Same-Spin Energy          =      -0.4458222075837732 [Eh]
	 Opposite-Spin Energy      =      -1.4633544772471974 [Eh]
	 Correlation Energy        =      -1.9091766848309706 [Eh]
	 Total Energy              =    -441.0463284931807380 [Eh]

	 ================> DF-SCS-MP2 Energies <==================
	-----------------------------------------------------------
	 SCS Same-Spin Scale       =       0.3333333333333333 [-]
	 SCS Opposite-Spin Scale   =       1.2000000000000000 [-]
	 SCS Same-Spin Energy      =      -0.1486074025279244 [Eh]
	 SCS Opposite-Spin Energy  =      -1.7560253726966368 [Eh]
	 SCS Correlation Energy    =      -1.9046327752245613 [Eh]
	 SCS Total Energy          =    -441.0417845835743265 [Eh]
	-----------------------------------------------------------

  Dipole Moment: [D]
     X:     3.5001      Y:     2.8493      Z:    -0.2271     Total:     4.5189

*** Psi4 exiting successfully. Buy a developer a beer!
