                               Psi4 1.3.2 release

  ==> Input File <==

--------------------------------------------------------------------------
#psi4
#
memory 32 gb

molecule  {
0 1
  O       -2.9143922    -0.3286073    -0.3255959
  O       -0.5825960    -1.5131530     0.0834280
  N        0.6646380     0.3451110    -0.3514860
  C        1.9521820    -0.3066060    -0.1296730
  C       -1.7875910     0.5207530    -0.3412920
  C        2.3087340    -0.3110910     1.3526080
  C        3.0072020     0.3769410    -0.9846900
  C       -0.5092170    -0.3043550    -0.1811720
  C       -1.8991130     1.5929580     0.7362800
  H        1.8182130    -1.3395260    -0.4626630
  H        0.6508110     1.3528600    -0.4628320
  H       -1.8165778     0.9642662    -1.3489120
  H        2.4085440     0.7136460     1.7243230
  H        1.5276200    -0.8195050     1.9221530
  H        3.2560570    -0.8319740     1.5215790
  H        3.1304270     1.4235350    -0.6835410
  H        2.7315590     0.3479870    -2.0412990
  H        3.9738610    -0.1182480    -0.8633910
  H       -1.8420940     1.1254490     1.7220580
  H       -2.8670940     2.0889060     0.6442650
  H       -1.1140830     2.3514110     0.6543310
  H       -2.4990480    -1.2315890    -0.0938460
units angstrom
no_reorient  #important for SAPT in psi4, default
symmetry c1  #important for SAPT in psi4, default
}

set PROPERTIES_ORIGIN ["COM"]
properties('MP2/aug-cc-pvtz', properties = ['dipole'])
--------------------------------------------------------------------------

    Molecular point group: c1
  Charge       = 0
  Multiplicity = 1
  Basis Set: AUG-CC-PVTZ
    Blend: AUG-CC-PVTZ
  Basis Set: (AUG-CC-PVTZ AUX)
    Blend: AUG-CC-PVTZ-JKFIT

    Orbital Energies [Eh]
    ---------------------

    Doubly Occupied:

       1A    -20.549491     2A    -20.534123     3A    -15.596530
       4A    -11.359634     5A    -11.295725     6A    -11.277713
       7A    -11.232621     8A    -11.231436     9A    -11.222711
      10A     -1.396346    11A     -1.341076    12A     -1.248678
      13A     -1.071969    14A     -1.022282    15A     -0.950247
      16A     -0.894626    17A     -0.821918    18A     -0.795224
      19A     -0.735471    20A     -0.675660    21A     -0.645003
      22A     -0.631662    23A     -0.629146    24A     -0.597779
      25A     -0.581772    26A     -0.567835    27A     -0.555435
      28A     -0.548434    29A     -0.538341    30A     -0.529795
      31A     -0.511901    32A     -0.503284    33A     -0.492186
      34A     -0.442010    35A     -0.435589    36A     -0.402230

  @DF-RHF Final Energy:  -439.13282384892989

   => Energetics <=

    Nuclear Repulsion Energy =            484.6543377476478440
    One-Electron Energy =               -1559.8425604778742581
    Two-Electron Energy =                 636.0553988812965827
    Total Energy =                       -439.1328238489298883
  Basis Set: (AUG-CC-PVTZ AUX)
    Blend: AUG-CC-PVTZ-RI
    Molecular point group: c1

    Geometry (in Angstrom), charge = 0, multiplicity = 1:

       Center              X                  Y                   Z               Mass
    ------------   -----------------  -----------------  -----------------  -----------------
         O           -2.911880539463    -0.330677541199    -0.317045472477    15.994914619570
         O           -0.580084339463    -1.515223241199     0.091978427523    15.994914619570
         N            0.667149660537     0.343040758801    -0.342935572477    14.003074004430
         C            1.954693660537    -0.308676241199    -0.121122572477    12.000000000000
         C           -1.785079339463     0.518682758801    -0.332741572477    12.000000000000
         C            2.311245660537    -0.313161241199     1.361158427523    12.000000000000
         C            3.009713660537     0.374870758801    -0.976139572477    12.000000000000
         C           -0.506705339463    -0.306425241199    -0.172621572477    12.000000000000
         C           -1.896601339463     1.590887758801     0.744830427523    12.000000000000
         H            1.820724660537    -1.341596241199    -0.454112572477     1.007825032230
         H            0.653322660537     1.350789758801    -0.454281572477     1.007825032230
         H           -1.814066139463     0.962195958801    -1.340361572477     1.007825032230
         H            2.411055660537     0.711575758801     1.732873427523     1.007825032230
         H            1.530131660537    -0.821575241199     1.930703427523     1.007825032230
         H            3.258568660537    -0.834044241199     1.530129427523     1.007825032230
         H            3.132938660537     1.421464758801    -0.674990572477     1.007825032230
         H            2.734070660537     0.345916758801    -2.032748572477     1.007825032230
         H            3.976372660537    -0.120318241199    -0.854840572477     1.007825032230
         H           -1.839582339463     1.123378758801     1.730608427523     1.007825032230
         H           -2.864582339463     2.086835758801     0.652815427523     1.007825032230
         H           -1.111571339463     2.349340758801     0.662881427523     1.007825032230
         H           -2.496536339463    -1.233659241199    -0.085295572477     1.007825032230

  Basis Set: AUG-CC-PVTZ
    Blend: AUG-CC-PVTZ
  Basis Set: (AUG-CC-PVTZ AUX)
    Blend: AUG-CC-PVTZ-JKFIT
	 Reference Energy          =    -439.1328238489298883 [Eh]
	 Singles Energy            =      -0.0000000000000000 [Eh]
	 Same-Spin Energy          =      -0.4466320407213027 [Eh]
	 Opposite-Spin Energy      =      -1.4650696864779800 [Eh]
	 Correlation Energy        =      -1.9117017271992827 [Eh]
	 Total Energy              =    -441.0445255761291605 [Eh]

	 ================> DF-SCS-MP2 Energies <==================
	-----------------------------------------------------------
	 SCS Same-Spin Scale       =       0.3333333333333333 [-]
	 SCS Opposite-Spin Scale   =       1.2000000000000000 [-]
	 SCS Same-Spin Energy      =      -0.1488773469071009 [Eh]
	 SCS Opposite-Spin Energy  =      -1.7580836237735760 [Eh]
	 SCS Correlation Energy    =      -1.9069609706806769 [Eh]
	 SCS Total Energy          =    -441.0397848196105883 [Eh]
	-----------------------------------------------------------

  Dipole Moment: [D]
     X:     3.6436      Y:     2.8963      Z:    -0.0896     Total:     4.6554

*** Psi4 exiting successfully. Buy a developer a beer!
