                               Psi4 1.3.2 release

  ==> Input File <==

--------------------------------------------------------------------------
#psi4
#
memory 32 gb

molecule  {
0 1
  O       -2.8968130    -0.3474360    -0.2563530
  O       -0.5825960    -1.5131530     0.0834280
  N        0.6646380     0.3451110    -0.3514860
  C        1.9521820    -0.3066060    -0.1296730
  C       -1.7875910     0.5207530    -0.3412920
  C        2.3087340    -0.3110910     1.3526080
  C        3.0072020     0.3769410    -0.9846900
  C       -0.5092170    -0.3043550    -0.1811720
  C       -1.8991130     1.5929580     0.7362800
  H        1.8182130    -1.3395260    -0.4626630
  H        0.6508110     1.3528600    -0.4628320
  H       -1.7671679     1.0367473    -1.4259271
  H        2.4085440     0.7136460     1.7243230
  H        1.5276200    -0.8195050     1.9221530
  H        3.2560570    -0.8319740     1.5215790
  H        3.1304270     1.4235350    -0.6835410
  H        2.7315590     0.3479870    -2.0412990
  H        3.9738610    -0.1182480    -0.8633910
  H       -1.8420940     1.1254490     1.7220580
  H       -2.8670940     2.0889060     0.6442650
  H       -1.1140830     2.3514110     0.6543310
  H       -2.4990480    -1.2315890    -0.0938460
units angstrom
no_reorient  #important for SAPT in psi4, default
symmetry c1  #important for SAPT in psi4, default
}

set PROPERTIES_ORIGIN ["COM"]
properties('MP2/aug-cc-pvtz', properties = ['dipole'])
--------------------------------------------------------------------------

    Molecular point group: c1
  Charge       = 0
  Multiplicity = 1
  Basis Set: AUG-CC-PVTZ
    Blend: AUG-CC-PVTZ
  Basis Set: (AUG-CC-PVTZ AUX)
    Blend: AUG-CC-PVTZ-JKFIT

    Orbital Energies [Eh]
    ---------------------

    Doubly Occupied:

       1A    -20.550165     2A    -20.533218     3A    -15.595540
       4A    -11.359406     5A    -11.309236     6A    -11.277201
       7A    -11.232237     8A    -11.231949     9A    -11.222274
      10A     -1.398010    11A     -1.347127    12A     -1.247936
      13A     -1.071543    14A     -1.022231    15A     -0.949831
      16A     -0.893234    17A     -0.819772    18A     -0.792999
      19A     -0.734841    20A     -0.675939    21A     -0.644025
      22A     -0.632664    23A     -0.628377    24A     -0.597031
      25A     -0.582518    26A     -0.568116    27A     -0.555118
      28A     -0.548425    29A     -0.538960    30A     -0.527618
      31A     -0.512418    32A     -0.502862    33A     -0.491629
      34A     -0.441973    35A     -0.434027    36A     -0.401002

  @DF-RHF Final Energy:  -439.13111883911375

   => Energetics <=

    Nuclear Repulsion Energy =            484.7957716454083652
    One-Electron Energy =               -1560.1108803171705404
    Two-Electron Energy =                 636.1839898326483080
    Total Energy =                       -439.1311188391138103
  Basis Set: (AUG-CC-PVTZ AUX)
    Blend: AUG-CC-PVTZ-RI
    Molecular point group: c1

    Geometry (in Angstrom), charge = 0, multiplicity = 1:

       Center              X                  Y                   Z               Mass
    ------------   -----------------  -----------------  -----------------  -----------------
         O           -2.896826037389    -0.347766160890    -0.255658855670    15.994914619570
         O           -0.582609037389    -1.513483160890     0.084122144330    15.994914619570
         N            0.664624962611     0.344780839110    -0.350791855670    14.003074004430
         C            1.952168962611    -0.306936160890    -0.128978855670    12.000000000000
         C           -1.787604037389     0.520422839110    -0.340597855670    12.000000000000
         C            2.308720962611    -0.311421160890     1.353302144330    12.000000000000
         C            3.007188962611     0.376610839110    -0.983995855670    12.000000000000
         C           -0.509230037389    -0.304685160890    -0.180477855670    12.000000000000
         C           -1.899126037389     1.592627839110     0.736974144330    12.000000000000
         H            1.818199962611    -1.339856160890    -0.461968855670     1.007825032230
         H            0.650797962611     1.352529839110    -0.462137855670     1.007825032230
         H           -1.767180937389     1.036417139110    -1.425232955670     1.007825032230
         H            2.408530962611     0.713315839110     1.725017144330     1.007825032230
         H            1.527606962611    -0.819835160890     1.922847144330     1.007825032230
         H            3.256043962611    -0.832304160890     1.522273144330     1.007825032230
         H            3.130413962611     1.423204839110    -0.682846855670     1.007825032230
         H            2.731545962611     0.347656839110    -2.040604855670     1.007825032230
         H            3.973847962611    -0.118578160890    -0.862696855670     1.007825032230
         H           -1.842107037389     1.125118839110     1.722752144330     1.007825032230
         H           -2.867107037389     2.088575839110     0.644959144330     1.007825032230
         H           -1.114096037389     2.351080839110     0.655025144330     1.007825032230
         H           -2.499061037389    -1.231919160890    -0.093151855670     1.007825032230

  Basis Set: AUG-CC-PVTZ
    Blend: AUG-CC-PVTZ
  Basis Set: (AUG-CC-PVTZ AUX)
    Blend: AUG-CC-PVTZ-JKFIT
	 Reference Energy          =    -439.1311188391137534 [Eh]
	 Singles Energy            =      -0.0000000000000000 [Eh]
	 Same-Spin Energy          =      -0.4461978451217019 [Eh]
	 Opposite-Spin Energy      =      -1.4645589851214065 [Eh]
	 Correlation Energy        =      -1.9107568302431084 [Eh]
	 Total Energy              =    -441.0418756693568412 [Eh]

	 ================> DF-SCS-MP2 Energies <==================
	-----------------------------------------------------------
	 SCS Same-Spin Scale       =       0.3333333333333333 [-]
	 SCS Opposite-Spin Scale   =       1.2000000000000000 [-]
	 SCS Same-Spin Energy      =      -0.1487326150405673 [Eh]
	 SCS Opposite-Spin Energy  =      -1.7574707821456876 [Eh]
	 SCS Correlation Energy    =      -1.9062033971862549 [Eh]
	 SCS Total Energy          =    -441.0373222362999854 [Eh]
	-----------------------------------------------------------

  Dipole Moment: [D]
     X:     3.5496      Y:     2.8723      Z:    -0.1613     Total:     4.5690

*** Psi4 exiting successfully. Buy a developer a beer!
