                               Psi4 1.3.2 release

  ==> Input File <==

--------------------------------------------------------------------------
#psi4
#
memory 32 gb

molecule  {
0 1
  O       -2.8968130    -0.3474360    -0.2563530
  O       -0.5825960    -1.5131530     0.0834280
  N        0.6279175     0.4043154    -0.3640924
  C        1.9521820    -0.3066060    -0.1296730
  C       -1.7418792     0.5847091    -0.3566443
  C        2.3087340    -0.3110910     1.3526080
  C        3.0072020     0.3769410    -0.9846900
  C       -0.5092170    -0.3043550    -0.1811720
  C       -1.8991130     1.5929580     0.7362800
  H        1.8182130    -1.3395260    -0.4626630
  H        0.6508110     1.3528600    -0.4628320
  H       -1.7688680     0.9937940    -1.3356380
  H        2.4085440     0.7136460     1.7243230
  H        1.5276200    -0.8195050     1.9221530
  H        3.2560570    -0.8319740     1.5215790
  H        3.1304270     1.4235350    -0.6835410
  H        2.7315590     0.3479870    -2.0412990
  H        3.9738610    -0.1182480    -0.8633910
  H       -1.8420940     1.1254490     1.7220580
  H       -2.8670940     2.0889060     0.6442650
  H       -1.1140830     2.3514110     0.6543310
  H       -2.4990480    -1.2315890    -0.0938460
units angstrom
no_reorient  #important for SAPT in psi4, default
symmetry c1  #important for SAPT in psi4, default
}

set PROPERTIES_ORIGIN ["COM"]
properties('MP2/aug-cc-pvtz', properties = ['dipole'])
--------------------------------------------------------------------------

    Molecular point group: c1
  Charge       = 0
  Multiplicity = 1
  Basis Set: AUG-CC-PVTZ
    Blend: AUG-CC-PVTZ
  Basis Set: (AUG-CC-PVTZ AUX)
    Blend: AUG-CC-PVTZ-JKFIT

    Orbital Energies [Eh]
    ---------------------

    Doubly Occupied:

       1A    -20.536995     2A    -20.536874     3A    -15.592398
       4A    -11.361570     5A    -11.293202     6A    -11.282669
       7A    -11.233427     8A    -11.231118     9A    -11.224997
      10A     -1.392167    11A     -1.317911    12A     -1.248257
      13A     -1.076200    14A     -1.030678    15A     -0.951030
      16A     -0.896331    17A     -0.822503    18A     -0.806614
      19A     -0.726074    20A     -0.675859    21A     -0.646937
      22A     -0.634809    23A     -0.625660    24A     -0.601486
      25A     -0.578410    26A     -0.565562    27A     -0.556083
      28A     -0.546304    29A     -0.534099    30A     -0.529142
      31A     -0.505656    32A     -0.501305    33A     -0.490743
      34A     -0.448059    35A     -0.433870    36A     -0.407803

  @DF-RHF Final Energy:  -439.12365489961712

   => Energetics <=

    Nuclear Repulsion Energy =            484.2871472586526806
    One-Electron Energy =               -1559.1360018647121706
    Two-Electron Energy =                 635.7251997064422540
    Total Energy =                       -439.1236548996171223
  Basis Set: (AUG-CC-PVTZ AUX)
    Blend: AUG-CC-PVTZ-RI
    Molecular point group: c1

    Geometry (in Angstrom), charge = 0, multiplicity = 1:

       Center              X                  Y                   Z               Mass
    ------------   -----------------  -----------------  -----------------  -----------------
         O           -2.897074928728    -0.359614299898    -0.253601102887    15.994914619570
         O           -0.582857928728    -1.525331299898     0.086179897113    15.994914619570
         N            0.627655571272     0.392137100102    -0.361340502887    14.003074004430
         C            1.951920071272    -0.318784299898    -0.126921102887    12.000000000000
         C           -1.742141128728     0.572530800102    -0.353892402887    12.000000000000
         C            2.308472071272    -0.323269299898     1.355359897113    12.000000000000
         C            3.006940071272     0.364762700102    -0.981938102887    12.000000000000
         C           -0.509478928728    -0.316533299898    -0.178420102887    12.000000000000
         C           -1.899374928728     1.580779700102     0.739031897113    12.000000000000
         H            1.817951071272    -1.351704299898    -0.459911102887     1.007825032230
         H            0.650549071272     1.340681700102    -0.460080102887     1.007825032230
         H           -1.769129928728     0.981615700102    -1.332886102887     1.007825032230
         H            2.408282071272     0.701467700102     1.727074897113     1.007825032230
         H            1.527358071272    -0.831683299898     1.924904897113     1.007825032230
         H            3.255795071272    -0.844152299898     1.524330897113     1.007825032230
         H            3.130165071272     1.411356700102    -0.680789102887     1.007825032230
         H            2.731297071272     0.335808700102    -2.038547102887     1.007825032230
         H            3.973599071272    -0.130426299898    -0.860639102887     1.007825032230
         H           -1.842355928728     1.113270700102     1.724809897113     1.007825032230
         H           -2.867355928728     2.076727700102     0.647016897113     1.007825032230
         H           -1.114344928728     2.339232700102     0.657082897113     1.007825032230
         H           -2.499309928728    -1.243767299898    -0.091094102887     1.007825032230

  Basis Set: AUG-CC-PVTZ
    Blend: AUG-CC-PVTZ
  Basis Set: (AUG-CC-PVTZ AUX)
    Blend: AUG-CC-PVTZ-JKFIT
	 Reference Energy          =    -439.1236548996171223 [Eh]
	 Singles Energy            =      -0.0000000000000000 [Eh]
	 Same-Spin Energy          =      -0.4459648395640743 [Eh]
	 Opposite-Spin Energy      =      -1.4652743679939801 [Eh]
	 Correlation Energy        =      -1.9112392075580544 [Eh]
	 Total Energy              =    -441.0348941071752051 [Eh]

	 ================> DF-SCS-MP2 Energies <==================
	-----------------------------------------------------------
	 SCS Same-Spin Scale       =       0.3333333333333333 [-]
	 SCS Opposite-Spin Scale   =       1.2000000000000000 [-]
	 SCS Same-Spin Energy      =      -0.1486549465213581 [Eh]
	 SCS Opposite-Spin Energy  =      -1.7583292415927760 [Eh]
	 SCS Correlation Energy    =      -1.9069841881141341 [Eh]
	 SCS Total Energy          =    -441.0306390877312310 [Eh]
	-----------------------------------------------------------

  Dipole Moment: [D]
     X:     3.8929      Y:     2.9969      Z:    -0.1805     Total:     4.9162

*** Psi4 exiting successfully. Buy a developer a beer!
