                               Psi4 1.4a3.dev225

  ==> Input File <==

--------------------------------------------------------------------------
#psi4
#
memory 32 gb

molecule  {
0 1
  O       -1.7446660    -1.3796590    -0.7880960
  O       -0.4296620     1.7569970     0.2600660
  N        0.4723820    -0.3330750    -0.0012650
  C        1.8394770     0.0732600     0.3013020
  C       -1.9099390    -0.0103690    -0.3967440
  C        2.4958720     0.7244850    -0.9128940
  C        2.6145980    -1.1365250     0.8043010
  C       -0.5442740     0.5588710    -0.0269710
  C       -2.8733892     0.1379466     0.7970726
  H        1.7638430     0.8203410     1.0982830
  H        0.2750420    -1.2730860    -0.3263580
  H       -2.2722210     0.5864250    -1.2458220
  H        2.5570320     0.0100450    -1.7401110
  H        1.9072700     1.5874400    -1.2316560
  H        3.5085800     1.0627310    -0.6705710
  H        2.6773940    -1.9046250     0.0252330
  H        2.1327900    -1.5715010     1.6841320
  H        3.6348850    -0.8497170     1.0733550
  H       -2.5011890    -0.4705790     1.6169940
  H       -3.8694610    -0.1962540     0.5126420
  H       -2.9055320     1.1820880     1.0905810
  H       -2.6295620    -1.7449530    -0.9570530
units angstrom
no_reorient  #important for SAPT in psi4, default
symmetry c1  #important for SAPT in psi4, default
}

set PROPERTIES_ORIGIN ["COM"]
properties('MP2/aug-cc-pvtz', properties = ['dipole'])
--------------------------------------------------------------------------

    Molecular point group: c1
  Charge       = 0
  Multiplicity = 1
  Basis Set: AUG-CC-PVTZ
    Blend: AUG-CC-PVTZ
  Basis Set: (AUG-CC-PVTZ AUX)
    Blend: AUG-CC-PVTZ-JKFIT

    Orbital Energies [Eh]
    ---------------------

    Doubly Occupied:

       1A    -20.581100     2A    -20.509199     3A    -15.575539
       4A    -11.342823     5A    -11.301727     6A    -11.263909
       7A    -11.228453     8A    -11.221314     9A    -11.209237
      10A     -1.387495    11A     -1.358609    12A     -1.227751
      13A     -1.056730    14A     -1.026040    15A     -0.937108
      16A     -0.898349    17A     -0.813722    18A     -0.777717
      19A     -0.711729    20A     -0.689751    21A     -0.643770
      22A     -0.639435    23A     -0.614157    24A     -0.594716
      25A     -0.578691    26A     -0.562845    27A     -0.553634
      28A     -0.542358    29A     -0.527909    30A     -0.520886
      31A     -0.517200    32A     -0.490995    33A     -0.479867
      34A     -0.457028    35A     -0.413620    36A     -0.382482

  @DF-RHF Final Energy:  -439.13778321803045

   => Energetics <=

    Nuclear Repulsion Energy =            485.5708485769675917
    One-Electron Energy =               -1562.1414684115222826
    Two-Electron Energy =                 637.4328366165242414
    Total Energy =                       -439.1377832180304495
  Basis Set: (AUG-CC-PVTZ AUX)
    Blend: AUG-CC-PVTZ-RI
    Molecular point group: c1

    Geometry (in Angstrom), charge = 0, multiplicity = 1:

       Center              X                  Y                   Z               Mass
    ------------   -----------------  -----------------  -----------------  -----------------
         O           -1.711232900934    -1.400713893596    -0.782498624049    15.994914619570
         O           -0.396228900934     1.735942106404     0.265663375951    15.994914619570
         N            0.505815099066    -0.354129893596     0.004332375951    14.003074004430
         C            1.872910099066     0.052205106404     0.306899375951    12.000000000000
         C           -1.876505900934    -0.031423893596    -0.391146624049    12.000000000000
         C            2.529305099066     0.703430106404    -0.907296624049    12.000000000000
         C            2.648031099066    -1.157579893596     0.809898375951    12.000000000000
         C           -0.510840900934     0.537816106404    -0.021373624049    12.000000000000
         C           -2.839956100934     0.116891706404     0.802669975951    12.000000000000
         H            1.797276099066     0.799286106404     1.103880375951     1.007825032230
         H            0.308475099066    -1.294140893596    -0.320760624049     1.007825032230
         H           -2.238787900934     0.565370106404    -1.240224624049     1.007825032230
         H            2.590465099066    -0.011009893596    -1.734513624049     1.007825032230
         H            1.940703099066     1.566385106404    -1.226058624049     1.007825032230
         H            3.542013099066     1.041676106404    -0.664973624049     1.007825032230
         H            2.710827099066    -1.925679893596     0.030830375951     1.007825032230
         H            2.166223099066    -1.592555893596     1.689729375951     1.007825032230
         H            3.668318099066    -0.870771893596     1.078952375951     1.007825032230
         H           -2.467755900934    -0.491633893596     1.622591375951     1.007825032230
         H           -3.836027900934    -0.217308893596     0.518239375951     1.007825032230
         H           -2.872098900934     1.161033106404     1.096178375951     1.007825032230
         H           -2.596128900934    -1.766007893596    -0.951455624049     1.007825032230

  Basis Set: AUG-CC-PVTZ
    Blend: AUG-CC-PVTZ
  Basis Set: (AUG-CC-PVTZ AUX)
    Blend: AUG-CC-PVTZ-JKFIT
	 Reference Energy          =    -439.1377832180304495 [Eh]
	 Singles Energy            =      -0.0000000000000000 [Eh]
	 Same-Spin Energy          =      -0.4453790957716569 [Eh]
	 Opposite-Spin Energy      =      -1.4633859679493622 [Eh]
	 Correlation Energy        =      -1.9087650637210190 [Eh]
	 Total Energy              =    -441.0465482817514840 [Eh]

	 ================> DF-SCS-MP2 Energies <==================
	-----------------------------------------------------------
	 SCS Same-Spin Scale       =       0.3333333333333333 [-]
	 SCS Opposite-Spin Scale   =       1.2000000000000000 [-]
	 SCS Same-Spin Energy      =      -0.1484596985905523 [Eh]
	 SCS Opposite-Spin Energy  =      -1.7560631615392346 [Eh]
	 SCS Correlation Energy    =      -1.9045228601297868 [Eh]
	 SCS Total Energy          =    -441.0423060781602089 [Eh]
	-----------------------------------------------------------

  Dipole Moment: [D]
     X:    -0.6712      Y:    -2.8855      Z:    -0.4727     Total:     3.0001

*** Psi4 exiting successfully. Buy a developer a beer!
