                               Psi4 1.3.2 release

  ==> Input File <==

--------------------------------------------------------------------------
#psi4
#
memory 32 gb

molecule  {
0 1
  O       -2.8968130    -0.3474360    -0.2563530
  O       -0.5825960    -1.5131530     0.0834280
  N        0.6646380     0.3451110    -0.3514860
  C        1.9521820    -0.3066060    -0.1296730
  C       -1.7875910     0.5207530    -0.3412920
  C        2.3087340    -0.3110910     1.3526080
  C        3.0072020     0.3769410    -0.9846900
  C       -0.5092170    -0.3043550    -0.1811720
  C       -1.8991130     1.5929580     0.7362800
  H        1.8182130    -1.3395260    -0.4626630
  H        0.6508110     1.3528600    -0.4628320
  H       -1.7705681     0.9508407    -1.2453489
  H        2.4085440     0.7136460     1.7243230
  H        1.5276200    -0.8195050     1.9221530
  H        3.2560570    -0.8319740     1.5215790
  H        3.1304270     1.4235350    -0.6835410
  H        2.7315590     0.3479870    -2.0412990
  H        3.9738610    -0.1182480    -0.8633910
  H       -1.8420940     1.1254490     1.7220580
  H       -2.8670940     2.0889060     0.6442650
  H       -1.1140830     2.3514110     0.6543310
  H       -2.4990480    -1.2315890    -0.0938460
units angstrom
no_reorient  #important for SAPT in psi4, default
symmetry c1  #important for SAPT in psi4, default
}

set PROPERTIES_ORIGIN ["COM"]
properties('MP2/aug-cc-pvtz', properties = ['dipole'])
--------------------------------------------------------------------------

    Molecular point group: c1
  Charge       = 0
  Multiplicity = 1
  Basis Set: AUG-CC-PVTZ
    Blend: AUG-CC-PVTZ
  Basis Set: (AUG-CC-PVTZ AUX)
    Blend: AUG-CC-PVTZ-JKFIT

    Orbital Energies [Eh]
    ---------------------

    Doubly Occupied:

       1A    -20.545955     2A    -20.531967     3A    -15.596031
       4A    -11.357466     5A    -11.284803     6A    -11.277324
       7A    -11.232444     8A    -11.229883     9A    -11.222296
      10A     -1.396751    11A     -1.344883    12A     -1.248159
      13A     -1.073574    14A     -1.026808    15A     -0.949940
      16A     -0.898202    17A     -0.826734    18A     -0.797419
      19A     -0.739272    20A     -0.682956    21A     -0.654225
      22A     -0.632228    23A     -0.629006    24A     -0.597236
      25A     -0.581001    26A     -0.567178    27A     -0.555165
      28A     -0.547996    29A     -0.540511    30A     -0.532223
      31A     -0.512311    32A     -0.502761    33A     -0.491465
      34A     -0.447650    35A     -0.434246    36A     -0.401822

  @DF-RHF Final Energy:  -439.13269478848292

   => Energetics <=

    Nuclear Repulsion Energy =            485.8700487405981789
    One-Electron Energy =               -1562.2257063301578910
    Two-Electron Energy =                 637.2229628010768465
    Total Energy =                       -439.1326947884829224
  Basis Set: (AUG-CC-PVTZ AUX)
    Blend: AUG-CC-PVTZ-RI
    Molecular point group: c1

    Geometry (in Angstrom), charge = 0, multiplicity = 1:

       Center              X                  Y                   Z               Mass
    ------------   -----------------  -----------------  -----------------  -----------------
         O           -2.896799897442    -0.347105730918    -0.257047098896    15.994914619570
         O           -0.582582897442    -1.512822730918     0.082733901104    15.994914619570
         N            0.664651102558     0.345441269082    -0.352180098896    14.003074004430
         C            1.952195102558    -0.306275730918    -0.130367098896    12.000000000000
         C           -1.787577897442     0.521083269082    -0.341986098896    12.000000000000
         C            2.308747102558    -0.310760730918     1.351913901104    12.000000000000
         C            3.007215102558     0.377271269082    -0.985384098896    12.000000000000
         C           -0.509203897442    -0.304024730918    -0.181866098896    12.000000000000
         C           -1.899099897442     1.593288269082     0.735585901104    12.000000000000
         H            1.818226102558    -1.339195730918    -0.463357098896     1.007825032230
         H            0.650824102558     1.353190269082    -0.463526098896     1.007825032230
         H           -1.770554997442     0.951170969082    -1.246042998896     1.007825032230
         H            2.408557102558     0.713976269082     1.723628901104     1.007825032230
         H            1.527633102558    -0.819174730918     1.921458901104     1.007825032230
         H            3.256070102558    -0.831643730918     1.520884901104     1.007825032230
         H            3.130440102558     1.423865269082    -0.684235098896     1.007825032230
         H            2.731572102558     0.348317269082    -2.041993098896     1.007825032230
         H            3.973874102558    -0.117917730918    -0.864085098896     1.007825032230
         H           -1.842080897442     1.125779269082     1.721363901104     1.007825032230
         H           -2.867080897442     2.089236269082     0.643570901104     1.007825032230
         H           -1.114069897442     2.351741269082     0.653636901104     1.007825032230
         H           -2.499034897442    -1.231258730918    -0.094540098896     1.007825032230

  Basis Set: AUG-CC-PVTZ
    Blend: AUG-CC-PVTZ
  Basis Set: (AUG-CC-PVTZ AUX)
    Blend: AUG-CC-PVTZ-JKFIT
	 Reference Energy          =    -439.1326947884829224 [Eh]
	 Singles Energy            =      -0.0000000000000000 [Eh]
	 Same-Spin Energy          =      -0.4459145928278489 [Eh]
	 Opposite-Spin Energy      =      -1.4630142962839883 [Eh]
	 Correlation Energy        =      -1.9089288891118372 [Eh]
	 Total Energy              =    -441.0416236775947709 [Eh]

	 ================> DF-SCS-MP2 Energies <==================
	-----------------------------------------------------------
	 SCS Same-Spin Scale       =       0.3333333333333333 [-]
	 SCS Opposite-Spin Scale   =       1.2000000000000000 [-]
	 SCS Same-Spin Energy      =      -0.1486381976092830 [Eh]
	 SCS Opposite-Spin Energy  =      -1.7556171555407858 [Eh]
	 SCS Correlation Energy    =      -1.9042553531500688 [Eh]
	 SCS Total Energy          =    -441.0369501416329854 [Eh]
	-----------------------------------------------------------

  Dipole Moment: [D]
     X:     3.6060      Y:     2.9490      Z:    -0.2659     Total:     4.6659

*** Psi4 exiting successfully. Buy a developer a beer!
