                               Psi4 1.3.2 release

  ==> Input File <==

--------------------------------------------------------------------------
#psi4
#
memory 32 gb

molecule  {
0 1
  O       -2.8879031    -0.3603290    -0.2753521
  O       -0.5825960    -1.5131530     0.0834280
  N        0.6646380     0.3451110    -0.3514860
  C        1.9521820    -0.3066060    -0.1296730
  C       -1.7875910     0.5207530    -0.3412920
  C        2.3087340    -0.3110910     1.3526080
  C        3.0072020     0.3769410    -0.9846900
  C       -0.5092170    -0.3043550    -0.1811720
  C       -1.8762364     1.6035472     0.7277827
  H        1.8182130    -1.3395260    -0.4626630
  H        0.6508110     1.3528600    -0.4628320
  H       -1.7688680     0.9937940    -1.3356380
  H        2.4085440     0.7136460     1.7243230
  H        1.5276200    -0.8195050     1.9221530
  H        3.2560570    -0.8319740     1.5215790
  H        3.1304270     1.4235350    -0.6835410
  H        2.7315590     0.3479870    -2.0412990
  H        3.9738610    -0.1182480    -0.8633910
  H       -1.8420940     1.1254490     1.7220580
  H       -2.8670940     2.0889060     0.6442650
  H       -1.1140830     2.3514110     0.6543310
  H       -2.4990480    -1.2315890    -0.0938460
units angstrom
no_reorient  #important for SAPT in psi4, default
symmetry c1  #important for SAPT in psi4, default
}

set PROPERTIES_ORIGIN ["COM"]
properties('MP2/aug-cc-pvtz', properties = ['dipole'])
--------------------------------------------------------------------------

    Molecular point group: c1
  Charge       = 0
  Multiplicity = 1
  Basis Set: AUG-CC-PVTZ
    Blend: AUG-CC-PVTZ
  Basis Set: (AUG-CC-PVTZ AUX)
    Blend: AUG-CC-PVTZ-JKFIT

    Orbital Energies [Eh]
    ---------------------

    Doubly Occupied:

       1A    -20.547443     2A    -20.531758     3A    -15.595375
       4A    -11.357569     5A    -11.297887     6A    -11.277016
       7A    -11.232200     8A    -11.231660     9A    -11.222113
      10A     -1.397500    11A     -1.347112    12A     -1.247683
      13A     -1.072569    14A     -1.025060    15A     -0.949723
      16A     -0.894782    17A     -0.822942    18A     -0.794888
      19A     -0.737698    20A     -0.679227    21A     -0.649702
      22A     -0.632594    23A     -0.628815    24A     -0.597497
      25A     -0.582676    26A     -0.569253    27A     -0.554997
      28A     -0.547974    29A     -0.538863    30A     -0.530541
      31A     -0.511759    32A     -0.502472    33A     -0.491224
      34A     -0.445712    35A     -0.433174    36A     -0.401125

  @DF-RHF Final Energy:  -439.13763459559726

   => Energetics <=

    Nuclear Repulsion Energy =            485.4735823147798897
    One-Electron Energy =               -1561.4612667645737929
    Two-Electron Energy =                 636.8500498541966408
    Total Energy =                       -439.1376345955973193
  Basis Set: (AUG-CC-PVTZ AUX)
    Blend: AUG-CC-PVTZ-RI
    Molecular point group: c1

    Geometry (in Angstrom), charge = 0, multiplicity = 1:

       Center              X                  Y                   Z               Mass
    ------------   -----------------  -----------------  -----------------  -----------------
         O           -2.891084222083    -0.359725168045    -0.272256171780    15.994914619570
         O           -0.585777122083    -1.512549168045     0.086523928220    15.994914619570
         N            0.661456877917     0.345714831955    -0.348390071780    14.003074004430
         C            1.949000877917    -0.306002168045    -0.126577071780    12.000000000000
         C           -1.790772122083     0.521356831955    -0.338196071780    12.000000000000
         C            2.305552877917    -0.310487168045     1.355703928220    12.000000000000
         C            3.004020877917     0.377544831955    -0.981594071780    12.000000000000
         C           -0.512398122083    -0.303751168045    -0.178076071780    12.000000000000
         C           -1.879417522083     1.604151031955     0.730878628220    12.000000000000
         H            1.815031877917    -1.338922168045    -0.459567071780     1.007825032230
         H            0.647629877917     1.353463831955    -0.459736071780     1.007825032230
         H           -1.772049122083     0.994397831955    -1.332542071780     1.007825032230
         H            2.405362877917     0.714249831955     1.727418928220     1.007825032230
         H            1.524438877917    -0.818901168045     1.925248928220     1.007825032230
         H            3.252875877917    -0.831370168045     1.524674928220     1.007825032230
         H            3.127245877917     1.424138831955    -0.680445071780     1.007825032230
         H            2.728377877917     0.348590831955    -2.038203071780     1.007825032230
         H            3.970679877917    -0.117644168045    -0.860295071780     1.007825032230
         H           -1.845275122083     1.126052831955     1.725153928220     1.007825032230
         H           -2.870275122083     2.089509831955     0.647360928220     1.007825032230
         H           -1.117264122083     2.352014831955     0.657426928220     1.007825032230
         H           -2.502229122083    -1.230985168045    -0.090750071780     1.007825032230

  Basis Set: AUG-CC-PVTZ
    Blend: AUG-CC-PVTZ
  Basis Set: (AUG-CC-PVTZ AUX)
    Blend: AUG-CC-PVTZ-JKFIT
	 Reference Energy          =    -439.1376345955972624 [Eh]
	 Singles Energy            =      -0.0000000000000000 [Eh]
	 Same-Spin Energy          =      -0.4458717002707419 [Eh]
	 Opposite-Spin Energy      =      -1.4632790946070453 [Eh]
	 Correlation Energy        =      -1.9091507948777870 [Eh]
	 Total Energy              =    -441.0467853904750655 [Eh]

	 ================> DF-SCS-MP2 Energies <==================
	-----------------------------------------------------------
	 SCS Same-Spin Scale       =       0.3333333333333333 [-]
	 SCS Opposite-Spin Scale   =       1.2000000000000000 [-]
	 SCS Same-Spin Energy      =      -0.1486239000902473 [Eh]
	 SCS Opposite-Spin Energy  =      -1.7559349135284543 [Eh]
	 SCS Correlation Energy    =      -1.9045588136187015 [Eh]
	 SCS Total Energy          =    -441.0421934092159404 [Eh]
	-----------------------------------------------------------

  Dipole Moment: [D]
     X:     3.5554      Y:     2.9568      Z:    -0.1868     Total:     4.6280

*** Psi4 exiting successfully. Buy a developer a beer!
