                               Psi4 1.3.2 release

  ==> Input File <==

--------------------------------------------------------------------------
#psi4
#
memory 32 gb

molecule  {
0 1
  O       -2.8968130    -0.3474360    -0.2563530
  O       -0.5825960    -1.5131530     0.0834280
  N        0.6646380     0.3451110    -0.3514860
  C        1.9521820    -0.3066060    -0.1296730
  C       -1.7875910     0.5207530    -0.3412920
  C        2.3087340    -0.3110910     1.3526080
  C        3.0072020     0.3769410    -0.9846900
  C       -0.3356099    -0.2083023    -0.2063606
  C       -1.8991130     1.5929580     0.7362800
  H        1.8182130    -1.3395260    -0.4626630
  H        0.6508110     1.3528600    -0.4628320
  H       -1.7688680     0.9937940    -1.3356380
  H        2.4085440     0.7136460     1.7243230
  H        1.5276200    -0.8195050     1.9221530
  H        3.2560570    -0.8319740     1.5215790
  H        3.1304270     1.4235350    -0.6835410
  H        2.7315590     0.3479870    -2.0412990
  H        3.9738610    -0.1182480    -0.8633910
  H       -1.8420940     1.1254490     1.7220580
  H       -2.8670940     2.0889060     0.6442650
  H       -1.1140830     2.3514110     0.6543310
  H       -2.4990480    -1.2315890    -0.0938460
units angstrom
no_reorient  #important for SAPT in psi4, default
symmetry c1  #important for SAPT in psi4, default
}

set PROPERTIES_ORIGIN ["COM"]
properties('MP2/aug-cc-pvtz', properties = ['dipole'])
--------------------------------------------------------------------------

    Molecular point group: c1
  Charge       = 0
  Multiplicity = 1
  Basis Set: AUG-CC-PVTZ
    Blend: AUG-CC-PVTZ
  Basis Set: (AUG-CC-PVTZ AUX)
    Blend: AUG-CC-PVTZ-JKFIT

    Orbital Energies [Eh]
    ---------------------

    Doubly Occupied:

       1A    -20.539463     2A    -20.492469     3A    -15.626288
       4A    -11.339028     5A    -11.296072     6A    -11.294352
       7A    -11.245832     8A    -11.234767     9A    -11.224381
      10A     -1.393679    11A     -1.344014    12A     -1.243154
      13A     -1.099862    14A     -1.018580    15A     -0.963725
      16A     -0.895947    17A     -0.847458    18A     -0.832090
      19A     -0.721372    20A     -0.684716    21A     -0.658897
      22A     -0.640150    23A     -0.626719    24A     -0.588075
      25A     -0.574982    26A     -0.568636    27A     -0.563185
      28A     -0.555544    29A     -0.548905    30A     -0.529995
      31A     -0.511086    32A     -0.500320    33A     -0.469300
      34A     -0.433883    35A     -0.400435    36A     -0.393061

  @DF-RHF Final Energy:  -439.06409379568356

   => Energetics <=

    Nuclear Repulsion Energy =            486.0982277998364793
    One-Electron Energy =               -1562.5238017503711490
    Two-Electron Energy =                 637.3614801548511650
    Total Energy =                       -439.0640937956835614
  Basis Set: (AUG-CC-PVTZ AUX)
    Blend: AUG-CC-PVTZ-RI
    Molecular point group: c1

    Geometry (in Angstrom), charge = 0, multiplicity = 1:

       Center              X                  Y                   Z               Mass
    ------------   -----------------  -----------------  -----------------  -----------------
         O           -2.912704428578    -0.356228315292    -0.254047290139    15.994914619570
         O           -0.598487428578    -1.521945315292     0.085733709861    15.994914619570
         N            0.648746571422     0.336318684708    -0.349180290139    14.003074004430
         C            1.936290571422    -0.315398315292    -0.127367290139    12.000000000000
         C           -1.803482428578     0.511960684708    -0.338986290139    12.000000000000
         C            2.292842571422    -0.319883315292     1.354913709861    12.000000000000
         C            2.991310571422     0.368148684708    -0.982384290139    12.000000000000
         C           -0.351501328578    -0.217094615292    -0.204054890139    12.000000000000
         C           -1.915004428578     1.584165684708     0.738585709861    12.000000000000
         H            1.802321571422    -1.348318315292    -0.460357290139     1.007825032230
         H            0.634919571422     1.344067684708    -0.460526290139     1.007825032230
         H           -1.784759428578     0.985001684708    -1.333332290139     1.007825032230
         H            2.392652571422     0.704853684708     1.726628709861     1.007825032230
         H            1.511728571422    -0.828297315292     1.924458709861     1.007825032230
         H            3.240165571422    -0.840766315292     1.523884709861     1.007825032230
         H            3.114535571422     1.414742684708    -0.681235290139     1.007825032230
         H            2.715667571422     0.339194684708    -2.038993290139     1.007825032230
         H            3.957969571422    -0.127040315292    -0.861085290139     1.007825032230
         H           -1.857985428578     1.116656684708     1.724363709861     1.007825032230
         H           -2.882985428578     2.080113684708     0.646570709861     1.007825032230
         H           -1.129974428578     2.342618684708     0.656636709861     1.007825032230
         H           -2.514939428578    -1.240381315292    -0.091540290139     1.007825032230

  Basis Set: AUG-CC-PVTZ
    Blend: AUG-CC-PVTZ
  Basis Set: (AUG-CC-PVTZ AUX)
    Blend: AUG-CC-PVTZ-JKFIT
	 Reference Energy          =    -439.0640937956835614 [Eh]
	 Singles Energy            =      -0.0000000000000000 [Eh]
	 Same-Spin Energy          =      -0.4476398019114869 [Eh]
	 Opposite-Spin Energy      =      -1.4663992608324574 [Eh]
	 Correlation Energy        =      -1.9140390627439443 [Eh]
	 Total Energy              =    -440.9781328584275002 [Eh]

	 ================> DF-SCS-MP2 Energies <==================
	-----------------------------------------------------------
	 SCS Same-Spin Scale       =       0.3333333333333333 [-]
	 SCS Opposite-Spin Scale   =       1.2000000000000000 [-]
	 SCS Same-Spin Energy      =      -0.1492132673038289 [Eh]
	 SCS Opposite-Spin Energy  =      -1.7596791129989489 [Eh]
	 SCS Correlation Energy    =      -1.9088923803027777 [Eh]
	 SCS Total Energy          =    -440.9729861759863638 [Eh]
	-----------------------------------------------------------

  Dipole Moment: [D]
     X:     4.9634      Y:     3.7159      Z:    -0.3930     Total:     6.2127

*** Psi4 exiting successfully. Buy a developer a beer!
