                               Psi4 1.4a3.dev225

  ==> Input File <==

--------------------------------------------------------------------------
#psi4
#
memory 32 gb

molecule  {
0 1
  O       -1.7446660    -1.3796590    -0.7880960
  O       -0.4296620     1.7569970     0.2600660
  N        0.4723820    -0.3330750    -0.0012650
  C        1.8394770     0.0732600     0.3013020
  C       -1.9099390    -0.0103690    -0.3967440
  C        2.4958720     0.7244850    -0.9128940
  C        2.6145980    -1.1365250     0.8043010
  C       -0.5442740     0.5588710    -0.0269710
  C       -2.8608870     0.1360220     0.7815810
  H        1.7638430     0.8203410     1.0982830
  H        0.2750420    -1.2730860    -0.3263580
  H       -2.2656295     0.5755668    -1.2303736
  H        2.5570320     0.0100450    -1.7401110
  H        1.9072700     1.5874400    -1.2316560
  H        3.5085800     1.0627310    -0.6705710
  H        2.6773940    -1.9046250     0.0252330
  H        2.1327900    -1.5715010     1.6841320
  H        3.6348850    -0.8497170     1.0733550
  H       -2.5011890    -0.4705790     1.6169940
  H       -3.8694610    -0.1962540     0.5126420
  H       -2.9055320     1.1820880     1.0905810
  H       -2.6295620    -1.7449530    -0.9570530
units angstrom
no_reorient  #important for SAPT in psi4, default
symmetry c1  #important for SAPT in psi4, default
}

set PROPERTIES_ORIGIN ["COM"]
properties('MP2/aug-cc-pvtz', properties = ['dipole'])
--------------------------------------------------------------------------

    Molecular point group: c1
  Charge       = 0
  Multiplicity = 1
  Basis Set: AUG-CC-PVTZ
    Blend: AUG-CC-PVTZ
  Basis Set: (AUG-CC-PVTZ AUX)
    Blend: AUG-CC-PVTZ-JKFIT

    Orbital Energies [Eh]
    ---------------------

    Doubly Occupied:

       1A    -20.580680     2A    -20.509380     3A    -15.575565
       4A    -11.342816     5A    -11.298668     6A    -11.263920
       7A    -11.228771     8A    -11.221311     9A    -11.209268
      10A     -1.387734    11A     -1.358717    12A     -1.227792
      13A     -1.057855    14A     -1.028841    15A     -0.937124
      16A     -0.897702    17A     -0.814511    18A     -0.777981
      19A     -0.714017    20A     -0.690317    21A     -0.645069
      22A     -0.640599    23A     -0.614172    24A     -0.594478
      25A     -0.578397    26A     -0.563052    27A     -0.551467
      28A     -0.542344    29A     -0.526344    30A     -0.520580
      31A     -0.517379    32A     -0.491014    33A     -0.480161
      34A     -0.460231    35A     -0.413678    36A     -0.382521

  @DF-RHF Final Energy:  -439.13810193654592

   => Energetics <=

    Nuclear Repulsion Energy =            486.0350444469445392
    One-Electron Energy =               -1563.0573829036400184
    Two-Electron Energy =                 637.8842365201495568
    Total Energy =                       -439.1381019365459224
  Basis Set: (AUG-CC-PVTZ AUX)
    Blend: AUG-CC-PVTZ-RI
    Molecular point group: c1

    Geometry (in Angstrom), charge = 0, multiplicity = 1:

       Center              X                  Y                   Z               Mass
    ------------   -----------------  -----------------  -----------------  -----------------
         O           -1.712427987875    -1.400454246301    -0.781199334234    15.994914619570
         O           -0.397423987875     1.736201753699     0.266962665766    15.994914619570
         N            0.504620012125    -0.353870246301     0.005631665766    14.003074004430
         C            1.871715012125     0.052464753699     0.308198665766    12.000000000000
         C           -1.877700987875    -0.031164246301    -0.389847334234    12.000000000000
         C            2.528110012125     0.703689753699    -0.905997334234    12.000000000000
         C            2.646836012125    -1.157320246301     0.811197665766    12.000000000000
         C           -0.512035987875     0.538075753699    -0.020074334234    12.000000000000
         C           -2.828648987875     0.115226753699     0.788477665766    12.000000000000
         H            1.796081012125     0.799545753699     1.105179665766     1.007825032230
         H            0.307280012125    -1.293881246301    -0.319461334234     1.007825032230
         H           -2.233391487875     0.554771553699    -1.223476934234     1.007825032230
         H            2.589270012125    -0.010750246301    -1.733214334234     1.007825032230
         H            1.939508012125     1.566644753699    -1.224759334234     1.007825032230
         H            3.540818012125     1.041935753699    -0.663674334234     1.007825032230
         H            2.709632012125    -1.925420246301     0.032129665766     1.007825032230
         H            2.165028012125    -1.592296246301     1.691028665766     1.007825032230
         H            3.667123012125    -0.870512246301     1.080251665766     1.007825032230
         H           -2.468950987875    -0.491374246301     1.623890665766     1.007825032230
         H           -3.837222987875    -0.217049246301     0.519538665766     1.007825032230
         H           -2.873293987875     1.161292753699     1.097477665766     1.007825032230
         H           -2.597323987875    -1.765748246301    -0.950156334234     1.007825032230

  Basis Set: AUG-CC-PVTZ
    Blend: AUG-CC-PVTZ
  Basis Set: (AUG-CC-PVTZ AUX)
    Blend: AUG-CC-PVTZ-JKFIT
	 Reference Energy          =    -439.1381019365459224 [Eh]
	 Singles Energy            =      -0.0000000000000000 [Eh]
	 Same-Spin Energy          =      -0.4454660266767868 [Eh]
	 Opposite-Spin Energy      =      -1.4633114737340041 [Eh]
	 Correlation Energy        =      -1.9087775004107908 [Eh]
	 Total Energy              =    -441.0468794369567149 [Eh]

	 ================> DF-SCS-MP2 Energies <==================
	-----------------------------------------------------------
	 SCS Same-Spin Scale       =       0.3333333333333333 [-]
	 SCS Opposite-Spin Scale   =       1.2000000000000000 [-]
	 SCS Same-Spin Energy      =      -0.1484886755589289 [Eh]
	 SCS Opposite-Spin Energy  =      -1.7559737684808048 [Eh]
	 SCS Correlation Energy    =      -1.9044624440397337 [Eh]
	 SCS Total Energy          =    -441.0425643805856453 [Eh]
	-----------------------------------------------------------

  Dipole Moment: [D]
     X:    -0.6730      Y:    -2.8677      Z:    -0.4697     Total:     2.9828

*** Psi4 exiting successfully. Buy a developer a beer!
