                               Psi4 1.3.2 release

  ==> Input File <==

--------------------------------------------------------------------------
#psi4
#
memory 32 gb

molecule  {
0 1
  O       -2.8968130    -0.3474360    -0.2563530
  O       -0.5825960    -1.5131530     0.0834280
  N        0.6646380     0.3451110    -0.3514860
  C        1.9521820    -0.3066060    -0.1296730
  C       -1.8661952     0.4592294    -0.3352729
  C        2.3087340    -0.3110910     1.3526080
  C        3.0072020     0.3769410    -0.9846900
  C       -0.5092170    -0.3043550    -0.1811720
  C       -1.8991130     1.5929580     0.7362800
  H        1.8182130    -1.3395260    -0.4626630
  H        0.6508110     1.3528600    -0.4628320
  H       -1.7688680     0.9937940    -1.3356380
  H        2.4085440     0.7136460     1.7243230
  H        1.5276200    -0.8195050     1.9221530
  H        3.2560570    -0.8319740     1.5215790
  H        3.1304270     1.4235350    -0.6835410
  H        2.7315590     0.3479870    -2.0412990
  H        3.9738610    -0.1182480    -0.8633910
  H       -1.8420940     1.1254490     1.7220580
  H       -2.8670940     2.0889060     0.6442650
  H       -1.1140830     2.3514110     0.6543310
  H       -2.4990480    -1.2315890    -0.0938460
units angstrom
no_reorient  #important for SAPT in psi4, default
symmetry c1  #important for SAPT in psi4, default
}

set PROPERTIES_ORIGIN ["COM"]
properties('MP2/aug-cc-pvtz', properties = ['dipole'])
--------------------------------------------------------------------------

    Molecular point group: c1
  Charge       = 0
  Multiplicity = 1
  Basis Set: AUG-CC-PVTZ
    Blend: AUG-CC-PVTZ
  Basis Set: (AUG-CC-PVTZ AUX)
    Blend: AUG-CC-PVTZ-JKFIT

    Orbital Energies [Eh]
    ---------------------

    Doubly Occupied:

       1A    -20.558403     2A    -20.530428     3A    -15.594911
       4A    -11.355431     5A    -11.300753     6A    -11.276846
       7A    -11.231694     8A    -11.227371     9A    -11.221509
      10A     -1.418284    11A     -1.371228    12A     -1.245647
      13A     -1.067017    14A     -1.013445    15A     -0.949155
      16A     -0.886076    17A     -0.823779    18A     -0.794337
      19A     -0.753534    20A     -0.680965    21A     -0.653016
      22A     -0.632044    23A     -0.630264    24A     -0.600955
      25A     -0.595507    26A     -0.567851    27A     -0.554722
      28A     -0.546727    29A     -0.543203    30A     -0.532672
      31A     -0.510980    32A     -0.502363    33A     -0.490890
      34A     -0.432165    35A     -0.424403    36A     -0.399644

  @DF-RHF Final Energy:  -439.12896236482061

   => Energetics <=

    Nuclear Repulsion Energy =            485.5230500709375292
    One-Electron Energy =               -1561.4675860422964888
    Two-Electron Energy =                 636.8155736065384644
    Total Energy =                       -439.1289623648206089
  Basis Set: (AUG-CC-PVTZ AUX)
    Blend: AUG-CC-PVTZ-RI
    Molecular point group: c1

    Geometry (in Angstrom), charge = 0, multiplicity = 1:

       Center              X                  Y                   Z               Mass
    ------------   -----------------  -----------------  -----------------  -----------------
         O           -2.889617780171    -0.341804264366    -0.256903947225    15.994914619570
         O           -0.575400780171    -1.507521264366     0.082877052775    15.994914619570
         N            0.671833219829     0.350742735634    -0.352036947225    14.003074004430
         C            1.959377219829    -0.300974264366    -0.130223947225    12.000000000000
         C           -1.858999980171     0.464861135634    -0.335823847225    12.000000000000
         C            2.315929219829    -0.305459264366     1.352057052775    12.000000000000
         C            3.014397219829     0.382572735634    -0.985240947225    12.000000000000
         C           -0.502021780171    -0.298723264366    -0.181722947225    12.000000000000
         C           -1.891917780171     1.598589735634     0.735729052775    12.000000000000
         H            1.825408219829    -1.333894264366    -0.463213947225     1.007825032230
         H            0.658006219829     1.358491735634    -0.463382947225     1.007825032230
         H           -1.761672780171     0.999425735634    -1.336188947225     1.007825032230
         H            2.415739219829     0.719277735634     1.723772052775     1.007825032230
         H            1.534815219829    -0.813873264366     1.921602052775     1.007825032230
         H            3.263252219829    -0.826342264366     1.521028052775     1.007825032230
         H            3.137622219829     1.429166735634    -0.684091947225     1.007825032230
         H            2.738754219829     0.353618735634    -2.041849947225     1.007825032230
         H            3.981056219829    -0.112616264366    -0.863941947225     1.007825032230
         H           -1.834898780171     1.131080735634     1.721507052775     1.007825032230
         H           -2.859898780171     2.094537735634     0.643714052775     1.007825032230
         H           -1.106887780171     2.357042735634     0.653780052775     1.007825032230
         H           -2.491852780171    -1.225957264366    -0.094396947225     1.007825032230

  Basis Set: AUG-CC-PVTZ
    Blend: AUG-CC-PVTZ
  Basis Set: (AUG-CC-PVTZ AUX)
    Blend: AUG-CC-PVTZ-JKFIT
	 Reference Energy          =    -439.1289623648206089 [Eh]
	 Singles Energy            =      -0.0000000000000000 [Eh]
	 Same-Spin Energy          =      -0.4460535083268994 [Eh]
	 Opposite-Spin Energy      =      -1.4623413982576969 [Eh]
	 Correlation Energy        =      -1.9083949065845962 [Eh]
	 Total Energy              =    -441.0373572714051988 [Eh]

	 ================> DF-SCS-MP2 Energies <==================
	-----------------------------------------------------------
	 SCS Same-Spin Scale       =       0.3333333333333333 [-]
	 SCS Opposite-Spin Scale   =       1.2000000000000000 [-]
	 SCS Same-Spin Energy      =      -0.1486845027756331 [Eh]
	 SCS Opposite-Spin Energy  =      -1.7548096779092364 [Eh]
	 SCS Correlation Energy    =      -1.9034941806848695 [Eh]
	 SCS Total Energy          =    -441.0324565455054540 [Eh]
	-----------------------------------------------------------

  Dipole Moment: [D]
     X:     3.3193      Y:     2.6524      Z:    -0.2306     Total:     4.2552

*** Psi4 exiting successfully. Buy a developer a beer!
