                               Psi4 1.3.2 release

  ==> Input File <==

--------------------------------------------------------------------------
#psi4
#
memory 32 gb

molecule  {
0 1
  O       -2.8968130    -0.3474360    -0.2563530
  O       -0.5825960    -1.5131530     0.0834280
  N        0.6646380     0.3451110    -0.3514860
  C        1.9521820    -0.3066060    -0.1296730
  C       -1.7579187     0.4821990    -0.3335923
  C        2.3087340    -0.3110910     1.3526080
  C        3.0072020     0.3769410    -0.9846900
  C       -0.5092170    -0.3043550    -0.1811720
  C       -1.8991130     1.5929580     0.7362800
  H        1.8182130    -1.3395260    -0.4626630
  H        0.6508110     1.3528600    -0.4628320
  H       -1.7688680     0.9937940    -1.3356380
  H        2.4085440     0.7136460     1.7243230
  H        1.5276200    -0.8195050     1.9221530
  H        3.2560570    -0.8319740     1.5215790
  H        3.1304270     1.4235350    -0.6835410
  H        2.7315590     0.3479870    -2.0412990
  H        3.9738610    -0.1182480    -0.8633910
  H       -1.8420940     1.1254490     1.7220580
  H       -2.8670940     2.0889060     0.6442650
  H       -1.1140830     2.3514110     0.6543310
  H       -2.4679621    -1.2170842    -0.0946403
units angstrom
no_reorient  #important for SAPT in psi4, default
symmetry c1  #important for SAPT in psi4, default
}

set PROPERTIES_ORIGIN ["COM"]
properties('MP2/aug-cc-pvtz', properties = ['dipole'])
--------------------------------------------------------------------------

    Molecular point group: c1
  Charge       = 0
  Multiplicity = 1
  Basis Set: AUG-CC-PVTZ
    Blend: AUG-CC-PVTZ
  Basis Set: (AUG-CC-PVTZ AUX)
    Blend: AUG-CC-PVTZ-JKFIT

    Orbital Energies [Eh]
    ---------------------

    Doubly Occupied:

       1A    -20.549522     2A    -20.533779     3A    -15.596643
       4A    -11.358785     5A    -11.297292     6A    -11.278049
       7A    -11.232813     8A    -11.232288     9A    -11.222737
      10A     -1.401676    11A     -1.347863    12A     -1.249555
      13A     -1.074153    14A     -1.020804    15A     -0.950373
      16A     -0.902205    17A     -0.822015    18A     -0.794966
      19A     -0.740846    20A     -0.678599    21A     -0.647480
      22A     -0.632988    23A     -0.629483    24A     -0.597548
      25A     -0.581329    26A     -0.563452    27A     -0.555776
      28A     -0.549951    29A     -0.539945    30A     -0.528542
      31A     -0.518216    32A     -0.503431    33A     -0.492569
      34A     -0.441591    35A     -0.439168    36A     -0.402123

  @DF-RHF Final Energy:  -439.13418614948881

   => Energetics <=

    Nuclear Repulsion Energy =            486.0177367203573340
    One-Electron Energy =               -1562.4867326516382491
    Two-Electron Energy =                 637.3348097817920461
    Total Energy =                       -439.1341861494888690
  Basis Set: (AUG-CC-PVTZ AUX)
    Blend: AUG-CC-PVTZ-RI
    Molecular point group: c1

    Geometry (in Angstrom), charge = 0, multiplicity = 1:

       Center              X                  Y                   Z               Mass
    ------------   -----------------  -----------------  -----------------  -----------------
         O           -2.899768059872    -0.344018340591    -0.257051677798    15.994914619570
         O           -0.585551059872    -1.509735340591     0.082729322202    15.994914619570
         N            0.661682940128     0.348528659409    -0.352184677798    14.003074004430
         C            1.949226940128    -0.303188340591    -0.130371677798    12.000000000000
         C           -1.760873759872     0.485616659409    -0.334290977798    12.000000000000
         C            2.305778940128    -0.307673340591     1.351909322202    12.000000000000
         C            3.004246940128     0.380358659409    -0.985388677798    12.000000000000
         C           -0.512172059872    -0.300937340591    -0.181870677798    12.000000000000
         C           -1.902068059872     1.596375659409     0.735581322202    12.000000000000
         H            1.815257940128    -1.336108340591    -0.463361677798     1.007825032230
         H            0.647855940128     1.356277659409    -0.463530677798     1.007825032230
         H           -1.771823059872     0.997211659409    -1.336336677798     1.007825032230
         H            2.405588940128     0.717063659409     1.723624322202     1.007825032230
         H            1.524664940128    -0.816087340591     1.921454322202     1.007825032230
         H            3.253101940128    -0.828556340591     1.520880322202     1.007825032230
         H            3.127471940128     1.426952659409    -0.684239677798     1.007825032230
         H            2.728603940128     0.351404659409    -2.041997677798     1.007825032230
         H            3.970905940128    -0.114830340591    -0.864089677798     1.007825032230
         H           -1.845049059872     1.128866659409     1.721359322202     1.007825032230
         H           -2.870049059872     2.092323659409     0.643566322202     1.007825032230
         H           -1.117038059872     2.354828659409     0.653632322202     1.007825032230
         H           -2.470917159872    -1.213666540591    -0.095338977798     1.007825032230

  Basis Set: AUG-CC-PVTZ
    Blend: AUG-CC-PVTZ
  Basis Set: (AUG-CC-PVTZ AUX)
    Blend: AUG-CC-PVTZ-JKFIT
	 Reference Energy          =    -439.1341861494888121 [Eh]
	 Singles Energy            =      -0.0000000000000000 [Eh]
	 Same-Spin Energy          =      -0.4464321665578722 [Eh]
	 Opposite-Spin Energy      =      -1.4643030061604843 [Eh]
	 Correlation Energy        =      -1.9107351727183564 [Eh]
	 Total Energy              =    -441.0449213222071876 [Eh]

	 ================> DF-SCS-MP2 Energies <==================
	-----------------------------------------------------------
	 SCS Same-Spin Scale       =       0.3333333333333333 [-]
	 SCS Opposite-Spin Scale   =       1.2000000000000000 [-]
	 SCS Same-Spin Energy      =      -0.1488107221859574 [Eh]
	 SCS Opposite-Spin Energy  =      -1.7571636073925812 [Eh]
	 SCS Correlation Energy    =      -1.9059743295785385 [Eh]
	 SCS Total Energy          =    -441.0401604790673673 [Eh]
	-----------------------------------------------------------

  Dipole Moment: [D]
     X:     3.6174      Y:     2.9158      Z:    -0.2248     Total:     4.6516

*** Psi4 exiting successfully. Buy a developer a beer!
