                               Psi4 1.3.2 release

  ==> Input File <==

--------------------------------------------------------------------------
#psi4
#
memory 32 gb

molecule  {
0 1
  O       -2.8968130    -0.3474360    -0.2563530
  O       -0.6472378    -1.5074091     0.0837833
  N        0.6279315     0.4044520    -0.3634753
  C        1.9521820    -0.3066060    -0.1296730
  C       -1.7875910     0.5207530    -0.3412920
  C        2.3087340    -0.3110910     1.3526080
  C        3.0072020     0.3769410    -0.9846900
  C       -0.5092170    -0.3043550    -0.1811720
  C       -1.8991130     1.5929580     0.7362800
  H        1.8182130    -1.3395260    -0.4626630
  H        0.6508110     1.3528600    -0.4628320
  H       -1.7688680     0.9937940    -1.3356380
  H        2.4085440     0.7136460     1.7243230
  H        1.5276200    -0.8195050     1.9221530
  H        3.2560570    -0.8319740     1.5215790
  H        3.1304270     1.4235350    -0.6835410
  H        2.7315590     0.3479870    -2.0412990
  H        3.9738610    -0.1182480    -0.8633910
  H       -1.8420940     1.1254490     1.7220580
  H       -2.8670940     2.0889060     0.6442650
  H       -1.1140830     2.3514110     0.6543310
  H       -2.4990480    -1.2315890    -0.0938460
units angstrom
no_reorient  #important for SAPT in psi4, default
symmetry c1  #important for SAPT in psi4, default
}

set PROPERTIES_ORIGIN ["COM"]
properties('MP2/aug-cc-pvtz', properties = ['dipole'])
--------------------------------------------------------------------------

    Molecular point group: c1
  Charge       = 0
  Multiplicity = 1
  Basis Set: AUG-CC-PVTZ
    Blend: AUG-CC-PVTZ
  Basis Set: (AUG-CC-PVTZ AUX)
    Blend: AUG-CC-PVTZ-JKFIT

    Orbital Energies [Eh]
    ---------------------

    Doubly Occupied:

       1A    -20.540915     2A    -20.536431     3A    -15.595146
       4A    -11.359855     5A    -11.289682     6A    -11.284929
       7A    -11.234649     8A    -11.227273     9A    -11.226224
      10A     -1.397315    11A     -1.339074    12A     -1.250238
      13A     -1.074044    14A     -1.021424    15A     -0.952332
      16A     -0.891395    17A     -0.824303    18A     -0.805245
      19A     -0.732885    20A     -0.677904    21A     -0.647396
      22A     -0.636408    23A     -0.627833    24A     -0.601284
      25A     -0.579489    26A     -0.564507    27A     -0.557461
      28A     -0.545250    29A     -0.539190    30A     -0.528272
      31A     -0.508607    32A     -0.503993    33A     -0.494397
      34A     -0.440838    35A     -0.430536    36A     -0.408768

  @DF-RHF Final Energy:  -439.13051740138627

   => Energetics <=

    Nuclear Repulsion Energy =            484.6919887604250903
    One-Electron Energy =               -1559.8940181889681753
    Two-Electron Energy =                 636.0715120271568139
    Total Energy =                       -439.1305174013862143
  Basis Set: (AUG-CC-PVTZ AUX)
    Blend: AUG-CC-PVTZ-RI
    Molecular point group: c1

    Geometry (in Angstrom), charge = 0, multiplicity = 1:

       Center              X                  Y                   Z               Mass
    ------------   -----------------  -----------------  -----------------  -----------------
         O           -2.885005131171    -0.354475361737    -0.255115672112    15.994914619570
         O           -0.635429931171    -1.514448461737     0.085020627888    15.994914619570
         N            0.639739368829     0.397412638263    -0.362237972112    14.003074004430
         C            1.963989868829    -0.313645361737    -0.128435672112    12.000000000000
         C           -1.775783131171     0.513713638263    -0.340054672112    12.000000000000
         C            2.320541868829    -0.318130361737     1.353845327888    12.000000000000
         C            3.019009868829     0.369901638263    -0.983452672112    12.000000000000
         C           -0.497409131171    -0.311394361737    -0.179934672112    12.000000000000
         C           -1.887305131171     1.585918638263     0.737517327888    12.000000000000
         H            1.830020868829    -1.346565361737    -0.461425672112     1.007825032230
         H            0.662618868829     1.345820638263    -0.461594672112     1.007825032230
         H           -1.757060131171     0.986754638263    -1.334400672112     1.007825032230
         H            2.420351868829     0.706606638263     1.725560327888     1.007825032230
         H            1.539427868829    -0.826544361737     1.923390327888     1.007825032230
         H            3.267864868829    -0.839013361737     1.522816327888     1.007825032230
         H            3.142234868829     1.416495638263    -0.682303672112     1.007825032230
         H            2.743366868829     0.340947638263    -2.040061672112     1.007825032230
         H            3.985668868829    -0.125287361737    -0.862153672112     1.007825032230
         H           -1.830286131171     1.118409638263     1.723295327888     1.007825032230
         H           -2.855286131171     2.081866638263     0.645502327888     1.007825032230
         H           -1.102275131171     2.344371638263     0.655568327888     1.007825032230
         H           -2.487240131171    -1.238628361737    -0.092608672112     1.007825032230

  Basis Set: AUG-CC-PVTZ
    Blend: AUG-CC-PVTZ
  Basis Set: (AUG-CC-PVTZ AUX)
    Blend: AUG-CC-PVTZ-JKFIT
	 Reference Energy          =    -439.1305174013862711 [Eh]
	 Singles Energy            =      -0.0000000000000000 [Eh]
	 Same-Spin Energy          =      -0.4456158405188170 [Eh]
	 Opposite-Spin Energy      =      -1.4634072306789125 [Eh]
	 Correlation Energy        =      -1.9090230711977294 [Eh]
	 Total Energy              =    -441.0395404725840081 [Eh]

	 ================> DF-SCS-MP2 Energies <==================
	-----------------------------------------------------------
	 SCS Same-Spin Scale       =       0.3333333333333333 [-]
	 SCS Opposite-Spin Scale   =       1.2000000000000000 [-]
	 SCS Same-Spin Energy      =      -0.1485386135062723 [Eh]
	 SCS Opposite-Spin Energy  =      -1.7560886768146950 [Eh]
	 SCS Correlation Energy    =      -1.9046272903209673 [Eh]
	 SCS Total Energy          =    -441.0351446917072167 [Eh]
	-----------------------------------------------------------

  Dipole Moment: [D]
     X:     3.9647      Y:     2.7830      Z:    -0.1835     Total:     4.8474

*** Psi4 exiting successfully. Buy a developer a beer!
