                               Psi4 1.3.2 release

  ==> Input File <==

--------------------------------------------------------------------------
#psi4
#
memory 32 gb

molecule  {
0 1
  O       -2.8968130    -0.3474360    -0.2563530
  O       -0.5825960    -1.5131530     0.0834280
  N        0.6646380     0.3451110    -0.3514860
  C        1.9521820    -0.3066060    -0.1296730
  C       -1.7875910     0.5207530    -0.3412920
  C        2.3087340    -0.3110910     1.3526080
  C        3.0072020     0.3769410    -0.9846900
  C       -0.4909092    -0.2596973    -0.1172489
  C       -1.8296189     1.5673551     0.7659929
  H        1.8182130    -1.3395260    -0.4626630
  H        0.6508110     1.3528600    -0.4628320
  H       -1.7688680     0.9937940    -1.3356380
  H        2.4085440     0.7136460     1.7243230
  H        1.5276200    -0.8195050     1.9221530
  H        3.2560570    -0.8319740     1.5215790
  H        3.1304270     1.4235350    -0.6835410
  H        2.7315590     0.3479870    -2.0412990
  H        3.9738610    -0.1182480    -0.8633910
  H       -1.8420940     1.1254490     1.7220580
  H       -2.8670940     2.0889060     0.6442650
  H       -1.1140830     2.3514110     0.6543310
  H       -2.4990480    -1.2315890    -0.0938460
units angstrom
no_reorient  #important for SAPT in psi4, default
symmetry c1  #important for SAPT in psi4, default
}

set PROPERTIES_ORIGIN ["COM"]
properties('MP2/aug-cc-pvtz', properties = ['dipole'])
--------------------------------------------------------------------------

    Molecular point group: c1
  Charge       = 0
  Multiplicity = 1
  Basis Set: AUG-CC-PVTZ
    Blend: AUG-CC-PVTZ
  Basis Set: (AUG-CC-PVTZ AUX)
    Blend: AUG-CC-PVTZ-JKFIT

    Orbital Energies [Eh]
    ---------------------

    Doubly Occupied:

       1A    -20.548487     2A    -20.524165     3A    -15.601823
       4A    -11.356500     5A    -11.298899     6A    -11.279945
       7A    -11.234624     8A    -11.231228     9A    -11.224398
      10A     -1.384004    11A     -1.340266    12A     -1.252401
      13A     -1.077635    14A     -1.027706    15A     -0.952201
      16A     -0.893154    17A     -0.826727    18A     -0.800156
      19A     -0.736033    20A     -0.680548    21A     -0.652216
      22A     -0.633052    23A     -0.624968    24A     -0.597132
      25A     -0.584030    26A     -0.563272    27A     -0.557648
      28A     -0.551442    29A     -0.537814    30A     -0.530478
      31A     -0.504663    32A     -0.501514    33A     -0.488208
      34A     -0.447224    35A     -0.425447    36A     -0.402839

  @DF-RHF Final Energy:  -439.12337836259968

   => Energetics <=

    Nuclear Repulsion Energy =            485.9252988374689721
    One-Electron Energy =               -1562.3516573716638050
    Two-Electron Energy =                 637.3029801715950953
    Total Energy =                       -439.1233783625997376
  Basis Set: (AUG-CC-PVTZ AUX)
    Blend: AUG-CC-PVTZ-RI
    Molecular point group: c1

    Geometry (in Angstrom), charge = 0, multiplicity = 1:

       Center              X                  Y                   Z               Mass
    ------------   -----------------  -----------------  -----------------  -----------------
         O           -2.904850083892    -0.349180163820    -0.264924129370    15.994914619570
         O           -0.590633083892    -1.514897163820     0.074856870630    15.994914619570
         N            0.656600916108     0.343366836180    -0.360057129370    14.003074004430
         C            1.944144916108    -0.308350163820    -0.138244129370    12.000000000000
         C           -1.795628083892     0.519008836180    -0.349863129370    12.000000000000
         C            2.300696916108    -0.312835163820     1.344036870630    12.000000000000
         C            2.999164916108     0.375196836180    -0.993261129370    12.000000000000
         C           -0.498946283892    -0.261441463820    -0.125820029370    12.000000000000
         C           -1.837655983892     1.565610936180     0.757421770630    12.000000000000
         H            1.810175916108    -1.341270163820    -0.471234129370     1.007825032230
         H            0.642773916108     1.351115836180    -0.471403129370     1.007825032230
         H           -1.776905083892     0.992049836180    -1.344209129370     1.007825032230
         H            2.400506916108     0.711901836180     1.715751870630     1.007825032230
         H            1.519582916108    -0.821249163820     1.913581870630     1.007825032230
         H            3.248019916108    -0.833718163820     1.513007870630     1.007825032230
         H            3.122389916108     1.421790836180    -0.692112129370     1.007825032230
         H            2.723521916108     0.346242836180    -2.049870129370     1.007825032230
         H            3.965823916108    -0.119992163820    -0.871962129370     1.007825032230
         H           -1.850131083892     1.123704836180     1.713486870630     1.007825032230
         H           -2.875131083892     2.087161836180     0.635693870630     1.007825032230
         H           -1.122120083892     2.349666836180     0.645759870630     1.007825032230
         H           -2.507085083892    -1.233333163820    -0.102417129370     1.007825032230

  Basis Set: AUG-CC-PVTZ
    Blend: AUG-CC-PVTZ
  Basis Set: (AUG-CC-PVTZ AUX)
    Blend: AUG-CC-PVTZ-JKFIT
	 Reference Energy          =    -439.1233783625996807 [Eh]
	 Singles Energy            =      -0.0000000000000000 [Eh]
	 Same-Spin Energy          =      -0.4471725717838366 [Eh]
	 Opposite-Spin Energy      =      -1.4658168912610245 [Eh]
	 Correlation Energy        =      -1.9129894630448612 [Eh]
	 Total Energy              =    -441.0363678256445610 [Eh]

	 ================> DF-SCS-MP2 Energies <==================
	-----------------------------------------------------------
	 SCS Same-Spin Scale       =       0.3333333333333333 [-]
	 SCS Opposite-Spin Scale   =       1.2000000000000000 [-]
	 SCS Same-Spin Energy      =      -0.1490575239279455 [Eh]
	 SCS Opposite-Spin Energy  =      -1.7589802695132295 [Eh]
	 SCS Correlation Energy    =      -1.9080377934411750 [Eh]
	 SCS Total Energy          =    -441.0314161560408479 [Eh]
	-----------------------------------------------------------

  Dipole Moment: [D]
     X:     3.7983      Y:     3.0979      Z:    -0.2320     Total:     4.9069

*** Psi4 exiting successfully. Buy a developer a beer!
