                               Psi4 1.3.2 release

  ==> Input File <==

--------------------------------------------------------------------------
#psi4
#
memory 32 gb

molecule  {
0 1
  O       -2.8968130    -0.3474360    -0.2563530
  O       -0.5825960    -1.5131530     0.0834280
  N        0.6646380     0.3451110    -0.3514860
  C        1.9521820    -0.3066060    -0.1296730
  C       -1.7875910     0.5207530    -0.3412920
  C        2.3087340    -0.3110910     1.3526080
  C        3.0072020     0.3769410    -0.9846900
  C       -0.5343683    -0.3252454    -0.1080512
  C       -1.8991130     1.5929580     0.7362800
  H        1.8182130    -1.3395260    -0.4626630
  H        0.6508110     1.3528600    -0.4628320
  H       -1.8199050     1.0177343    -1.3235383
  H        2.4085440     0.7136460     1.7243230
  H        1.5276200    -0.8195050     1.9221530
  H        3.2560570    -0.8319740     1.5215790
  H        3.1304270     1.4235350    -0.6835410
  H        2.7315590     0.3479870    -2.0412990
  H        3.9738610    -0.1182480    -0.8633910
  H       -1.8420940     1.1254490     1.7220580
  H       -2.8670940     2.0889060     0.6442650
  H       -1.1140830     2.3514110     0.6543310
  H       -2.4990480    -1.2315890    -0.0938460
units angstrom
no_reorient  #important for SAPT in psi4, default
symmetry c1  #important for SAPT in psi4, default
}

set PROPERTIES_ORIGIN ["COM"]
properties('MP2/aug-cc-pvtz', properties = ['dipole'])
--------------------------------------------------------------------------

    Molecular point group: c1
  Charge       = 0
  Multiplicity = 1
  Basis Set: AUG-CC-PVTZ
    Blend: AUG-CC-PVTZ
  Basis Set: (AUG-CC-PVTZ AUX)
    Blend: AUG-CC-PVTZ-JKFIT

    Orbital Energies [Eh]
    ---------------------

    Doubly Occupied:

       1A    -20.548570     2A    -20.543572     3A    -15.587827
       4A    -11.360804     5A    -11.297189     6A    -11.273221
       7A    -11.229803     8A    -11.229603     9A    -11.220265
      10A     -1.418435    11A     -1.351749    12A     -1.237115
      13A     -1.066786    14A     -1.022371    15A     -0.947477
      16A     -0.891207    17A     -0.817862    18A     -0.786855
      19A     -0.741599    20A     -0.681061    21A     -0.650412
      22A     -0.636697    23A     -0.626917    24A     -0.599263
      25A     -0.581922    26A     -0.568284    27A     -0.552891
      28A     -0.545171    29A     -0.539644    30A     -0.533320
      31A     -0.518683    32A     -0.503654    33A     -0.490438
      34A     -0.445397    35A     -0.436848    36A     -0.398207

  @DF-RHF Final Energy:  -439.13393204069450

   => Energetics <=

    Nuclear Repulsion Energy =            485.3744312614263663
    One-Electron Energy =               -1561.2544904148137448
    Two-Electron Energy =                 636.7461271126927613
    Total Energy =                       -439.1339320406945035
  Basis Set: (AUG-CC-PVTZ AUX)
    Blend: AUG-CC-PVTZ-RI
    Molecular point group: c1

    Geometry (in Angstrom), charge = 0, multiplicity = 1:

       Center              X                  Y                   Z               Mass
    ------------   -----------------  -----------------  -----------------  -----------------
         O           -2.894118334006    -0.345707750259    -0.263139250600    15.994914619570
         O           -0.579901334006    -1.511424750259     0.076641749400    15.994914619570
         N            0.667332665994     0.346839249741    -0.358272250600    14.003074004430
         C            1.954876665994    -0.304877750259    -0.136459250600    12.000000000000
         C           -1.784896334006     0.522481249741    -0.348078250600    12.000000000000
         C            2.311428665994    -0.309362750259     1.345821749400    12.000000000000
         C            3.009896665994     0.378669249741    -0.991476250600    12.000000000000
         C           -0.531673634006    -0.323517150259    -0.114837450600    12.000000000000
         C           -1.896418334006     1.594686249741     0.729493749400    12.000000000000
         H            1.820907665994    -1.337797750259    -0.469449250600     1.007825032230
         H            0.653505665994     1.354588249741    -0.469618250600     1.007825032230
         H           -1.817210334006     1.019462549741    -1.330324550600     1.007825032230
         H            2.411238665994     0.715374249741     1.717536749400     1.007825032230
         H            1.530314665994    -0.817776750259     1.915366749400     1.007825032230
         H            3.258751665994    -0.830245750259     1.514792749400     1.007825032230
         H            3.133121665994     1.425263249741    -0.690327250600     1.007825032230
         H            2.734253665994     0.349715249741    -2.048085250600     1.007825032230
         H            3.976555665994    -0.116519750259    -0.870177250600     1.007825032230
         H           -1.839399334006     1.127177249741     1.715271749400     1.007825032230
         H           -2.864399334006     2.090634249741     0.637478749400     1.007825032230
         H           -1.111388334006     2.353139249741     0.647544749400     1.007825032230
         H           -2.496353334006    -1.229860750259    -0.100632250600     1.007825032230

  Basis Set: AUG-CC-PVTZ
    Blend: AUG-CC-PVTZ
  Basis Set: (AUG-CC-PVTZ AUX)
    Blend: AUG-CC-PVTZ-JKFIT
	 Reference Energy          =    -439.1339320406945035 [Eh]
	 Singles Energy            =      -0.0000000000000000 [Eh]
	 Same-Spin Energy          =      -0.4456176873564506 [Eh]
	 Opposite-Spin Energy      =      -1.4631148390243742 [Eh]
	 Correlation Energy        =      -1.9087325263808248 [Eh]
	 Total Energy              =    -441.0426645670753487 [Eh]

	 ================> DF-SCS-MP2 Energies <==================
	-----------------------------------------------------------
	 SCS Same-Spin Scale       =       0.3333333333333333 [-]
	 SCS Opposite-Spin Scale   =       1.2000000000000000 [-]
	 SCS Same-Spin Energy      =      -0.1485392291188168 [Eh]
	 SCS Opposite-Spin Energy  =      -1.7557378068292491 [Eh]
	 SCS Correlation Energy    =      -1.9042770359480659 [Eh]
	 SCS Total Energy          =    -441.0382090766425449 [Eh]
	-----------------------------------------------------------

  Dipole Moment: [D]
     X:     3.2877      Y:     2.6870      Z:    -0.1472     Total:     4.2486

*** Psi4 exiting successfully. Buy a developer a beer!
