                               Psi4 1.4a3.dev225

  ==> Input File <==

--------------------------------------------------------------------------
#psi4
#
memory 32 gb

molecule  {
0 1
  O       -1.7446660    -1.3796590    -0.7880960
  O       -0.4296620     1.7569970     0.2600660
  N        0.4723820    -0.3330750    -0.0012650
  C        1.8394770     0.0732600     0.3013020
  C       -1.9099390    -0.0103690    -0.3967440
  C        2.4958720     0.7244850    -0.9128940
  C        2.6145980    -1.1365250     0.8043010
  C       -0.5442740     0.5588710    -0.0269710
  C       -2.8608870     0.1360220     0.7815810
  H        1.7638430     0.8203410     1.0982830
  H        0.2847725    -1.2267356    -0.3103282
  H       -2.2722210     0.5864250    -1.2458220
  H        2.5570320     0.0100450    -1.7401110
  H        1.9072700     1.5874400    -1.2316560
  H        3.5085800     1.0627310    -0.6705710
  H        2.6773940    -1.9046250     0.0252330
  H        2.1327900    -1.5715010     1.6841320
  H        3.6348850    -0.8497170     1.0733550
  H       -2.5011890    -0.4705790     1.6169940
  H       -3.8694610    -0.1962540     0.5126420
  H       -2.9055320     1.1820880     1.0905810
  H       -2.6295620    -1.7449530    -0.9570530
units angstrom
no_reorient  #important for SAPT in psi4, default
symmetry c1  #important for SAPT in psi4, default
}

set PROPERTIES_ORIGIN ["COM"]
properties('MP2/aug-cc-pvtz', properties = ['dipole'])
--------------------------------------------------------------------------

    Molecular point group: c1
  Charge       = 0
  Multiplicity = 1
  Basis Set: AUG-CC-PVTZ
    Blend: AUG-CC-PVTZ
  Basis Set: (AUG-CC-PVTZ AUX)
    Blend: AUG-CC-PVTZ-JKFIT

    Orbital Energies [Eh]
    ---------------------

    Doubly Occupied:

       1A    -20.580626     2A    -20.509826     3A    -15.571590
       4A    -11.343345     5A    -11.301138     6A    -11.264262
       7A    -11.229021     8A    -11.221597     9A    -11.209584
      10A     -1.387863    11A     -1.359235    12A     -1.233880
      13A     -1.058567    14A     -1.029167    15A     -0.937579
      16A     -0.897717    17A     -0.815005    18A     -0.788388
      19A     -0.712035    20A     -0.690970    21A     -0.645974
      22A     -0.641752    23A     -0.614671    24A     -0.596132
      25A     -0.579468    26A     -0.563081    27A     -0.552024
      28A     -0.542625    29A     -0.526369    30A     -0.520873
      31A     -0.517799    32A     -0.491288    33A     -0.480689
      34A     -0.459148    35A     -0.414292    36A     -0.383752

  @DF-RHF Final Energy:  -439.13776283414973

   => Energetics <=

    Nuclear Repulsion Energy =            486.2176875548964290
    One-Electron Energy =               -1563.3682356877245638
    Two-Electron Energy =                 638.0127852986784092
    Total Energy =                       -439.1377628341497257
  Basis Set: (AUG-CC-PVTZ AUX)
    Blend: AUG-CC-PVTZ-RI
    Molecular point group: c1

    Geometry (in Angstrom), charge = 0, multiplicity = 1:

       Center              X                  Y                   Z               Mass
    ------------   -----------------  -----------------  -----------------  -----------------
         O           -1.712452119777    -1.400894052720    -0.781203803902    15.994914619570
         O           -0.397448119777     1.735761947280     0.266958196098    15.994914619570
         N            0.504595880223    -0.354310052720     0.005627196098    14.003074004430
         C            1.871690880223     0.052024947280     0.308194196098    12.000000000000
         C           -1.877725119777    -0.031604052720    -0.389851803902    12.000000000000
         C            2.528085880223     0.703249947280    -0.906001803902    12.000000000000
         C            2.646811880223    -1.157760052720     0.811193196098    12.000000000000
         C           -0.512060119777     0.537635947280    -0.020078803902    12.000000000000
         C           -2.828673119777     0.114786947280     0.788473196098    12.000000000000
         H            1.796056880223     0.799105947280     1.105175196098     1.007825032230
         H            0.316986380223    -1.247970652720    -0.303436003902     1.007825032230
         H           -2.240007119777     0.565189947280    -1.238929803902     1.007825032230
         H            2.589245880223    -0.011190052720    -1.733218803902     1.007825032230
         H            1.939483880223     1.566204947280    -1.224763803902     1.007825032230
         H            3.540793880223     1.041495947280    -0.663678803902     1.007825032230
         H            2.709607880223    -1.925860052720     0.032125196098     1.007825032230
         H            2.165003880223    -1.592736052720     1.691024196098     1.007825032230
         H            3.667098880223    -0.870952052720     1.080247196098     1.007825032230
         H           -2.468975119777    -0.491814052720     1.623886196098     1.007825032230
         H           -3.837247119777    -0.217489052720     0.519534196098     1.007825032230
         H           -2.873318119777     1.160852947280     1.097473196098     1.007825032230
         H           -2.597348119777    -1.766188052720    -0.950160803902     1.007825032230

  Basis Set: AUG-CC-PVTZ
    Blend: AUG-CC-PVTZ
  Basis Set: (AUG-CC-PVTZ AUX)
    Blend: AUG-CC-PVTZ-JKFIT
	 Reference Energy          =    -439.1377628341497257 [Eh]
	 Singles Energy            =      -0.0000000000000000 [Eh]
	 Same-Spin Energy          =      -0.4449988302731871 [Eh]
	 Opposite-Spin Energy      =      -1.4625158671863820 [Eh]
	 Correlation Energy        =      -1.9075146974595691 [Eh]
	 Total Energy              =    -441.0452775316093152 [Eh]

	 ================> DF-SCS-MP2 Energies <==================
	-----------------------------------------------------------
	 SCS Same-Spin Scale       =       0.3333333333333333 [-]
	 SCS Opposite-Spin Scale   =       1.2000000000000000 [-]
	 SCS Same-Spin Energy      =      -0.1483329434243957 [Eh]
	 SCS Opposite-Spin Energy  =      -1.7550190406236583 [Eh]
	 SCS Correlation Energy    =      -1.9033519840480539 [Eh]
	 SCS Total Energy          =    -441.0411148181977978 [Eh]
	-----------------------------------------------------------

  Dipole Moment: [D]
     X:    -0.6543      Y:    -2.8250      Z:    -0.4465     Total:     2.9339

*** Psi4 exiting successfully. Buy a developer a beer!
