                               Psi4 1.3.2 release

  ==> Input File <==

--------------------------------------------------------------------------
#psi4
#
memory 32 gb

molecule  {
0 1
  O       -2.8968130    -0.3474360    -0.2563530
  O       -0.5825960    -1.5131530     0.0834280
  N        0.6646380     0.3451110    -0.3514860
  C        1.9521820    -0.3066060    -0.1296730
  C       -1.7875910     0.5207530    -0.3412920
  C        2.3087340    -0.3110910     1.3526080
  C        3.0072020     0.3769410    -0.9846900
  C       -0.5927748    -0.2504239    -0.1916378
  C       -1.8991130     1.5929580     0.7362800
  H        1.8182130    -1.3395260    -0.4626630
  H        0.6508110     1.3528600    -0.4628320
  H       -1.7688680     0.9937940    -1.3356380
  H        2.4085440     0.7136460     1.7243230
  H        1.5276200    -0.8195050     1.9221530
  H        3.2560570    -0.8319740     1.5215790
  H        3.1304270     1.4235350    -0.6835410
  H        2.7315590     0.3479870    -2.0412990
  H        3.9738610    -0.1182480    -0.8633910
  H       -1.8420940     1.1254490     1.7220580
  H       -2.8670940     2.0889060     0.6442650
  H       -1.1140830     2.3514110     0.6543310
  H       -2.4990480    -1.2315890    -0.0938460
units angstrom
no_reorient  #important for SAPT in psi4, default
symmetry c1  #important for SAPT in psi4, default
}

set PROPERTIES_ORIGIN ["COM"]
properties('MP2/aug-cc-pvtz', properties = ['dipole'])
--------------------------------------------------------------------------

    Molecular point group: c1
  Charge       = 0
  Multiplicity = 1
  Basis Set: AUG-CC-PVTZ
    Blend: AUG-CC-PVTZ
  Basis Set: (AUG-CC-PVTZ AUX)
    Blend: AUG-CC-PVTZ-JKFIT

    Orbital Energies [Eh]
    ---------------------

    Doubly Occupied:

       1A    -20.552843     2A    -20.530975     3A    -15.593914
       4A    -11.367662     5A    -11.300836     6A    -11.275691
       7A    -11.238088     8A    -11.230341     9A    -11.219327
      10A     -1.387010    11A     -1.335991    12A     -1.229561
      13A     -1.079043    14A     -1.030908    15A     -0.946969
      16A     -0.916569    17A     -0.822442    18A     -0.780808
      19A     -0.744686    20A     -0.681675    21A     -0.650392
      22A     -0.626739    23A     -0.626421    24A     -0.586175
      25A     -0.581803    26A     -0.572952    27A     -0.552871
      28A     -0.548248    29A     -0.539612    30A     -0.522708
      31A     -0.515115    32A     -0.496995    33A     -0.486690
      34A     -0.450110    35A     -0.442636    36A     -0.393048

  @DF-RHF Final Energy:  -439.11800891284560

   => Energetics <=

    Nuclear Repulsion Energy =            484.9469643911783123
    One-Electron Energy =               -1560.4142405987997790
    Two-Electron Energy =                 636.3492672947759274
    Total Energy =                       -439.1180089128456530
  Basis Set: (AUG-CC-PVTZ AUX)
    Blend: AUG-CC-PVTZ-RI
    Molecular point group: c1

    Geometry (in Angstrom), charge = 0, multiplicity = 1:

       Center              X                  Y                   Z               Mass
    ------------   -----------------  -----------------  -----------------  -----------------
         O           -2.889164342829    -0.352372633292    -0.255394970069    15.994914619570
         O           -0.574947342829    -1.518089633292     0.084386029931    15.994914619570
         N            0.672286657171     0.340174366708    -0.350527970069    14.003074004430
         C            1.959830657171    -0.311542633292    -0.128714970069    12.000000000000
         C           -1.779942342829     0.515816366708    -0.340333970069    12.000000000000
         C            2.316382657171    -0.316027633292     1.353566029931    12.000000000000
         C            3.014850657171     0.372004366708    -0.983731970069    12.000000000000
         C           -0.585126142829    -0.255360533292    -0.190679770069    12.000000000000
         C           -1.891464342829     1.588021366708     0.737238029931    12.000000000000
         H            1.825861657171    -1.344462633292    -0.461704970069     1.007825032230
         H            0.658459657171     1.347923366708    -0.461873970069     1.007825032230
         H           -1.761219342829     0.988857366708    -1.334679970069     1.007825032230
         H            2.416192657171     0.708709366708     1.725281029931     1.007825032230
         H            1.535268657171    -0.824441633292     1.923111029931     1.007825032230
         H            3.263705657171    -0.836910633292     1.522537029931     1.007825032230
         H            3.138075657171     1.418598366708    -0.682582970069     1.007825032230
         H            2.739207657171     0.343050366708    -2.040340970069     1.007825032230
         H            3.981509657171    -0.123184633292    -0.862432970069     1.007825032230
         H           -1.834445342829     1.120512366708     1.723016029931     1.007825032230
         H           -2.859445342829     2.083969366708     0.645223029931     1.007825032230
         H           -1.106434342829     2.346474366708     0.655289029931     1.007825032230
         H           -2.491399342829    -1.236525633292    -0.092887970069     1.007825032230

  Basis Set: AUG-CC-PVTZ
    Blend: AUG-CC-PVTZ
  Basis Set: (AUG-CC-PVTZ AUX)
    Blend: AUG-CC-PVTZ-JKFIT
	 Reference Energy          =    -439.1180089128455961 [Eh]
	 Singles Energy            =      -0.0000000000000000 [Eh]
	 Same-Spin Energy          =      -0.4481969476105614 [Eh]
	 Opposite-Spin Energy      =      -1.4678160917020917 [Eh]
	 Correlation Energy        =      -1.9160130393126531 [Eh]
	 Total Energy              =    -441.0340219521582412 [Eh]

	 ================> DF-SCS-MP2 Energies <==================
	-----------------------------------------------------------
	 SCS Same-Spin Scale       =       0.3333333333333333 [-]
	 SCS Opposite-Spin Scale   =       1.2000000000000000 [-]
	 SCS Same-Spin Energy      =      -0.1493989825368538 [Eh]
	 SCS Opposite-Spin Energy  =      -1.7613793100425099 [Eh]
	 SCS Correlation Energy    =      -1.9107782925793637 [Eh]
	 SCS Total Energy          =    -441.0287872054249760 [Eh]
	-----------------------------------------------------------

  Dipole Moment: [D]
     X:     3.1656      Y:     3.1250      Z:    -0.2305     Total:     4.4541

*** Psi4 exiting successfully. Buy a developer a beer!
