                               Psi4 1.3.2 release

  ==> Input File <==

--------------------------------------------------------------------------
#psi4
#
memory 32 gb

molecule  {
0 1
  O       -2.8968130    -0.3474360    -0.2563530
  O       -0.5825960    -1.5131530     0.0834280
  N        0.6646380     0.3451110    -0.3514860
  C        1.9521820    -0.3066060    -0.1296730
  C       -1.7875910     0.5207530    -0.3412920
  C        2.3087340    -0.3110910     1.3526080
  C        3.0072020     0.3769410    -0.9846900
  C       -0.5092170    -0.3043550    -0.1811720
  C       -1.8991130     1.5929580     0.7362800
  H        1.8182130    -1.3395260    -0.4626630
  H        0.6480837     1.5516318    -0.4847943
  H       -1.7688680     0.9937940    -1.3356380
  H        2.4085440     0.7136460     1.7243230
  H        1.5276200    -0.8195050     1.9221530
  H        3.2560570    -0.8319740     1.5215790
  H        3.1304270     1.4235350    -0.6835410
  H        2.7315590     0.3479870    -2.0412990
  H        3.9738610    -0.1182480    -0.8633910
  H       -1.8420940     1.1254490     1.7220580
  H       -2.8670940     2.0889060     0.6442650
  H       -1.1140830     2.3514110     0.6543310
  H       -2.4990480    -1.2315890    -0.0938460
units angstrom
no_reorient  #important for SAPT in psi4, default
symmetry c1  #important for SAPT in psi4, default
}

set PROPERTIES_ORIGIN ["COM"]
properties('MP2/aug-cc-pvtz', properties = ['dipole'])
--------------------------------------------------------------------------

    Molecular point group: c1
  Charge       = 0
  Multiplicity = 1
  Basis Set: AUG-CC-PVTZ
    Blend: AUG-CC-PVTZ
  Basis Set: (AUG-CC-PVTZ AUX)
    Blend: AUG-CC-PVTZ-JKFIT

    Orbital Energies [Eh]
    ---------------------

    Doubly Occupied:

       1A    -20.547100     2A    -20.531944     3A    -15.611013
       4A    -11.357892     5A    -11.296428     6A    -11.277700
       7A    -11.231861     8A    -11.230289     9A    -11.221749
      10A     -1.395944    11A     -1.344817    12A     -1.232098
      13A     -1.069833    14A     -1.021329    15A     -0.949021
      16A     -0.893211    17A     -0.819321    18A     -0.761658
      19A     -0.733877    20A     -0.676829    21A     -0.644522
      22A     -0.628155    23A     -0.622086    24A     -0.590252
      25A     -0.580668    26A     -0.566576    27A     -0.554522
      28A     -0.547031    29A     -0.538126    30A     -0.529641
      31A     -0.508425    32A     -0.502244    33A     -0.490418
      34A     -0.444187    35A     -0.433251    36A     -0.398804

  @DF-RHF Final Energy:  -439.10737447074632

   => Energetics <=

    Nuclear Repulsion Energy =            484.2395688249674777
    One-Electron Energy =               -1559.1282388856827765
    Two-Electron Energy =                 635.7812955899690905
    Total Energy =                       -439.1073744707463220
  Basis Set: (AUG-CC-PVTZ AUX)
    Blend: AUG-CC-PVTZ-RI
    Molecular point group: c1

    Geometry (in Angstrom), charge = 0, multiplicity = 1:

       Center              X                  Y                   Z               Mass
    ------------   -----------------  -----------------  -----------------  -----------------
         O           -2.896792000567    -0.348964057298    -0.256184136226    15.994914619570
         O           -0.582575000567    -1.514681057298     0.083596863774    15.994914619570
         N            0.664658999433     0.343582942702    -0.351317136226    14.003074004430
         C            1.952202999433    -0.308134057298    -0.129504136226    12.000000000000
         C           -1.787570000567     0.519224942702    -0.341123136226    12.000000000000
         C            2.308754999433    -0.312619057298     1.352776863774    12.000000000000
         C            3.007222999433     0.375412942702    -0.984521136226    12.000000000000
         C           -0.509196000567    -0.305883057298    -0.181003136226    12.000000000000
         C           -1.899092000567     1.591429942702     0.736448863774    12.000000000000
         H            1.818233999433    -1.341054057298    -0.462494136226     1.007825032230
         H            0.648104699433     1.550103742702    -0.484625436226     1.007825032230
         H           -1.768847000567     0.992265942702    -1.335469136226     1.007825032230
         H            2.408564999433     0.712117942702     1.724491863774     1.007825032230
         H            1.527640999433    -0.821033057298     1.922321863774     1.007825032230
         H            3.256077999433    -0.833502057298     1.521747863774     1.007825032230
         H            3.130447999433     1.422006942702    -0.683372136226     1.007825032230
         H            2.731579999433     0.346458942702    -2.041130136226     1.007825032230
         H            3.973881999433    -0.119776057298    -0.863222136226     1.007825032230
         H           -1.842073000567     1.123920942702     1.722226863774     1.007825032230
         H           -2.867073000567     2.087377942702     0.644433863774     1.007825032230
         H           -1.114062000567     2.349882942702     0.654499863774     1.007825032230
         H           -2.499027000567    -1.233117057298    -0.093677136226     1.007825032230

  Basis Set: AUG-CC-PVTZ
    Blend: AUG-CC-PVTZ
  Basis Set: (AUG-CC-PVTZ AUX)
    Blend: AUG-CC-PVTZ-JKFIT
	 Reference Energy          =    -439.1073744707463220 [Eh]
	 Singles Energy            =      -0.0000000000000000 [Eh]
	 Same-Spin Energy          =      -0.4478065846213971 [Eh]
	 Opposite-Spin Energy      =      -1.4681457543983116 [Eh]
	 Correlation Energy        =      -1.9159523390197086 [Eh]
	 Total Energy              =    -441.0233268097660471 [Eh]

	 ================> DF-SCS-MP2 Energies <==================
	-----------------------------------------------------------
	 SCS Same-Spin Scale       =       0.3333333333333333 [-]
	 SCS Opposite-Spin Scale   =       1.2000000000000000 [-]
	 SCS Same-Spin Energy      =      -0.1492688615404657 [Eh]
	 SCS Opposite-Spin Energy  =      -1.7617749052779739 [Eh]
	 SCS Correlation Energy    =      -1.9110437668184397 [Eh]
	 SCS Total Energy          =    -441.0184182375647879 [Eh]
	-----------------------------------------------------------

  Dipole Moment: [D]
     X:     3.6134      Y:     3.0381      Z:    -0.2403     Total:     4.7270

*** Psi4 exiting successfully. Buy a developer a beer!
