                               Psi4 1.4a3.dev225

  ==> Input File <==

--------------------------------------------------------------------------
#psi4
#
memory 32 gb

molecule  {
0 1
  O       -1.7446660    -1.3796590    -0.7880960
  O       -0.4296620     1.7569970     0.2600660
  N        0.4723820    -0.3330750    -0.0012650
  C        1.8394770     0.0732600     0.3013020
  C       -1.9099390    -0.0103690    -0.3967440
  C        2.4958720     0.7244850    -0.9128940
  C        2.6145980    -1.1365250     0.8043010
  C       -0.5890481     0.5402081    -0.0390942
  C       -2.8608870     0.1360220     0.7815810
  H        1.7638430     0.8203410     1.0982830
  H        0.2750420    -1.2730860    -0.3263580
  H       -2.2722210     0.5864250    -1.2458220
  H        2.5570320     0.0100450    -1.7401110
  H        1.9072700     1.5874400    -1.2316560
  H        3.5085800     1.0627310    -0.6705710
  H        2.6773940    -1.9046250     0.0252330
  H        2.1327900    -1.5715010     1.6841320
  H        3.6348850    -0.8497170     1.0733550
  H       -2.5011890    -0.4705790     1.6169940
  H       -3.8694610    -0.1962540     0.5126420
  H       -2.9055320     1.1820880     1.0905810
  H       -2.6295620    -1.7449530    -0.9570530
units angstrom
no_reorient  #important for SAPT in psi4, default
symmetry c1  #important for SAPT in psi4, default
}

set PROPERTIES_ORIGIN ["COM"]
properties('MP2/aug-cc-pvtz', properties = ['dipole'])
--------------------------------------------------------------------------

    Molecular point group: c1
  Charge       = 0
  Multiplicity = 1
  Basis Set: AUG-CC-PVTZ
    Blend: AUG-CC-PVTZ
  Basis Set: (AUG-CC-PVTZ AUX)
    Blend: AUG-CC-PVTZ-JKFIT

    Orbital Energies [Eh]
    ---------------------

    Doubly Occupied:

       1A    -20.584030     2A    -20.507818     3A    -15.575128
       4A    -11.346644     5A    -11.303693     6A    -11.263230
       7A    -11.232424     8A    -11.220431     9A    -11.207789
      10A     -1.390201    11A     -1.345820    12A     -1.218505
      13A     -1.061831    14A     -1.031401    15A     -0.935689
      16A     -0.907473    17A     -0.813613    18A     -0.770528
      19A     -0.716032    20A     -0.694515    21A     -0.647342
      22A     -0.638711    23A     -0.613280    24A     -0.588650
      25A     -0.574557    26A     -0.565775    27A     -0.552419
      28A     -0.541083    29A     -0.527734    30A     -0.518923
      31A     -0.514986    32A     -0.489498    33A     -0.479113
      34A     -0.458975    35A     -0.417184    36A     -0.377870

  @DF-RHF Final Energy:  -439.13160908690941

   => Energetics <=

    Nuclear Repulsion Energy =            485.7380357862904248
    One-Electron Energy =               -1562.4734951077628011
    Two-Electron Energy =                 637.6038502345628558
    Total Energy =                       -439.1316090869094069
  Basis Set: (AUG-CC-PVTZ AUX)
    Blend: AUG-CC-PVTZ-RI
    Molecular point group: c1

    Geometry (in Angstrom), charge = 0, multiplicity = 1:

       Center              X                  Y                   Z               Mass
    ------------   -----------------  -----------------  -----------------  -----------------
         O           -1.708278830245    -1.398829377026    -0.779970850002    15.994914619570
         O           -0.393274830245     1.737826622974     0.268191149998    15.994914619570
         N            0.508769169755    -0.352245377026     0.006860149998    14.003074004430
         C            1.875864169755     0.054089622974     0.309427149998    12.000000000000
         C           -1.873551830245    -0.029539377026    -0.388618850002    12.000000000000
         C            2.532259169755     0.705314622974    -0.904768850002    12.000000000000
         C            2.650985169755    -1.155695377026     0.812426149998    12.000000000000
         C           -0.552660930245     0.521037722974    -0.030969050002    12.000000000000
         C           -2.824499830245     0.116851622974     0.789706149998    12.000000000000
         H            1.800230169755     0.801170622974     1.106408149998     1.007825032230
         H            0.311429169755    -1.292256377026    -0.318232850002     1.007825032230
         H           -2.235833830245     0.567254622974    -1.237696850002     1.007825032230
         H            2.593419169755    -0.009125377026    -1.731985850002     1.007825032230
         H            1.943657169755     1.568269622974    -1.223530850002     1.007825032230
         H            3.544967169755     1.043560622974    -0.662445850002     1.007825032230
         H            2.713781169755    -1.923795377026     0.033358149998     1.007825032230
         H            2.169177169755    -1.590671377026     1.692257149998     1.007825032230
         H            3.671272169755    -0.868887377026     1.081480149998     1.007825032230
         H           -2.464801830245    -0.489749377026     1.625119149998     1.007825032230
         H           -3.833073830245    -0.215424377026     0.520767149998     1.007825032230
         H           -2.869144830245     1.162917622974     1.098706149998     1.007825032230
         H           -2.593174830245    -1.764123377026    -0.948927850002     1.007825032230

  Basis Set: AUG-CC-PVTZ
    Blend: AUG-CC-PVTZ
  Basis Set: (AUG-CC-PVTZ AUX)
    Blend: AUG-CC-PVTZ-JKFIT
	 Reference Energy          =    -439.1316090869094069 [Eh]
	 Singles Energy            =      -0.0000000000000000 [Eh]
	 Same-Spin Energy          =      -0.4464342673188985 [Eh]
	 Opposite-Spin Energy      =      -1.4652882189950889 [Eh]
	 Correlation Energy        =      -1.9117224863139874 [Eh]
	 Total Energy              =    -441.0433315732233837 [Eh]

	 ================> DF-SCS-MP2 Energies <==================
	-----------------------------------------------------------
	 SCS Same-Spin Scale       =       0.3333333333333333 [-]
	 SCS Opposite-Spin Scale   =       1.2000000000000000 [-]
	 SCS Same-Spin Energy      =      -0.1488114224396328 [Eh]
	 SCS Opposite-Spin Energy  =      -1.7583458627941067 [Eh]
	 SCS Correlation Energy    =      -1.9071572852337395 [Eh]
	 SCS Total Energy          =    -441.0387663721431295 [Eh]
	-----------------------------------------------------------

  Dipole Moment: [D]
     X:    -0.8914      Y:    -2.9456      Z:    -0.4930     Total:     3.1167

*** Psi4 exiting successfully. Buy a developer a beer!
