                               Psi4 1.4a3.dev225

  ==> Input File <==

--------------------------------------------------------------------------
#psi4
#
memory 32 gb

molecule  {
0 1
  O       -1.7446660    -1.3796590    -0.7880960
  O       -0.4296620     1.7569970     0.2600660
  N        0.4723820    -0.3330750    -0.0012650
  C        1.8394770     0.0732600     0.3013020
  C       -1.9099390    -0.0103690    -0.3967440
  C        2.4958720     0.7244850    -0.9128940
  C        2.6145980    -1.1365250     0.8043010
  C       -0.5489054     0.5104560    -0.0385699
  C       -2.8608870     0.1360220     0.7815810
  H        1.7638430     0.8203410     1.0982830
  H        0.2750420    -1.2730860    -0.3263580
  H       -2.2722210     0.5864250    -1.2458220
  H        2.5570320     0.0100450    -1.7401110
  H        1.9072700     1.5874400    -1.2316560
  H        3.5085800     1.0627310    -0.6705710
  H        2.6773940    -1.9046250     0.0252330
  H        2.1327900    -1.5715010     1.6841320
  H        3.6348850    -0.8497170     1.0733550
  H       -2.5011890    -0.4705790     1.6169940
  H       -3.8694610    -0.1962540     0.5126420
  H       -2.9055320     1.1820880     1.0905810
  H       -2.6295620    -1.7449530    -0.9570530
units angstrom
no_reorient  #important for SAPT in psi4, default
symmetry c1  #important for SAPT in psi4, default
}

set PROPERTIES_ORIGIN ["COM"]
properties('MP2/aug-cc-pvtz', properties = ['dipole'])
--------------------------------------------------------------------------

    Molecular point group: c1
  Charge       = 0
  Multiplicity = 1
  Basis Set: AUG-CC-PVTZ
    Blend: AUG-CC-PVTZ
  Basis Set: (AUG-CC-PVTZ AUX)
    Blend: AUG-CC-PVTZ-JKFIT

    Orbital Energies [Eh]
    ---------------------

    Doubly Occupied:

       1A    -20.582115     2A    -20.498487     3A    -15.583445
       4A    -11.342562     5A    -11.302684     6A    -11.267501
       7A    -11.229812     8A    -11.223730     9A    -11.210829
      10A     -1.388498    11A     -1.334658    12A     -1.229376
      13A     -1.062786    14A     -1.031767    15A     -0.939052
      16A     -0.902843    17A     -0.819529    18A     -0.781734
      19A     -0.715692    20A     -0.689559    21A     -0.646876
      22A     -0.641997    23A     -0.617014    24A     -0.582980
      25A     -0.576213    26A     -0.562745    27A     -0.550478
      28A     -0.544355    29A     -0.526733    30A     -0.518158
      31A     -0.514873    32A     -0.489218    33A     -0.481135
      34A     -0.458308    35A     -0.410172    36A     -0.380524

  @DF-RHF Final Energy:  -439.13077016424154

   => Energetics <=

    Nuclear Repulsion Energy =            485.9775489657713479
    One-Electron Energy =               -1562.9397599274298045
    Two-Electron Energy =                 637.8314407974169171
    Total Energy =                       -439.1307701642415395
  Basis Set: (AUG-CC-PVTZ AUX)
    Blend: AUG-CC-PVTZ-RI
    Molecular point group: c1

    Geometry (in Angstrom), charge = 0, multiplicity = 1:

       Center              X                  Y                   Z               Mass
    ------------   -----------------  -----------------  -----------------  -----------------
         O           -1.711953369812    -1.396105961096    -0.780018842815    15.994914619570
         O           -0.396949369812     1.740550038904     0.268143157185    15.994914619570
         N            0.505094630188    -0.349521961096     0.006812157185    14.003074004430
         C            1.872189630188     0.056813038904     0.309379157185    12.000000000000
         C           -1.877226369812    -0.026815961096    -0.388666842815    12.000000000000
         C            2.528584630188     0.708038038904    -0.904816842815    12.000000000000
         C            2.647310630188    -1.152971961096     0.812378157185    12.000000000000
         C           -0.516192769812     0.494009038904    -0.030492742815    12.000000000000
         C           -2.828174369812     0.119575038904     0.789658157185    12.000000000000
         H            1.796555630188     0.803894038904     1.106360157185     1.007825032230
         H            0.307754630188    -1.289532961096    -0.318280842815     1.007825032230
         H           -2.239508369812     0.569978038904    -1.237744842815     1.007825032230
         H            2.589744630188    -0.006401961096    -1.732033842815     1.007825032230
         H            1.939982630188     1.570993038904    -1.223578842815     1.007825032230
         H            3.541292630188     1.046284038904    -0.662493842815     1.007825032230
         H            2.710106630188    -1.921071961096     0.033310157185     1.007825032230
         H            2.165502630188    -1.587947961096     1.692209157185     1.007825032230
         H            3.667597630188    -0.866163961096     1.081432157185     1.007825032230
         H           -2.468476369812    -0.487025961096     1.625071157185     1.007825032230
         H           -3.836748369812    -0.212700961096     0.520719157185     1.007825032230
         H           -2.872819369812     1.165641038904     1.098658157185     1.007825032230
         H           -2.596849369812    -1.761399961096    -0.948975842815     1.007825032230

  Basis Set: AUG-CC-PVTZ
    Blend: AUG-CC-PVTZ
  Basis Set: (AUG-CC-PVTZ AUX)
    Blend: AUG-CC-PVTZ-JKFIT
	 Reference Energy          =    -439.1307701642415395 [Eh]
	 Singles Energy            =      -0.0000000000000000 [Eh]
	 Same-Spin Energy          =      -0.4464188244198119 [Eh]
	 Opposite-Spin Energy      =      -1.4652767039326811 [Eh]
	 Correlation Energy        =      -1.9116955283524930 [Eh]
	 Total Energy              =    -441.0424656925940212 [Eh]

	 ================> DF-SCS-MP2 Energies <==================
	-----------------------------------------------------------
	 SCS Same-Spin Scale       =       0.3333333333333333 [-]
	 SCS Opposite-Spin Scale   =       1.2000000000000000 [-]
	 SCS Same-Spin Energy      =      -0.1488062748066040 [Eh]
	 SCS Opposite-Spin Energy  =      -1.7583320447192172 [Eh]
	 SCS Correlation Energy    =      -1.9071383195258211 [Eh]
	 SCS Total Energy          =    -441.0379084837673531 [Eh]
	-----------------------------------------------------------

  Dipole Moment: [D]
     X:    -0.5606      Y:    -3.1925      Z:    -0.5083     Total:     3.2810

*** Psi4 exiting successfully. Buy a developer a beer!
