                               Psi4 1.3.2 release

  ==> Input File <==

--------------------------------------------------------------------------
#psi4
#
memory 32 gb

molecule  {
0 1
  O       -2.8657385    -0.3851159    -0.2499703
  O       -0.5825960    -1.5131530     0.0834280
  N        0.6646380     0.3451110    -0.3514860
  C        1.9521820    -0.3066060    -0.1296730
  C       -1.7875910     0.5207530    -0.3412920
  C        2.3087340    -0.3110910     1.3526080
  C        3.0072020     0.3769410    -0.9846900
  C       -0.5392736    -0.3481912    -0.1760000
  C       -1.8991130     1.5929580     0.7362800
  H        1.8182130    -1.3395260    -0.4626630
  H        0.6508110     1.3528600    -0.4628320
  H       -1.7688680     0.9937940    -1.3356380
  H        2.4085440     0.7136460     1.7243230
  H        1.5276200    -0.8195050     1.9221530
  H        3.2560570    -0.8319740     1.5215790
  H        3.1304270     1.4235350    -0.6835410
  H        2.7315590     0.3479870    -2.0412990
  H        3.9738610    -0.1182480    -0.8633910
  H       -1.8420940     1.1254490     1.7220580
  H       -2.8670940     2.0889060     0.6442650
  H       -1.1140830     2.3514110     0.6543310
  H       -2.4990480    -1.2315890    -0.0938460
units angstrom
no_reorient  #important for SAPT in psi4, default
symmetry c1  #important for SAPT in psi4, default
}

set PROPERTIES_ORIGIN ["COM"]
properties('MP2/aug-cc-pvtz', properties = ['dipole'])
--------------------------------------------------------------------------

    Molecular point group: c1
  Charge       = 0
  Multiplicity = 1
  Basis Set: AUG-CC-PVTZ
    Blend: AUG-CC-PVTZ
  Basis Set: (AUG-CC-PVTZ AUX)
    Blend: AUG-CC-PVTZ-JKFIT

    Orbital Energies [Eh]
    ---------------------

    Doubly Occupied:

       1A    -20.544548     2A    -20.542542     3A    -15.584289
       4A    -11.357802     5A    -11.298717     6A    -11.271710
       7A    -11.232301     8A    -11.228267     9A    -11.218776
      10A     -1.424533    11A     -1.360053    12A     -1.234022
      13A     -1.066027    14A     -1.023155    15A     -0.945983
      16A     -0.894732    17A     -0.818029    18A     -0.785911
      19A     -0.742896    20A     -0.685174    21A     -0.653055
      22A     -0.637507    23A     -0.625277    24A     -0.599688
      25A     -0.584141    26A     -0.570400    27A     -0.551958
      28A     -0.544992    29A     -0.541719    30A     -0.533988
      31A     -0.518164    32A     -0.502880    33A     -0.489183
      34A     -0.448958    35A     -0.435356    36A     -0.395769

  @DF-RHF Final Energy:  -439.13701239224656

   => Energetics <=

    Nuclear Repulsion Energy =            485.9845396818999461
    One-Electron Energy =               -1562.4580987382798867
    Two-Electron Energy =                 637.3365466641334933
    Total Energy =                       -439.1370123922465609
  Basis Set: (AUG-CC-PVTZ AUX)
    Blend: AUG-CC-PVTZ-RI
    Molecular point group: c1

    Geometry (in Angstrom), charge = 0, multiplicity = 1:

       Center              X                  Y                   Z               Mass
    ------------   -----------------  -----------------  -----------------  -----------------
         O           -2.866778592215    -0.376505873132    -0.251222462390    15.994914619570
         O           -0.583636092215    -1.504542973132     0.082175837610    15.994914619570
         N            0.663597907785     0.353721026868    -0.352738162390    14.003074004430
         C            1.951141907785    -0.297995973132    -0.130925162390    12.000000000000
         C           -1.788631092215     0.529363026868    -0.342544162390    12.000000000000
         C            2.307693907785    -0.302480973132     1.351355837610    12.000000000000
         C            3.006161907785     0.385551026868    -0.985942162390    12.000000000000
         C           -0.540313692215    -0.339581173132    -0.177252162390    12.000000000000
         C           -1.900153092215     1.601568026868     0.735027837610    12.000000000000
         H            1.817172907785    -1.330915973132    -0.463915162390     1.007825032230
         H            0.649770907785     1.361470026868    -0.464084162390     1.007825032230
         H           -1.769908092215     1.002404026868    -1.336890162390     1.007825032230
         H            2.407503907785     0.722256026868     1.723070837610     1.007825032230
         H            1.526579907785    -0.810894973132     1.920900837610     1.007825032230
         H            3.255016907785    -0.823363973132     1.520326837610     1.007825032230
         H            3.129386907785     1.432145026868    -0.684793162390     1.007825032230
         H            2.730518907785     0.356597026868    -2.042551162390     1.007825032230
         H            3.972820907785    -0.109637973132    -0.864643162390     1.007825032230
         H           -1.843134092215     1.134059026868     1.720805837610     1.007825032230
         H           -2.868134092215     2.097516026868     0.643012837610     1.007825032230
         H           -1.115123092215     2.360021026868     0.653078837610     1.007825032230
         H           -2.500088092215    -1.222978973132    -0.095098162390     1.007825032230

  Basis Set: AUG-CC-PVTZ
    Blend: AUG-CC-PVTZ
  Basis Set: (AUG-CC-PVTZ AUX)
    Blend: AUG-CC-PVTZ-JKFIT
	 Reference Energy          =    -439.1370123922465609 [Eh]
	 Singles Energy            =      -0.0000000000000000 [Eh]
	 Same-Spin Energy          =      -0.4444861409867558 [Eh]
	 Opposite-Spin Energy      =      -1.4606273244219046 [Eh]
	 Correlation Energy        =      -1.9051134654086603 [Eh]
	 Total Energy              =    -441.0421258576552077 [Eh]

	 ================> DF-SCS-MP2 Energies <==================
	-----------------------------------------------------------
	 SCS Same-Spin Scale       =       0.3333333333333333 [-]
	 SCS Opposite-Spin Scale   =       1.2000000000000000 [-]
	 SCS Same-Spin Energy      =      -0.1481620469955853 [Eh]
	 SCS Opposite-Spin Energy  =      -1.7527527893062855 [Eh]
	 SCS Correlation Energy    =      -1.9009148363018709 [Eh]
	 SCS Total Energy          =    -441.0379272285484262 [Eh]
	-----------------------------------------------------------

  Dipole Moment: [D]
     X:     3.1230      Y:     2.7133      Z:    -0.1770     Total:     4.1409

*** Psi4 exiting successfully. Buy a developer a beer!
