                               Psi4 1.3.2 release

  ==> Input File <==

--------------------------------------------------------------------------
#psi4
#
memory 32 gb

molecule  {
0 1
  O       -2.8968130    -0.3474360    -0.2563530
  O       -0.5825960    -1.5131530     0.0834280
  N        0.6646380     0.3451110    -0.3514860
  C        1.9521820    -0.3066060    -0.1296730
  C       -1.9447994     0.3977059    -0.3292537
  C        2.3087340    -0.3110910     1.3526080
  C        3.0072020     0.3769410    -0.9846900
  C       -0.5092170    -0.3043550    -0.1811720
  C       -1.8991130     1.5929580     0.7362800
  H        1.8182130    -1.3395260    -0.4626630
  H        0.6508110     1.3528600    -0.4628320
  H       -1.7688680     0.9937940    -1.3356380
  H        2.4085440     0.7136460     1.7243230
  H        1.5276200    -0.8195050     1.9221530
  H        3.2560570    -0.8319740     1.5215790
  H        3.1304270     1.4235350    -0.6835410
  H        2.7315590     0.3479870    -2.0412990
  H        3.9738610    -0.1182480    -0.8633910
  H       -1.8420940     1.1254490     1.7220580
  H       -2.8670940     2.0889060     0.6442650
  H       -1.1140830     2.3514110     0.6543310
  H       -2.4990480    -1.2315890    -0.0938460
units angstrom
no_reorient  #important for SAPT in psi4, default
symmetry c1  #important for SAPT in psi4, default
}

set PROPERTIES_ORIGIN ["COM"]
properties('MP2/aug-cc-pvtz', properties = ['dipole'])
--------------------------------------------------------------------------

    Molecular point group: c1
  Charge       = 0
  Multiplicity = 1
  Basis Set: AUG-CC-PVTZ
    Blend: AUG-CC-PVTZ
  Basis Set: (AUG-CC-PVTZ AUX)
    Blend: AUG-CC-PVTZ-JKFIT

    Orbital Energies [Eh]
    ---------------------

    Doubly Occupied:

       1A    -20.571991     2A    -20.528819     3A    -15.593797
       4A    -11.352259     5A    -11.307657     6A    -11.276218
       7A    -11.230873     8A    -11.223173     9A    -11.220638
      10A     -1.472735    11A     -1.377918    12A     -1.243432
      13A     -1.062895    14A     -1.001411    15A     -0.948290
      16A     -0.877481    17A     -0.831052    18A     -0.796633
      19A     -0.774172    20A     -0.687682    21A     -0.658164
      22A     -0.639086    23A     -0.633339    24A     -0.620015
      25A     -0.596596    26A     -0.566122    27A     -0.553542
      28A     -0.548480    29A     -0.540231    30A     -0.535025
      31A     -0.508027    32A     -0.501503    33A     -0.489871
      34A     -0.414118    35A     -0.409876    36A     -0.394712

  @DF-RHF Final Energy:  -439.09110092662098

   => Energetics <=

    Nuclear Repulsion Energy =            485.8997217101325532
    One-Electron Energy =               -1562.0059840184687801
    Two-Electron Energy =                 637.0151613817153020
    Total Energy =                       -439.0911009266209248
  Basis Set: (AUG-CC-PVTZ AUX)
    Blend: AUG-CC-PVTZ-RI
    Molecular point group: c1

    Geometry (in Angstrom), charge = 0, multiplicity = 1:

       Center              X                  Y                   Z               Mass
    ------------   -----------------  -----------------  -----------------  -----------------
         O           -2.882422592926    -0.336172591981    -0.257454926322    15.994914619570
         O           -0.568205592926    -1.501889591981     0.082326073678    15.994914619570
         N            0.679028407074     0.356374408019    -0.352587926322    14.003074004430
         C            1.966572407074    -0.295342591981    -0.130774926322    12.000000000000
         C           -1.930408992926     0.408969308019    -0.330355626322    12.000000000000
         C            2.323124407074    -0.299827591981     1.351506073678    12.000000000000
         C            3.021592407074     0.388204408019    -0.985791926322    12.000000000000
         C           -0.494826592926    -0.293091591981    -0.182273926322    12.000000000000
         C           -1.884722592926     1.604221408019     0.735178073678    12.000000000000
         H            1.832603407074    -1.328262591981    -0.463764926322     1.007825032230
         H            0.665201407074     1.364123408019    -0.463933926322     1.007825032230
         H           -1.754477592926     1.005057408019    -1.336739926322     1.007825032230
         H            2.422934407074     0.724909408019     1.723221073678     1.007825032230
         H            1.542010407074    -0.808241591981     1.921051073678     1.007825032230
         H            3.270447407074    -0.820710591981     1.520477073678     1.007825032230
         H            3.144817407074     1.434798408019    -0.684642926322     1.007825032230
         H            2.745949407074     0.359250408019    -2.042400926322     1.007825032230
         H            3.988251407074    -0.106984591981    -0.864492926322     1.007825032230
         H           -1.827703592926     1.136712408019     1.720956073678     1.007825032230
         H           -2.852703592926     2.100169408019     0.643163073678     1.007825032230
         H           -1.099692592926     2.362674408019     0.653229073678     1.007825032230
         H           -2.484657592926    -1.220325591981    -0.094947926322     1.007825032230

  Basis Set: AUG-CC-PVTZ
    Blend: AUG-CC-PVTZ
  Basis Set: (AUG-CC-PVTZ AUX)
    Blend: AUG-CC-PVTZ-JKFIT
	 Reference Energy          =    -439.0911009266209817 [Eh]
	 Singles Energy            =      -0.0000000000000000 [Eh]
	 Same-Spin Energy          =      -0.4469284117677133 [Eh]
	 Opposite-Spin Energy      =      -1.4625714151999996 [Eh]
	 Correlation Energy        =      -1.9094998269677128 [Eh]
	 Total Energy              =    -441.0006007535886852 [Eh]

	 ================> DF-SCS-MP2 Energies <==================
	-----------------------------------------------------------
	 SCS Same-Spin Scale       =       0.3333333333333333 [-]
	 SCS Opposite-Spin Scale   =       1.2000000000000000 [-]
	 SCS Same-Spin Energy      =      -0.1489761372559044 [Eh]
	 SCS Opposite-Spin Energy  =      -1.7550856982399994 [Eh]
	 SCS Correlation Energy    =      -1.9040618354959038 [Eh]
	 SCS Total Energy          =    -440.9951627621168768 [Eh]
	-----------------------------------------------------------

  Dipole Moment: [D]
     X:     2.9903      Y:     2.3029      Z:    -0.2184     Total:     3.7806

*** Psi4 exiting successfully. Buy a developer a beer!
