                               Psi4 1.3.2 release

  ==> Input File <==

--------------------------------------------------------------------------
#psi4
#
memory 32 gb

molecule  {
0 1
  O       -2.8968130    -0.3474360    -0.2563530
  O       -0.5825960    -1.5131530     0.0834280
  N        0.6646380     0.3451110    -0.3514860
  C        1.9521820    -0.3066060    -0.1296730
  C       -1.7875910     0.5207530    -0.3412920
  C        2.3087340    -0.3110910     1.3526080
  C        3.0072020     0.3769410    -0.9846900
  C       -0.5092170    -0.3043550    -0.1811720
  C       -1.8991130     1.5929580     0.7362800
  H        1.8182130    -1.3395260    -0.4626630
  H        0.6494474     1.4522459    -0.4738131
  H       -1.7688680     0.9937940    -1.3356380
  H        2.4085440     0.7136460     1.7243230
  H        1.5276200    -0.8195050     1.9221530
  H        3.2560570    -0.8319740     1.5215790
  H        3.1304270     1.4235350    -0.6835410
  H        2.7315590     0.3479870    -2.0412990
  H        3.9738610    -0.1182480    -0.8633910
  H       -1.8420940     1.1254490     1.7220580
  H       -2.8670940     2.0889060     0.6442650
  H       -1.1140830     2.3514110     0.6543310
  H       -2.4990480    -1.2315890    -0.0938460
units angstrom
no_reorient  #important for SAPT in psi4, default
symmetry c1  #important for SAPT in psi4, default
}

set PROPERTIES_ORIGIN ["COM"]
properties('MP2/aug-cc-pvtz', properties = ['dipole'])
--------------------------------------------------------------------------

    Molecular point group: c1
  Charge       = 0
  Multiplicity = 1
  Basis Set: AUG-CC-PVTZ
    Blend: AUG-CC-PVTZ
  Basis Set: (AUG-CC-PVTZ AUX)
    Blend: AUG-CC-PVTZ-JKFIT

    Orbital Energies [Eh]
    ---------------------

    Doubly Occupied:

       1A    -20.547443     2A    -20.532128     3A    -15.604168
       4A    -11.358020     5A    -11.296880     6A    -11.277412
       7A    -11.232108     8A    -11.230553     9A    -11.221993
      10A     -1.396456    11A     -1.345233    12A     -1.238727
      13A     -1.070917    14A     -1.022434    15A     -0.949425
      16A     -0.893965    17A     -0.820233    18A     -0.776521
      19A     -0.735428    20A     -0.677802    21A     -0.646572
      22A     -0.628538    23A     -0.627516    24A     -0.594288
      25A     -0.581193    26A     -0.567127    27A     -0.554848
      28A     -0.547626    29A     -0.538781    30A     -0.529882
      31A     -0.510678    32A     -0.502506    33A     -0.491054
      34A     -0.444554    35A     -0.433779    36A     -0.399975

  @DF-RHF Final Energy:  -439.12702578027734

   => Energetics <=

    Nuclear Repulsion Energy =            484.7435432718258994
    One-Electron Energy =               -1560.0876090976976229
    Two-Electron Energy =                 636.2170400455943309
    Total Energy =                       -439.1270257802773358
  Basis Set: (AUG-CC-PVTZ AUX)
    Blend: AUG-CC-PVTZ-RI
    Molecular point group: c1

    Geometry (in Angstrom), charge = 0, multiplicity = 1:

       Center              X                  Y                   Z               Mass
    ------------   -----------------  -----------------  -----------------  -----------------
         O           -2.896802484376    -0.348200001601    -0.256268557139    15.994914619570
         O           -0.582585484376    -1.513917001601     0.083512442861    15.994914619570
         N            0.664648515624     0.344346998399    -0.351401557139    14.003074004430
         C            1.952192515624    -0.307370001601    -0.129588557139    12.000000000000
         C           -1.787580484376     0.519988998399    -0.341207557139    12.000000000000
         C            2.308744515624    -0.311855001601     1.352692442861    12.000000000000
         C            3.007212515624     0.376176998399    -0.984605557139    12.000000000000
         C           -0.509206484376    -0.305119001601    -0.181087557139    12.000000000000
         C           -1.899102484376     1.592193998399     0.736364442861    12.000000000000
         H            1.818223515624    -1.340290001601    -0.462578557139     1.007825032230
         H            0.649457915624     1.451481898399    -0.473728657139     1.007825032230
         H           -1.768857484376     0.993029998399    -1.335553557139     1.007825032230
         H            2.408554515624     0.712881998399     1.724407442861     1.007825032230
         H            1.527630515624    -0.820269001601     1.922237442861     1.007825032230
         H            3.256067515624    -0.832738001601     1.521663442861     1.007825032230
         H            3.130437515624     1.422770998399    -0.683456557139     1.007825032230
         H            2.731569515624     0.347222998399    -2.041214557139     1.007825032230
         H            3.973871515624    -0.119012001601    -0.863306557139     1.007825032230
         H           -1.842083484376     1.124684998399     1.722142442861     1.007825032230
         H           -2.867083484376     2.088141998399     0.644349442861     1.007825032230
         H           -1.114072484376     2.350646998399     0.654415442861     1.007825032230
         H           -2.499037484376    -1.232353001601    -0.093761557139     1.007825032230

  Basis Set: AUG-CC-PVTZ
    Blend: AUG-CC-PVTZ
  Basis Set: (AUG-CC-PVTZ AUX)
    Blend: AUG-CC-PVTZ-JKFIT
	 Reference Energy          =    -439.1270257802773358 [Eh]
	 Singles Energy            =      -0.0000000000000000 [Eh]
	 Same-Spin Energy          =      -0.4469006931722653 [Eh]
	 Opposite-Spin Energy      =      -1.4657445155195856 [Eh]
	 Correlation Energy        =      -1.9126452086918508 [Eh]
	 Total Energy              =    -441.0396709889691920 [Eh]

	 ================> DF-SCS-MP2 Energies <==================
	-----------------------------------------------------------
	 SCS Same-Spin Scale       =       0.3333333333333333 [-]
	 SCS Opposite-Spin Scale   =       1.2000000000000000 [-]
	 SCS Same-Spin Energy      =      -0.1489668977240884 [Eh]
	 SCS Opposite-Spin Energy  =      -1.7588934186235028 [Eh]
	 SCS Correlation Energy    =      -1.9078603163475911 [Eh]
	 SCS Total Energy          =    -441.0348860966249163 [Eh]
	-----------------------------------------------------------

  Dipole Moment: [D]
     X:     3.5959      Y:     2.9799      Z:    -0.2333     Total:     4.6760

*** Psi4 exiting successfully. Buy a developer a beer!
