                               Psi4 1.4a3.dev225

  ==> Input File <==

--------------------------------------------------------------------------
#psi4
#
memory 32 gb

molecule  {
0 1
  O       -1.7446660    -1.3796590    -0.7880960
  O       -0.4296620     1.7569970     0.2600660
  N        0.4723820    -0.3330750    -0.0012650
  C        1.8207233     0.0676859     0.2971514
  C       -1.9099390    -0.0103690    -0.3967440
  C        2.4958720     0.7244850    -0.9128940
  C        2.6145980    -1.1365250     0.8043010
  C       -0.5442740     0.5588710    -0.0269710
  C       -2.8608870     0.1360220     0.7815810
  H        1.7638430     0.8203410     1.0982830
  H        0.2750420    -1.2730860    -0.3263580
  H       -2.2722210     0.5864250    -1.2458220
  H        2.5570320     0.0100450    -1.7401110
  H        1.9072700     1.5874400    -1.2316560
  H        3.5085800     1.0627310    -0.6705710
  H        2.6773940    -1.9046250     0.0252330
  H        2.1327900    -1.5715010     1.6841320
  H        3.6348850    -0.8497170     1.0733550
  H       -2.5011890    -0.4705790     1.6169940
  H       -3.8694610    -0.1962540     0.5126420
  H       -2.9055320     1.1820880     1.0905810
  H       -2.6295620    -1.7449530    -0.9570530
units angstrom
no_reorient  #important for SAPT in psi4, default
symmetry c1  #important for SAPT in psi4, default
}

set PROPERTIES_ORIGIN ["COM"]
properties('MP2/aug-cc-pvtz', properties = ['dipole'])
--------------------------------------------------------------------------

    Molecular point group: c1
  Charge       = 0
  Multiplicity = 1
  Basis Set: AUG-CC-PVTZ
    Blend: AUG-CC-PVTZ
  Basis Set: (AUG-CC-PVTZ AUX)
    Blend: AUG-CC-PVTZ-JKFIT

    Orbital Energies [Eh]
    ---------------------

    Doubly Occupied:

       1A    -20.581589     2A    -20.510423     3A    -15.576763
       4A    -11.343975     5A    -11.301712     6A    -11.263192
       7A    -11.229429     8A    -11.221036     9A    -11.208713
      10A     -1.388657    11A     -1.359953    12A     -1.232432
      13A     -1.056583    14A     -1.027799    15A     -0.935491
      16A     -0.898682    17A     -0.815256    18A     -0.779690
      19A     -0.712637    20A     -0.691047    21A     -0.645391
      22A     -0.641636    23A     -0.613394    24A     -0.595375
      25A     -0.578374    26A     -0.563488    27A     -0.551899
      28A     -0.541448    29A     -0.527422    30A     -0.520935
      31A     -0.519511    32A     -0.488853    33A     -0.477535
      34A     -0.459016    35A     -0.414926    36A     -0.382132

  @DF-RHF Final Energy:  -439.13754639500303

   => Energetics <=

    Nuclear Repulsion Energy =            486.1748200177290755
    One-Electron Energy =               -1563.3119488438601365
    Two-Electron Energy =                 637.9995824311281467
    Total Energy =                       -439.1375463950030280
  Basis Set: (AUG-CC-PVTZ AUX)
    Blend: AUG-CC-PVTZ-RI
    Molecular point group: c1

    Geometry (in Angstrom), charge = 0, multiplicity = 1:

       Center              X                  Y                   Z               Mass
    ------------   -----------------  -----------------  -----------------  -----------------
         O           -1.710660657809    -1.400027485611    -0.780700637340    15.994914619570
         O           -0.395656657809     1.736628514389     0.267461362660    15.994914619570
         N            0.506387342191    -0.353443485611     0.006130362660    14.003074004430
         C            1.854728642191     0.047317414389     0.304546762660    12.000000000000
         C           -1.875933657809    -0.030737485611    -0.389348637340    12.000000000000
         C            2.529877342191     0.704116514389    -0.905498637340    12.000000000000
         C            2.648603342191    -1.156893485611     0.811696362660    12.000000000000
         C           -0.510268657809     0.538502514389    -0.019575637340    12.000000000000
         C           -2.826881657809     0.115653514389     0.788976362660    12.000000000000
         H            1.797848342191     0.799972514389     1.105678362660     1.007825032230
         H            0.309047342191    -1.293454485611    -0.318962637340     1.007825032230
         H           -2.238215657809     0.566056514389    -1.238426637340     1.007825032230
         H            2.591037342191    -0.010323485611    -1.732715637340     1.007825032230
         H            1.941275342191     1.567071514389    -1.224260637340     1.007825032230
         H            3.542585342191     1.042362514389    -0.663175637340     1.007825032230
         H            2.711399342191    -1.924993485611     0.032628362660     1.007825032230
         H            2.166795342191    -1.591869485611     1.691527362660     1.007825032230
         H            3.668890342191    -0.870085485611     1.080750362660     1.007825032230
         H           -2.467183657809    -0.490947485611     1.624389362660     1.007825032230
         H           -3.835455657809    -0.216622485611     0.520037362660     1.007825032230
         H           -2.871526657809     1.161719514389     1.097976362660     1.007825032230
         H           -2.595556657809    -1.765321485611    -0.949657637340     1.007825032230

  Basis Set: AUG-CC-PVTZ
    Blend: AUG-CC-PVTZ
  Basis Set: (AUG-CC-PVTZ AUX)
    Blend: AUG-CC-PVTZ-JKFIT
	 Reference Energy          =    -439.1375463950030280 [Eh]
	 Singles Energy            =      -0.0000000000000000 [Eh]
	 Same-Spin Energy          =      -0.4455592820084386 [Eh]
	 Opposite-Spin Energy      =      -1.4634725327551421 [Eh]
	 Correlation Energy        =      -1.9090318147635807 [Eh]
	 Total Energy              =    -441.0465782097666079 [Eh]

	 ================> DF-SCS-MP2 Energies <==================
	-----------------------------------------------------------
	 SCS Same-Spin Scale       =       0.3333333333333333 [-]
	 SCS Opposite-Spin Scale   =       1.2000000000000000 [-]
	 SCS Same-Spin Energy      =      -0.1485197606694795 [Eh]
	 SCS Opposite-Spin Energy  =      -1.7561670393061706 [Eh]
	 SCS Correlation Energy    =      -1.9046867999756500 [Eh]
	 SCS Total Energy          =    -441.0422331949786781 [Eh]
	-----------------------------------------------------------

  Dipole Moment: [D]
     X:    -0.7429      Y:    -2.8733      Z:    -0.4646     Total:     3.0039

*** Psi4 exiting successfully. Buy a developer a beer!
