                               Psi4 1.4a3.dev225

  ==> Input File <==

--------------------------------------------------------------------------
#psi4
#
memory 32 gb

molecule  {
0 1
  O       -1.7446660    -1.3796590    -0.7880960
  O       -0.4296620     1.7569970     0.2600660
  N        0.4723820    -0.3330750    -0.0012650
  C        1.8394770     0.0732600     0.3013020
  C       -1.9099390    -0.0103690    -0.3967440
  C        2.4958720     0.7244850    -0.9128940
  C        2.6145980    -1.1365250     0.8043010
  C       -0.5442740     0.5588710    -0.0269710
  C       -2.8483848     0.1340974     0.7660894
  H        1.7638430     0.8203410     1.0982830
  H        0.2750420    -1.2730860    -0.3263580
  H       -2.2722210     0.5864250    -1.2458220
  H        2.5570320     0.0100450    -1.7401110
  H        1.9072700     1.5874400    -1.2316560
  H        3.5085800     1.0627310    -0.6705710
  H        2.6773940    -1.9046250     0.0252330
  H        2.1327900    -1.5715010     1.6841320
  H        3.6348850    -0.8497170     1.0733550
  H       -2.5011890    -0.4705790     1.6169940
  H       -3.8694610    -0.1962540     0.5126420
  H       -2.9055320     1.1820880     1.0905810
  H       -2.6295620    -1.7449530    -0.9570530
units angstrom
no_reorient  #important for SAPT in psi4, default
symmetry c1  #important for SAPT in psi4, default
}

set PROPERTIES_ORIGIN ["COM"]
properties('MP2/aug-cc-pvtz', properties = ['dipole'])
--------------------------------------------------------------------------

    Molecular point group: c1
  Charge       = 0
  Multiplicity = 1
  Basis Set: AUG-CC-PVTZ
    Blend: AUG-CC-PVTZ
  Basis Set: (AUG-CC-PVTZ AUX)
    Blend: AUG-CC-PVTZ-JKFIT

    Orbital Energies [Eh]
    ---------------------

    Doubly Occupied:

       1A    -20.580881     2A    -20.509491     3A    -15.575753
       4A    -11.343097     5A    -11.300314     6A    -11.264013
       7A    -11.229556     8A    -11.221371     9A    -11.209328
      10A     -1.388180    11A     -1.358910    12A     -1.227945
      13A     -1.058765    14A     -1.030645    15A     -0.937186
      16A     -0.896026    17A     -0.813573    18A     -0.777931
      19A     -0.712842    20A     -0.690934    21A     -0.645644
      22A     -0.641632    23A     -0.614238    24A     -0.594391
      25A     -0.578181    26A     -0.563688    27A     -0.549501
      28A     -0.542374    29A     -0.523820    30A     -0.519919
      31A     -0.516973    32A     -0.490981    33A     -0.480471
      34A     -0.461052    35A     -0.413781    36A     -0.382601

  @DF-RHF Final Energy:  -439.13735775544285

   => Energetics <=

    Nuclear Repulsion Energy =            486.2829222667740510
    One-Electron Energy =               -1563.5485813476309431
    Two-Electron Energy =                 638.1283013254140997
    Total Energy =                       -439.1373577554428493
  Basis Set: (AUG-CC-PVTZ AUX)
    Blend: AUG-CC-PVTZ-RI
    Molecular point group: c1

    Geometry (in Angstrom), charge = 0, multiplicity = 1:

       Center              X                  Y                   Z               Mass
    ------------   -----------------  -----------------  -----------------  -----------------
         O           -1.713521726976    -1.400361549641    -0.779662517003    15.994914619570
         O           -0.398517726976     1.736294450359     0.268499482997    15.994914619570
         N            0.503526273024    -0.353777549641     0.007168482997    14.003074004430
         C            1.870621273024     0.052557450359     0.309735482997    12.000000000000
         C           -1.878794726976    -0.031071549641    -0.388310517003    12.000000000000
         C            2.527016273024     0.703782450359    -0.904460517003    12.000000000000
         C            2.645742273024    -1.157227549641     0.812734482997    12.000000000000
         C           -0.513129726976     0.538168450359    -0.018537517003    12.000000000000
         C           -2.817240526976     0.113394850359     0.774522882997    12.000000000000
         H            1.794987273024     0.799638450359     1.106716482997     1.007825032230
         H            0.306186273024    -1.293788549641    -0.317924517003     1.007825032230
         H           -2.241076726976     0.565722450359    -1.237388517003     1.007825032230
         H            2.588176273024    -0.010657549641    -1.731677517003     1.007825032230
         H            1.938414273024     1.566737450359    -1.223222517003     1.007825032230
         H            3.539724273024     1.042028450359    -0.662137517003     1.007825032230
         H            2.708538273024    -1.925327549641     0.033666482997     1.007825032230
         H            2.163934273024    -1.592203549641     1.692565482997     1.007825032230
         H            3.666029273024    -0.870419549641     1.081788482997     1.007825032230
         H           -2.470044726976    -0.491281549641     1.625427482997     1.007825032230
         H           -3.838316726976    -0.216956549641     0.521075482997     1.007825032230
         H           -2.874387726976     1.161385450359     1.099014482997     1.007825032230
         H           -2.598417726976    -1.765655549641    -0.948619517003     1.007825032230

  Basis Set: AUG-CC-PVTZ
    Blend: AUG-CC-PVTZ
  Basis Set: (AUG-CC-PVTZ AUX)
    Blend: AUG-CC-PVTZ-JKFIT
	 Reference Energy          =    -439.1373577554428493 [Eh]
	 Singles Energy            =      -0.0000000000000000 [Eh]
	 Same-Spin Energy          =      -0.4456497794321340 [Eh]
	 Opposite-Spin Energy      =      -1.4636016087411119 [Eh]
	 Correlation Energy        =      -1.9092513881732458 [Eh]
	 Total Energy              =    -441.0466091436160809 [Eh]

	 ================> DF-SCS-MP2 Energies <==================
	-----------------------------------------------------------
	 SCS Same-Spin Scale       =       0.3333333333333333 [-]
	 SCS Opposite-Spin Scale   =       1.2000000000000000 [-]
	 SCS Same-Spin Energy      =      -0.1485499264773780 [Eh]
	 SCS Opposite-Spin Energy  =      -1.7563219304893343 [Eh]
	 SCS Correlation Energy    =      -1.9048718569667122 [Eh]
	 SCS Total Energy          =    -441.0422296124095851 [Eh]
	-----------------------------------------------------------

  Dipole Moment: [D]
     X:    -0.6682      Y:    -2.8651      Z:    -0.4543     Total:     2.9768

*** Psi4 exiting successfully. Buy a developer a beer!
