                               Psi4 1.3.2 release

  ==> Input File <==

--------------------------------------------------------------------------
#psi4
#
memory 32 gb

molecule  {
0 1
  O       -2.8968130    -0.3474360    -0.2563530
  O       -0.5825960    -1.5131530     0.0834280
  N        0.6646380     0.3451110    -0.3514860
  C        1.9521820    -0.3066060    -0.1296730
  C       -1.7089868     0.5822766    -0.3473111
  C        2.3087340    -0.3110910     1.3526080
  C        3.0072020     0.3769410    -0.9846900
  C       -0.5092170    -0.3043550    -0.1811720
  C       -1.8991130     1.5929580     0.7362800
  H        1.8182130    -1.3395260    -0.4626630
  H        0.6508110     1.3528600    -0.4628320
  H       -1.7688680     0.9937940    -1.3356380
  H        2.4085440     0.7136460     1.7243230
  H        1.5276200    -0.8195050     1.9221530
  H        3.2560570    -0.8319740     1.5215790
  H        3.1304270     1.4235350    -0.6835410
  H        2.7315590     0.3479870    -2.0412990
  H        3.9738610    -0.1182480    -0.8633910
  H       -1.8420940     1.1254490     1.7220580
  H       -2.8670940     2.0889060     0.6442650
  H       -1.1140830     2.3514110     0.6543310
  H       -2.4990480    -1.2315890    -0.0938460
units angstrom
no_reorient  #important for SAPT in psi4, default
symmetry c1  #important for SAPT in psi4, default
}

set PROPERTIES_ORIGIN ["COM"]
properties('MP2/aug-cc-pvtz', properties = ['dipole'])
--------------------------------------------------------------------------

    Molecular point group: c1
  Charge       = 0
  Multiplicity = 1
  Basis Set: AUG-CC-PVTZ
    Blend: AUG-CC-PVTZ
  Basis Set: (AUG-CC-PVTZ AUX)
    Blend: AUG-CC-PVTZ-JKFIT

    Orbital Energies [Eh]
    ---------------------

    Doubly Occupied:

       1A    -20.538087     2A    -20.534839     3A    -15.596560
       4A    -11.361332     5A    -11.297441     6A    -11.277547
       7A    -11.234021     8A    -11.232917     9A    -11.222986
      10A     -1.393934    11A     -1.313745    12A     -1.250763
      13A     -1.078836    14A     -1.032197    15A     -0.950546
      16A     -0.903704    17A     -0.822395    18A     -0.796805
      19A     -0.728802    20A     -0.677142    21A     -0.646688
      22A     -0.632790    23A     -0.628369    24A     -0.598917
      25A     -0.580394    26A     -0.565275    27A     -0.555283
      28A     -0.550731    29A     -0.532248    30A     -0.527908
      31A     -0.505541    32A     -0.501234    33A     -0.491314
      34A     -0.448601    35A     -0.440752    36A     -0.402736

  @DF-RHF Final Energy:  -439.12641277209445

   => Energetics <=

    Nuclear Repulsion Energy =            485.1793737188972386
    One-Electron Energy =               -1560.9048124504656698
    Two-Electron Energy =                 636.5990259594739200
    Total Energy =                       -439.1264127720944543
  Basis Set: (AUG-CC-PVTZ AUX)
    Blend: AUG-CC-PVTZ-RI
    Molecular point group: c1

    Geometry (in Angstrom), charge = 0, multiplicity = 1:

       Center              X                  Y                   Z               Mass
    ------------   -----------------  -----------------  -----------------  -----------------
         O           -2.904008154660    -0.353067627442    -0.255802007341    15.994914619570
         O           -0.589791154660    -1.518784627442     0.083978992659    15.994914619570
         N            0.657442845340     0.339479372558    -0.350935007341    14.003074004430
         C            1.944986845340    -0.312237627442    -0.129122007341    12.000000000000
         C           -1.716181954660     0.576644972558    -0.346760107341    12.000000000000
         C            2.301538845340    -0.316722627442     1.353158992659    12.000000000000
         C            3.000006845340     0.371309372558    -0.984139007341    12.000000000000
         C           -0.516412154660    -0.309986627442    -0.180621007341    12.000000000000
         C           -1.906308154660     1.587326372558     0.736830992659    12.000000000000
         H            1.811017845340    -1.345157627442    -0.462112007341     1.007825032230
         H            0.643615845340     1.347228372558    -0.462281007341     1.007825032230
         H           -1.776063154660     0.988162372558    -1.335087007341     1.007825032230
         H            2.401348845340     0.708014372558     1.724873992659     1.007825032230
         H            1.520424845340    -0.825136627442     1.922703992659     1.007825032230
         H            3.248861845340    -0.837605627442     1.522129992659     1.007825032230
         H            3.123231845340     1.417903372558    -0.682990007341     1.007825032230
         H            2.724363845340     0.342355372558    -2.040748007341     1.007825032230
         H            3.966665845340    -0.123879627442    -0.862840007341     1.007825032230
         H           -1.849289154660     1.119817372558     1.722608992659     1.007825032230
         H           -2.874289154660     2.083274372558     0.644815992659     1.007825032230
         H           -1.121278154660     2.345779372558     0.654881992659     1.007825032230
         H           -2.506243154660    -1.237220627442    -0.093295007341     1.007825032230

  Basis Set: AUG-CC-PVTZ
    Blend: AUG-CC-PVTZ
  Basis Set: (AUG-CC-PVTZ AUX)
    Blend: AUG-CC-PVTZ-JKFIT
	 Reference Energy          =    -439.1264127720944543 [Eh]
	 Singles Energy            =      -0.0000000000000000 [Eh]
	 Same-Spin Energy          =      -0.4468265710263573 [Eh]
	 Opposite-Spin Energy      =      -1.4664563034080109 [Eh]
	 Correlation Energy        =      -1.9132828744343682 [Eh]
	 Total Energy              =    -441.0396956465287985 [Eh]

	 ================> DF-SCS-MP2 Energies <==================
	-----------------------------------------------------------
	 SCS Same-Spin Scale       =       0.3333333333333333 [-]
	 SCS Opposite-Spin Scale   =       1.2000000000000000 [-]
	 SCS Same-Spin Energy      =      -0.1489421903421191 [Eh]
	 SCS Opposite-Spin Energy  =      -1.7597475640896130 [Eh]
	 SCS Correlation Energy    =      -1.9086897544317321 [Eh]
	 SCS Total Energy          =    -441.0351025265262024 [Eh]
	-----------------------------------------------------------

  Dipole Moment: [D]
     X:     3.7871      Y:     3.1188      Z:    -0.2060     Total:     4.9103

*** Psi4 exiting successfully. Buy a developer a beer!
