                               Psi4 1.3.2 release

  ==> Input File <==

--------------------------------------------------------------------------
#psi4
#
memory 32 gb

molecule  {
0 1
  O       -2.8968130    -0.3474360    -0.2563530
  O       -0.5825960    -1.5131530     0.0834280
  N        0.6646380     0.3451110    -0.3514860
  C        1.9521820    -0.3066060    -0.1296730
  C       -1.7875910     0.5207530    -0.3412920
  C        2.3087340    -0.3110910     1.3526080
  C        3.0072020     0.3769410    -0.9846900
  C       -0.6828241    -0.4004077    -0.1559834
  C       -1.8991130     1.5929580     0.7362800
  H        1.8182130    -1.3395260    -0.4626630
  H        0.6508110     1.3528600    -0.4628320
  H       -1.7688680     0.9937940    -1.3356380
  H        2.4085440     0.7136460     1.7243230
  H        1.5276200    -0.8195050     1.9221530
  H        3.2560570    -0.8319740     1.5215790
  H        3.1304270     1.4235350    -0.6835410
  H        2.7315590     0.3479870    -2.0412990
  H        3.9738610    -0.1182480    -0.8633910
  H       -1.8420940     1.1254490     1.7220580
  H       -2.8670940     2.0889060     0.6442650
  H       -1.1140830     2.3514110     0.6543310
  H       -2.4990480    -1.2315890    -0.0938460
units angstrom
no_reorient  #important for SAPT in psi4, default
symmetry c1  #important for SAPT in psi4, default
}

set PROPERTIES_ORIGIN ["COM"]
properties('MP2/aug-cc-pvtz', properties = ['dipole'])
--------------------------------------------------------------------------

    Molecular point group: c1
  Charge       = 0
  Multiplicity = 1
  Basis Set: AUG-CC-PVTZ
    Blend: AUG-CC-PVTZ
  Basis Set: (AUG-CC-PVTZ AUX)
    Blend: AUG-CC-PVTZ-JKFIT

    Orbital Energies [Eh]
    ---------------------

    Doubly Occupied:

       1A    -20.570521     2A    -20.559023     3A    -15.555688
       4A    -11.369728     5A    -11.305137     6A    -11.259347
       7A    -11.238814     8A    -11.218368     9A    -11.209747
      10A     -1.473327    11A     -1.372106    12A     -1.191932
      13A     -1.064339    14A     -1.011988    15A     -0.935964
      16A     -0.914048    17A     -0.802651    18A     -0.773274
      19A     -0.745090    20A     -0.694944    21A     -0.672237
      22A     -0.624758    23A     -0.622768    24A     -0.603373
      25A     -0.581681    26A     -0.572301    27A     -0.553634
      28A     -0.544945    29A     -0.541977    30A     -0.540277
      31A     -0.524559    32A     -0.495231    33A     -0.481406
      34A     -0.457455    35A     -0.437682    36A     -0.372180

  @DF-RHF Final Energy:  -439.09588071776045

   => Energetics <=

    Nuclear Repulsion Energy =            485.2833289702271600
    One-Electron Energy =               -1560.9734231408604046
    Two-Electron Energy =                 636.5942134528728502
    Total Energy =                       -439.0958807177604513
  Basis Set: (AUG-CC-PVTZ AUX)
    Blend: AUG-CC-PVTZ-RI
    Molecular point group: c1

    Geometry (in Angstrom), charge = 0, multiplicity = 1:

       Center              X                  Y                   Z               Mass
    ------------   -----------------  -----------------  -----------------  -----------------
         O           -2.880921506253    -0.338643576516    -0.258658664427    15.994914619570
         O           -0.566704506253    -1.504360576516     0.081122335573    15.994914619570
         N            0.680529493747     0.353903423484    -0.353791664427    14.003074004430
         C            1.968073493747    -0.297813576516    -0.131978664427    12.000000000000
         C           -1.771699506253     0.529545423484    -0.343597664427    12.000000000000
         C            2.324625493747    -0.302298576516     1.350302335573    12.000000000000
         C            3.023093493747     0.385733423484    -0.986995664427    12.000000000000
         C           -0.666932606253    -0.391615276516    -0.158289064427    12.000000000000
         C           -1.883221506253     1.601750423484     0.733974335573    12.000000000000
         H            1.834104493747    -1.330733576516    -0.464968664427     1.007825032230
         H            0.666702493747     1.361652423484    -0.465137664427     1.007825032230
         H           -1.752976506253     1.002586423484    -1.337943664427     1.007825032230
         H            2.424435493747     0.722438423484     1.722017335573     1.007825032230
         H            1.543511493747    -0.810712576516     1.919847335573     1.007825032230
         H            3.271948493747    -0.823181576516     1.519273335573     1.007825032230
         H            3.146318493747     1.432327423484    -0.685846664427     1.007825032230
         H            2.747450493747     0.356779423484    -2.043604664427     1.007825032230
         H            3.989752493747    -0.109455576516    -0.865696664427     1.007825032230
         H           -1.826202506253     1.134241423484     1.719752335573     1.007825032230
         H           -2.851202506253     2.097698423484     0.641959335573     1.007825032230
         H           -1.098191506253     2.360203423484     0.652025335573     1.007825032230
         H           -2.483156506253    -1.222796576516    -0.096151664427     1.007825032230

  Basis Set: AUG-CC-PVTZ
    Blend: AUG-CC-PVTZ
  Basis Set: (AUG-CC-PVTZ AUX)
    Blend: AUG-CC-PVTZ-JKFIT
	 Reference Energy          =    -439.0958807177604513 [Eh]
	 Singles Energy            =      -0.0000000000000000 [Eh]
	 Same-Spin Energy          =      -0.4456236122731790 [Eh]
	 Opposite-Spin Energy      =      -1.4635710110380362 [Eh]
	 Correlation Energy        =      -1.9091946233112151 [Eh]
	 Total Energy              =    -441.0050753410716879 [Eh]

	 ================> DF-SCS-MP2 Energies <==================
	-----------------------------------------------------------
	 SCS Same-Spin Scale       =       0.3333333333333333 [-]
	 SCS Opposite-Spin Scale   =       1.2000000000000000 [-]
	 SCS Same-Spin Energy      =      -0.1485412040910596 [Eh]
	 SCS Opposite-Spin Energy  =      -1.7562852132456435 [Eh]
	 SCS Correlation Energy    =      -1.9048264173367031 [Eh]
	 SCS Total Energy          =    -441.0007071350971728 [Eh]
	-----------------------------------------------------------

  Dipole Moment: [D]
     X:     1.8542      Y:     2.1791      Z:    -0.0386     Total:     2.8615

*** Psi4 exiting successfully. Buy a developer a beer!
