                               Psi4 1.3.2 release

  ==> Input File <==

--------------------------------------------------------------------------
#psi4
#
memory 32 gb

molecule  {
0 1
  O       -2.8968130    -0.3474360    -0.2563530
  O       -0.5825960    -1.5131530     0.0834280
  N        0.6646380     0.3451110    -0.3514860
  C        1.9521820    -0.3066060    -0.1296730
  C       -1.7886752     0.5301354    -0.3506578
  C        2.3087340    -0.3110910     1.3526080
  C        3.0072020     0.3769410    -0.9846900
  C       -0.5092170    -0.3043550    -0.1811720
  C       -1.8991130     1.5929580     0.7362800
  H        1.8182130    -1.3395260    -0.4626630
  H        0.6508110     1.3528600    -0.4628320
  H       -1.7688680     0.9937940    -1.3356380
  H        2.4085440     0.7136460     1.7243230
  H        1.5276200    -0.8195050     1.9221530
  H        3.2560570    -0.8319740     1.5215790
  H        3.1304270     1.4235350    -0.6835410
  H        2.7315590     0.3479870    -2.0412990
  H        3.9738610    -0.1182480    -0.8633910
  H       -1.8430117     1.1340205     1.7261301
  H       -2.8670940     2.0889060     0.6442650
  H       -1.1140830     2.3514110     0.6543310
  H       -2.4990480    -1.2315890    -0.0938460
units angstrom
no_reorient  #important for SAPT in psi4, default
symmetry c1  #important for SAPT in psi4, default
}

set PROPERTIES_ORIGIN ["COM"]
properties('MP2/aug-cc-pvtz', properties = ['dipole'])
--------------------------------------------------------------------------

    Molecular point group: c1
  Charge       = 0
  Multiplicity = 1
  Basis Set: AUG-CC-PVTZ
    Blend: AUG-CC-PVTZ
  Basis Set: (AUG-CC-PVTZ AUX)
    Blend: AUG-CC-PVTZ-JKFIT

    Orbital Energies [Eh]
    ---------------------

    Doubly Occupied:

       1A    -20.546924     2A    -20.532559     3A    -15.595667
       4A    -11.358445     5A    -11.297208     6A    -11.277135
       7A    -11.232316     8A    -11.230839     9A    -11.222215
      10A     -1.396251    11A     -1.343674    12A     -1.247920
      13A     -1.072106    14A     -1.023916    15A     -0.949834
      16A     -0.894483    17A     -0.822778    18A     -0.795309
      19A     -0.735106    20A     -0.678993    21A     -0.649877
      22A     -0.632136    23A     -0.628638    24A     -0.597075
      25A     -0.581110    26A     -0.567765    27A     -0.555026
      28A     -0.547892    29A     -0.538553    30A     -0.530811
      31A     -0.511360    32A     -0.502724    33A     -0.491313
      34A     -0.446293    35A     -0.433639    36A     -0.401516

  @DF-RHF Final Energy:  -439.13764758137074

   => Energetics <=

    Nuclear Repulsion Energy =            485.1195767192666608
    One-Electron Energy =               -1560.7756341252616039
    Two-Electron Energy =                 636.5184098246242002
    Total Energy =                       -439.1376475813707430
  Basis Set: (AUG-CC-PVTZ AUX)
    Blend: AUG-CC-PVTZ-RI
    Molecular point group: c1

    Geometry (in Angstrom), charge = 0, multiplicity = 1:

       Center              X                  Y                   Z               Mass
    ------------   -----------------  -----------------  -----------------  -----------------
         O           -2.896706668011    -0.348360677706    -0.255526966051    15.994914619570
         O           -0.582489668011    -1.514077677706     0.084254033949    15.994914619570
         N            0.664744331989     0.344186322294    -0.350659966051    14.003074004430
         C            1.952288331989    -0.307530677706    -0.128846966051    12.000000000000
         C           -1.788568868011     0.529210722294    -0.349831766051    12.000000000000
         C            2.308840331989    -0.312015677706     1.353434033949    12.000000000000
         C            3.007308331989     0.376016322294    -0.983863966051    12.000000000000
         C           -0.509110668011    -0.305279677706    -0.180345966051    12.000000000000
         C           -1.899006668011     1.592033322294     0.737106033949    12.000000000000
         H            1.818319331989    -1.340450677706    -0.461836966051     1.007825032230
         H            0.650917331989     1.351935322294    -0.462005966051     1.007825032230
         H           -1.768761668011     0.992869322294    -1.334811966051     1.007825032230
         H            2.408650331989     0.712721322294     1.725149033949     1.007825032230
         H            1.527726331989    -0.820429677706     1.922979033949     1.007825032230
         H            3.256163331989    -0.832898677706     1.522405033949     1.007825032230
         H            3.130533331989     1.422610322294    -0.682714966051     1.007825032230
         H            2.731665331989     0.347062322294    -2.040472966051     1.007825032230
         H            3.973967331989    -0.119172677706    -0.862564966051     1.007825032230
         H           -1.842905368011     1.133095822294     1.726956133949     1.007825032230
         H           -2.866987668011     2.087981322294     0.645091033949     1.007825032230
         H           -1.113976668011     2.350486322294     0.655157033949     1.007825032230
         H           -2.498941668011    -1.232513677706    -0.093019966051     1.007825032230

  Basis Set: AUG-CC-PVTZ
    Blend: AUG-CC-PVTZ
  Basis Set: (AUG-CC-PVTZ AUX)
    Blend: AUG-CC-PVTZ-JKFIT
	 Reference Energy          =    -439.1376475813707430 [Eh]
	 Singles Energy            =      -0.0000000000000000 [Eh]
	 Same-Spin Energy          =      -0.4459880938810994 [Eh]
	 Opposite-Spin Energy      =      -1.4636831682144620 [Eh]
	 Correlation Energy        =      -1.9096712620955614 [Eh]
	 Total Energy              =    -441.0473188434663143 [Eh]

	 ================> DF-SCS-MP2 Energies <==================
	-----------------------------------------------------------
	 SCS Same-Spin Scale       =       0.3333333333333333 [-]
	 SCS Opposite-Spin Scale   =       1.2000000000000000 [-]
	 SCS Same-Spin Energy      =      -0.1486626979603665 [Eh]
	 SCS Opposite-Spin Energy  =      -1.7564198018573542 [Eh]
	 SCS Correlation Energy    =      -1.9050824998177207 [Eh]
	 SCS Total Energy          =    -441.0427300811884379 [Eh]
	-----------------------------------------------------------

  Dipole Moment: [D]
     X:     3.5921      Y:     2.9320      Z:    -0.2345     Total:     4.6427

*** Psi4 exiting successfully. Buy a developer a beer!
