                               Psi4 1.3.2 release

  ==> Input File <==

--------------------------------------------------------------------------
#psi4
#
memory 32 gb

molecule  {
0 1
  O       -2.8968130    -0.3474360    -0.2563530
  O       -0.5825960    -1.5131530     0.0834280
  N        0.6646380     0.3451110    -0.3514860
  C        1.9521820    -0.3066060    -0.1296730
  C       -1.7875910     0.5207530    -0.3412920
  C        2.3087340    -0.3110910     1.3526080
  C        3.0072020     0.3769410    -0.9846900
  C       -0.5210562    -0.4993865    -0.1384806
  C       -1.8991130     1.5929580     0.7362800
  H        1.8182130    -1.3395260    -0.4626630
  H        0.6508110     1.3528600    -0.4628320
  H       -1.7688680     0.9937940    -1.3356380
  H        2.4085440     0.7136460     1.7243230
  H        1.5276200    -0.8195050     1.9221530
  H        3.2560570    -0.8319740     1.5215790
  H        3.1304270     1.4235350    -0.6835410
  H        2.7315590     0.3479870    -2.0412990
  H        3.9738610    -0.1182480    -0.8633910
  H       -1.8420940     1.1254490     1.7220580
  H       -2.8670940     2.0889060     0.6442650
  H       -1.1140830     2.3514110     0.6543310
  H       -2.4990480    -1.2315890    -0.0938460
units angstrom
no_reorient  #important for SAPT in psi4, default
symmetry c1  #important for SAPT in psi4, default
}

set PROPERTIES_ORIGIN ["COM"]
properties('MP2/aug-cc-pvtz', properties = ['dipole'])
--------------------------------------------------------------------------

    Molecular point group: c1
  Charge       = 0
  Multiplicity = 1
  Basis Set: AUG-CC-PVTZ
    Blend: AUG-CC-PVTZ
  Basis Set: (AUG-CC-PVTZ AUX)
    Blend: AUG-CC-PVTZ-JKFIT

    Orbital Energies [Eh]
    ---------------------

    Doubly Occupied:

       1A    -20.574517     2A    -20.547897     3A    -15.563221
       4A    -11.351395     5A    -11.288479     6A    -11.263376
       7A    -11.224120     8A    -11.222509     9A    -11.215859
      10A     -1.550187    11A     -1.356150    12A     -1.213971
      13A     -1.046159    14A     -1.007932    15A     -0.941922
      16A     -0.869469    17A     -0.806265    18A     -0.782970
      19A     -0.752174    20A     -0.719191    21A     -0.677087
      22A     -0.636868    23A     -0.631862    24A     -0.614510
      25A     -0.580613    26A     -0.569933    27A     -0.563458
      28A     -0.551212    29A     -0.544878    30A     -0.532921
      31A     -0.529158    32A     -0.501811    33A     -0.488472
      34A     -0.442238    35A     -0.401446    36A     -0.386084

  @DF-RHF Final Energy:  -439.06373742388502

   => Energetics <=

    Nuclear Repulsion Energy =            486.3381097970807900
    One-Electron Energy =               -1562.9030678210963288
    Two-Electron Energy =                 637.5012206001305231
    Total Energy =                       -439.0637374238850725
  Basis Set: (AUG-CC-PVTZ AUX)
    Blend: AUG-CC-PVTZ-RI
    Molecular point group: c1

    Geometry (in Angstrom), charge = 0, multiplicity = 1:

       Center              X                  Y                   Z               Mass
    ------------   -----------------  -----------------  -----------------  -----------------
         O           -2.895729243380    -0.329583360913    -0.260260817026    15.994914619570
         O           -0.581512243380    -1.495300360913     0.079520182974    15.994914619570
         N            0.665721756620     0.362963639087    -0.355393817026    14.003074004430
         C            1.953265756620    -0.288753360913    -0.133580817026    12.000000000000
         C           -1.786507243380     0.538605639087    -0.345199817026    12.000000000000
         C            2.309817756620    -0.293238360913     1.348700182974    12.000000000000
         C            3.008285756620     0.394793639087    -0.988597817026    12.000000000000
         C           -0.519972443380    -0.481533860913    -0.142388417026    12.000000000000
         C           -1.898029243380     1.610810639087     0.732372182974    12.000000000000
         H            1.819296756620    -1.321673360913    -0.466570817026     1.007825032230
         H            0.651894756620     1.370712639087    -0.466739817026     1.007825032230
         H           -1.767784243380     1.011646639087    -1.339545817026     1.007825032230
         H            2.409627756620     0.731498639087     1.720415182974     1.007825032230
         H            1.528703756620    -0.801652360913     1.918245182974     1.007825032230
         H            3.257140756620    -0.814121360913     1.517671182974     1.007825032230
         H            3.131510756620     1.441387639087    -0.687448817026     1.007825032230
         H            2.732642756620     0.365839639087    -2.045206817026     1.007825032230
         H            3.974944756620    -0.100395360913    -0.867298817026     1.007825032230
         H           -1.841010243380     1.143301639087     1.718150182974     1.007825032230
         H           -2.866010243380     2.106758639087     0.640357182974     1.007825032230
         H           -1.112999243380     2.369263639087     0.650423182974     1.007825032230
         H           -2.497964243380    -1.213736360913    -0.097753817026     1.007825032230

  Basis Set: AUG-CC-PVTZ
    Blend: AUG-CC-PVTZ
  Basis Set: (AUG-CC-PVTZ AUX)
    Blend: AUG-CC-PVTZ-JKFIT
	 Reference Energy          =    -439.0637374238850157 [Eh]
	 Singles Energy            =      -0.0000000000000000 [Eh]
	 Same-Spin Energy          =      -0.4423512673978214 [Eh]
	 Opposite-Spin Energy      =      -1.4570493543681018 [Eh]
	 Correlation Energy        =      -1.8994006217659232 [Eh]
	 Total Energy              =    -440.9631380456509646 [Eh]

	 ================> DF-SCS-MP2 Energies <==================
	-----------------------------------------------------------
	 SCS Same-Spin Scale       =       0.3333333333333333 [-]
	 SCS Opposite-Spin Scale   =       1.2000000000000000 [-]
	 SCS Same-Spin Energy      =      -0.1474504224659405 [Eh]
	 SCS Opposite-Spin Energy  =      -1.7484592252417221 [Eh]
	 SCS Correlation Energy    =      -1.8959096477076627 [Eh]
	 SCS Total Energy          =    -440.9596470715926557 [Eh]
	-----------------------------------------------------------

  Dipole Moment: [D]
     X:     2.7938      Y:     1.6042      Z:     0.0006     Total:     3.2216

*** Psi4 exiting successfully. Buy a developer a beer!
