                               Psi4 1.3.2 release

  ==> Input File <==

--------------------------------------------------------------------------
#psi4
#
memory 32 gb

molecule  {
0 1
  O       -2.8968130    -0.3474360    -0.2563530
  O       -0.5825960    -1.5131530     0.0834280
  N        0.6646380     0.3451110    -0.3514860
  C        1.9521820    -0.3066060    -0.1296730
  C       -1.7875910     0.5207530    -0.3412920
  C        2.3087340    -0.3110910     1.3526080
  C        3.0072020     0.3769410    -0.9846900
  C       -0.5092170    -0.3043550    -0.1811720
  C       -1.8991130     1.5929580     0.7362800
  H        1.8182130    -1.3395260    -0.4626630
  H        0.6508110     1.3528600    -0.4628320
  H       -1.7688680     0.9937940    -1.3356380
  H        2.4085440     0.7136460     1.7243230
  H        1.5276200    -0.8195050     1.9221530
  H        3.2560570    -0.8319740     1.5215790
  H        3.1304270     1.4235350    -0.6835410
  H        2.7315590     0.3479870    -2.0412990
  H        3.9738610    -0.1182480    -0.8633910
  H       -1.8420940     1.1254490     1.7220580
  H       -2.8670940     2.0889060     0.6442650
  H       -1.1140830     2.3514110     0.6543310
  H       -2.4181219    -1.4114718    -0.0607836
units angstrom
no_reorient  #important for SAPT in psi4, default
symmetry c1  #important for SAPT in psi4, default
}

set PROPERTIES_ORIGIN ["COM"]
properties('MP2/aug-cc-pvtz', properties = ['dipole'])
--------------------------------------------------------------------------

    Molecular point group: c1
  Charge       = 0
  Multiplicity = 1
  Basis Set: AUG-CC-PVTZ
    Blend: AUG-CC-PVTZ
  Basis Set: (AUG-CC-PVTZ AUX)
    Blend: AUG-CC-PVTZ-JKFIT

    Orbital Energies [Eh]
    ---------------------

    Doubly Occupied:

       1A    -20.548202     2A    -20.538853     3A    -15.597730
       4A    -11.360127     5A    -11.293097     6A    -11.278463
       7A    -11.233202     8A    -11.228293     9A    -11.223368
      10A     -1.396925    11A     -1.313584    12A     -1.250262
      13A     -1.071398    14A     -1.016406    15A     -0.950905
      16A     -0.892990    17A     -0.819514    18A     -0.794730
      19A     -0.719430    20A     -0.676358    21A     -0.642563
      22A     -0.629440    23A     -0.629024    24A     -0.598454
      25A     -0.577245    26A     -0.558388    27A     -0.555808
      28A     -0.546975    29A     -0.536988    30A     -0.527581
      31A     -0.504704    32A     -0.494878    33A     -0.484467
      34A     -0.439264    35A     -0.434755    36A     -0.403444

  @DF-RHF Final Energy:  -439.10443234291222

   => Energetics <=

    Nuclear Repulsion Energy =            484.5064219641782870
    One-Electron Energy =               -1559.6860785294279594
    Two-Electron Energy =                 636.0752242223373969
    Total Energy =                       -439.1044323429122187
  Basis Set: (AUG-CC-PVTZ AUX)
    Blend: AUG-CC-PVTZ-RI
    Molecular point group: c1

    Geometry (in Angstrom), charge = 0, multiplicity = 1:

       Center              X                  Y                   Z               Mass
    ------------   -----------------  -----------------  -----------------  -----------------
         O           -2.897435108461    -0.346053048751    -0.256607153329    15.994914619570
         O           -0.583218108461    -1.511770048751     0.083173846671    15.994914619570
         N            0.664015891539     0.346493951249    -0.351740153329    14.003074004430
         C            1.951559891539    -0.305223048751    -0.129927153329    12.000000000000
         C           -1.788213108461     0.522135951249    -0.341546153329    12.000000000000
         C            2.308111891539    -0.309708048751     1.352353846671    12.000000000000
         C            3.006579891539     0.378323951249    -0.984944153329    12.000000000000
         C           -0.509839108461    -0.302972048751    -0.181426153329    12.000000000000
         C           -1.899735108461     1.594340951249     0.736025846671    12.000000000000
         H            1.817590891539    -1.338143048751    -0.462917153329     1.007825032230
         H            0.650188891539     1.354242951249    -0.463086153329     1.007825032230
         H           -1.769490108461     0.995176951249    -1.335892153329     1.007825032230
         H            2.407921891539     0.715028951249     1.724068846671     1.007825032230
         H            1.526997891539    -0.818122048751     1.921898846671     1.007825032230
         H            3.255434891539    -0.830591048751     1.521324846671     1.007825032230
         H            3.129804891539     1.424917951249    -0.683795153329     1.007825032230
         H            2.730936891539     0.349369951249    -2.041553153329     1.007825032230
         H            3.973238891539    -0.116865048751    -0.863645153329     1.007825032230
         H           -1.842716108461     1.126831951249     1.721803846671     1.007825032230
         H           -2.867716108461     2.090288951249     0.644010846671     1.007825032230
         H           -1.114705108461     2.352793951249     0.654076846671     1.007825032230
         H           -2.418744008461    -1.410088848751    -0.061037753329     1.007825032230

  Basis Set: AUG-CC-PVTZ
    Blend: AUG-CC-PVTZ
  Basis Set: (AUG-CC-PVTZ AUX)
    Blend: AUG-CC-PVTZ-JKFIT
	 Reference Energy          =    -439.1044323429122187 [Eh]
	 Singles Energy            =      -0.0000000000000000 [Eh]
	 Same-Spin Energy          =      -0.4492493573218133 [Eh]
	 Opposite-Spin Energy      =      -1.4703103058765299 [Eh]
	 Correlation Energy        =      -1.9195596631983431 [Eh]
	 Total Energy              =    -441.0239920061105749 [Eh]

	 ================> DF-SCS-MP2 Energies <==================
	-----------------------------------------------------------
	 SCS Same-Spin Scale       =       0.3333333333333333 [-]
	 SCS Opposite-Spin Scale   =       1.2000000000000000 [-]
	 SCS Same-Spin Energy      =      -0.1497497857739377 [Eh]
	 SCS Opposite-Spin Energy  =      -1.7643723670518359 [Eh]
	 SCS Correlation Energy    =      -1.9141221528257737 [Eh]
	 SCS Total Energy          =    -441.0185544957379875 [Eh]
	-----------------------------------------------------------

  Dipole Moment: [D]
     X:     3.9082      Y:     2.6782      Z:    -0.1770     Total:     4.7411

*** Psi4 exiting successfully. Buy a developer a beer!
