                               Psi4 1.4a3.dev225

  ==> Input File <==

--------------------------------------------------------------------------
#psi4
#
memory 32 gb

molecule  {
0 1
  O       -1.7446660    -1.3796590    -0.7880960
  O       -0.4296620     1.7569970     0.2600660
  N        0.4723820    -0.3330750    -0.0012650
  C        1.8394770     0.0732600     0.3013020
  C       -1.9041750    -0.0581235    -0.4103926
  C        2.4958720     0.7244850    -0.9128940
  C        2.6145980    -1.1365250     0.8043010
  C       -0.5442740     0.5588710    -0.0269710
  C       -2.8608870     0.1360220     0.7815810
  H        1.7638430     0.8203410     1.0982830
  H        0.2750420    -1.2730860    -0.3263580
  H       -2.2722210     0.5864250    -1.2458220
  H        2.5570320     0.0100450    -1.7401110
  H        1.9072700     1.5874400    -1.2316560
  H        3.5085800     1.0627310    -0.6705710
  H        2.6773940    -1.9046250     0.0252330
  H        2.1327900    -1.5715010     1.6841320
  H        3.6348850    -0.8497170     1.0733550
  H       -2.5011890    -0.4705790     1.6169940
  H       -3.8694610    -0.1962540     0.5126420
  H       -2.9055320     1.1820880     1.0905810
  H       -2.6295620    -1.7449530    -0.9570530
units angstrom
no_reorient  #important for SAPT in psi4, default
symmetry c1  #important for SAPT in psi4, default
}

set PROPERTIES_ORIGIN ["COM"]
properties('MP2/aug-cc-pvtz', properties = ['dipole'])
--------------------------------------------------------------------------

    Molecular point group: c1
  Charge       = 0
  Multiplicity = 1
  Basis Set: AUG-CC-PVTZ
    Blend: AUG-CC-PVTZ
  Basis Set: (AUG-CC-PVTZ AUX)
    Blend: AUG-CC-PVTZ-JKFIT

    Orbital Energies [Eh]
    ---------------------

    Doubly Occupied:

       1A    -20.587238     2A    -20.509028     3A    -15.574811
       4A    -11.342371     5A    -11.301326     6A    -11.263405
       7A    -11.227848     8A    -11.221130     9A    -11.209010
      10A     -1.406226    11A     -1.360096    12A     -1.227557
      13A     -1.055780    14A     -1.022769    15A     -0.936901
      16A     -0.895817    17A     -0.813326    18A     -0.778105
      19A     -0.719828    20A     -0.694617    21A     -0.647114
      22A     -0.642631    23A     -0.614491    24A     -0.594728
      25A     -0.578763    26A     -0.561395    27A     -0.553128
      28A     -0.542171    29A     -0.530821    30A     -0.519941
      31A     -0.514972    32A     -0.490645    33A     -0.479642
      34A     -0.451836    35A     -0.410262    36A     -0.382244

  @DF-RHF Final Energy:  -439.13616362211832

   => Energetics <=

    Nuclear Repulsion Energy =            486.1356855025488812
    One-Electron Energy =               -1563.2197505201449985
    Two-Electron Energy =                 637.9479013954776292
    Total Energy =                       -439.1361636221183744
  Basis Set: (AUG-CC-PVTZ AUX)
    Blend: AUG-CC-PVTZ-RI
    Molecular point group: c1

    Geometry (in Angstrom), charge = 0, multiplicity = 1:

       Center              X                  Y                   Z               Mass
    ------------   -----------------  -----------------  -----------------  -----------------
         O           -1.712904932826    -1.396166421239    -0.779831219567    15.994914619570
         O           -0.397900932826     1.740489578761     0.268330780433    15.994914619570
         N            0.504143067174    -0.349582421239     0.006999780433    14.003074004430
         C            1.871238067174     0.056752578761     0.309566780433    12.000000000000
         C           -1.872413932826    -0.074630921239    -0.402127819567    12.000000000000
         C            2.527633067174     0.707977578761    -0.904629219567    12.000000000000
         C            2.646359067174    -1.153032421239     0.812565780433    12.000000000000
         C           -0.512512932826     0.542363578761    -0.018706219567    12.000000000000
         C           -2.829125932826     0.119514578761     0.789845780433    12.000000000000
         H            1.795604067174     0.803833578761     1.106547780433     1.007825032230
         H            0.306803067174    -1.289593421239    -0.318093219567     1.007825032230
         H           -2.240459932826     0.569917578761    -1.237557219567     1.007825032230
         H            2.588793067174    -0.006462421239    -1.731846219567     1.007825032230
         H            1.939031067174     1.570932578761    -1.223391219567     1.007825032230
         H            3.540341067174     1.046223578761    -0.662306219567     1.007825032230
         H            2.709155067174    -1.921132421239     0.033497780433     1.007825032230
         H            2.164551067174    -1.588008421239     1.692396780433     1.007825032230
         H            3.666646067174    -0.866224421239     1.081619780433     1.007825032230
         H           -2.469427932826    -0.487086421239     1.625258780433     1.007825032230
         H           -3.837699932826    -0.212761421239     0.520906780433     1.007825032230
         H           -2.873770932826     1.165580578761     1.098845780433     1.007825032230
         H           -2.597800932826    -1.761460421239    -0.948788219567     1.007825032230

  Basis Set: AUG-CC-PVTZ
    Blend: AUG-CC-PVTZ
  Basis Set: (AUG-CC-PVTZ AUX)
    Blend: AUG-CC-PVTZ-JKFIT
	 Reference Energy          =    -439.1361636221183176 [Eh]
	 Singles Energy            =      -0.0000000000000000 [Eh]
	 Same-Spin Energy          =      -0.4455102531290021 [Eh]
	 Opposite-Spin Energy      =      -1.4629367013057308 [Eh]
	 Correlation Energy        =      -1.9084469544347329 [Eh]
	 Total Energy              =    -441.0446105765530547 [Eh]

	 ================> DF-SCS-MP2 Energies <==================
	-----------------------------------------------------------
	 SCS Same-Spin Scale       =       0.3333333333333333 [-]
	 SCS Opposite-Spin Scale   =       1.2000000000000000 [-]
	 SCS Same-Spin Energy      =      -0.1485034177096674 [Eh]
	 SCS Opposite-Spin Energy  =      -1.7555240415668769 [Eh]
	 SCS Correlation Energy    =      -1.9040274592765443 [Eh]
	 SCS Total Energy          =    -441.0401910813948803 [Eh]
	-----------------------------------------------------------

  Dipole Moment: [D]
     X:    -0.6595      Y:    -3.0407      Z:    -0.5308     Total:     3.1563

*** Psi4 exiting successfully. Buy a developer a beer!
