                               Psi4 1.3.2 release

  ==> Input File <==

--------------------------------------------------------------------------
#psi4
#
memory 32 gb

molecule  {
0 1
  O       -2.8902750    -0.3531858    -0.2333144
  O       -0.5825960    -1.5131530     0.0834280
  N        0.6646380     0.3451110    -0.3514860
  C        1.9521820    -0.3066060    -0.1296730
  C       -1.7875910     0.5207530    -0.3412920
  C        2.3087340    -0.3110910     1.3526080
  C        3.0072020     0.3769410    -0.9846900
  C       -0.5092170    -0.3043550    -0.1811720
  C       -1.8991130     1.5929580     0.7362800
  H        1.8182130    -1.3395260    -0.4626630
  H        0.6508110     1.3528600    -0.4628320
  H       -1.7529697     1.0033524    -1.3306057
  H        2.4085440     0.7136460     1.7243230
  H        1.5276200    -0.8195050     1.9221530
  H        3.2560570    -0.8319740     1.5215790
  H        3.1304270     1.4235350    -0.6835410
  H        2.7315590     0.3479870    -2.0412990
  H        3.9738610    -0.1182480    -0.8633910
  H       -1.8420940     1.1254490     1.7220580
  H       -2.8670940     2.0889060     0.6442650
  H       -1.1140830     2.3514110     0.6543310
  H       -2.4990480    -1.2315890    -0.0938460
units angstrom
no_reorient  #important for SAPT in psi4, default
symmetry c1  #important for SAPT in psi4, default
}

set PROPERTIES_ORIGIN ["COM"]
properties('MP2/aug-cc-pvtz', properties = ['dipole'])
--------------------------------------------------------------------------

    Molecular point group: c1
  Charge       = 0
  Multiplicity = 1
  Basis Set: AUG-CC-PVTZ
    Blend: AUG-CC-PVTZ
  Basis Set: (AUG-CC-PVTZ AUX)
    Blend: AUG-CC-PVTZ-JKFIT

    Orbital Energies [Eh]
    ---------------------

    Doubly Occupied:

       1A    -20.547350     2A    -20.531931     3A    -15.595437
       4A    -11.357806     5A    -11.297876     6A    -11.277057
       7A    -11.232218     8A    -11.230535     9A    -11.222088
      10A     -1.397649    11A     -1.347283    12A     -1.247734
      13A     -1.072356    14A     -1.024389    15A     -0.949722
      16A     -0.895099    17A     -0.822496    18A     -0.794854
      19A     -0.736871    20A     -0.680376    21A     -0.650978
      22A     -0.632376    23A     -0.628611    24A     -0.596852
      25A     -0.581570    26A     -0.567312    27A     -0.555001
      28A     -0.548019    29A     -0.539674    30A     -0.530067
      31A     -0.512358    32A     -0.502589    33A     -0.491265
      34A     -0.445895    35A     -0.433851    36A     -0.401150

  @DF-RHF Final Energy:  -439.13827981674604

   => Energetics <=

    Nuclear Repulsion Energy =            485.5307821727255373
    One-Electron Energy =               -1561.5807337325202298
    Two-Electron Energy =                 636.9116717430486005
    Total Energy =                       -439.1382798167460351
  Basis Set: (AUG-CC-PVTZ AUX)
    Blend: AUG-CC-PVTZ-RI
    Molecular point group: c1

    Geometry (in Angstrom), charge = 0, multiplicity = 1:

       Center              X                  Y                   Z               Mass
    ------------   -----------------  -----------------  -----------------  -----------------
         O           -2.891194894172    -0.352557692977    -0.236164014386    15.994914619570
         O           -0.583515894172    -1.512524892977     0.080578385614    15.994914619570
         N            0.663718105828     0.345739107023    -0.354335614386    14.003074004430
         C            1.951262105828    -0.305977892977    -0.132522614386    12.000000000000
         C           -1.788510894172     0.521381107023    -0.344141614386    12.000000000000
         C            2.307814105828    -0.310462892977     1.349758385614    12.000000000000
         C            3.006282105828     0.377569107023    -0.987539614386    12.000000000000
         C           -0.510136894172    -0.303726892977    -0.184021614386    12.000000000000
         C           -1.900032894172     1.593586107023     0.733430385614    12.000000000000
         H            1.817293105828    -1.338897892977    -0.465512614386     1.007825032230
         H            0.649891105828     1.353488107023    -0.465681614386     1.007825032230
         H           -1.753889594172     1.003980507023    -1.333455314386     1.007825032230
         H            2.407624105828     0.714274107023     1.721473385614     1.007825032230
         H            1.526700105828    -0.818876892977     1.919303385614     1.007825032230
         H            3.255137105828    -0.831345892977     1.518729385614     1.007825032230
         H            3.129507105828     1.424163107023    -0.686390614386     1.007825032230
         H            2.730639105828     0.348615107023    -2.044148614386     1.007825032230
         H            3.972941105828    -0.117619892977    -0.866240614386     1.007825032230
         H           -1.843013894172     1.126077107023     1.719208385614     1.007825032230
         H           -2.868013894172     2.089534107023     0.641415385614     1.007825032230
         H           -1.115002894172     2.352039107023     0.651481385614     1.007825032230
         H           -2.499967894172    -1.230960892977    -0.096695614386     1.007825032230

  Basis Set: AUG-CC-PVTZ
    Blend: AUG-CC-PVTZ
  Basis Set: (AUG-CC-PVTZ AUX)
    Blend: AUG-CC-PVTZ-JKFIT
	 Reference Energy          =    -439.1382798167460351 [Eh]
	 Singles Energy            =      -0.0000000000000000 [Eh]
	 Same-Spin Energy          =      -0.4458793027334008 [Eh]
	 Opposite-Spin Energy      =      -1.4632720729900368 [Eh]
	 Correlation Energy        =      -1.9091513757234377 [Eh]
	 Total Energy              =    -441.0474311924694462 [Eh]

	 ================> DF-SCS-MP2 Energies <==================
	-----------------------------------------------------------
	 SCS Same-Spin Scale       =       0.3333333333333333 [-]
	 SCS Opposite-Spin Scale   =       1.2000000000000000 [-]
	 SCS Same-Spin Energy      =      -0.1486264342444669 [Eh]
	 SCS Opposite-Spin Energy  =      -1.7559264875880440 [Eh]
	 SCS Correlation Energy    =      -1.9045529218325110 [Eh]
	 SCS Total Energy          =    -441.0428327385785678 [Eh]
	-----------------------------------------------------------

  Dipole Moment: [D]
     X:     3.5517      Y:     2.9219      Z:    -0.2706     Total:     4.6071

*** Psi4 exiting successfully. Buy a developer a beer!
