                               Psi4 1.3.2 release

  ==> Input File <==

--------------------------------------------------------------------------
#psi4
#
memory 32 gb

molecule  {
0 1
  O       -2.9118458    -0.3281965    -0.2595837
  O       -0.5825960    -1.5131530     0.0834280
  N        0.6646380     0.3451110    -0.3514860
  C        1.9521820    -0.3066060    -0.1296730
  C       -1.7875910     0.5207530    -0.3412920
  C        2.3087340    -0.3110910     1.3526080
  C        3.0072020     0.3769410    -0.9846900
  C       -0.4947705    -0.2820565    -0.1838315
  C       -1.8991130     1.5929580     0.7362800
  H        1.8182130    -1.3395260    -0.4626630
  H        0.6508110     1.3528600    -0.4628320
  H       -1.7688680     0.9937940    -1.3356380
  H        2.4085440     0.7136460     1.7243230
  H        1.5276200    -0.8195050     1.9221530
  H        3.2560570    -0.8319740     1.5215790
  H        3.1304270     1.4235350    -0.6835410
  H        2.7315590     0.3479870    -2.0412990
  H        3.9738610    -0.1182480    -0.8633910
  H       -1.8420940     1.1254490     1.7220580
  H       -2.8670940     2.0889060     0.6442650
  H       -1.1140830     2.3514110     0.6543310
  H       -2.4990480    -1.2315890    -0.0938460
units angstrom
no_reorient  #important for SAPT in psi4, default
symmetry c1  #important for SAPT in psi4, default
}

set PROPERTIES_ORIGIN ["COM"]
properties('MP2/aug-cc-pvtz', properties = ['dipole'])
--------------------------------------------------------------------------

    Molecular point group: c1
  Charge       = 0
  Multiplicity = 1
  Basis Set: AUG-CC-PVTZ
    Blend: AUG-CC-PVTZ
  Basis Set: (AUG-CC-PVTZ AUX)
    Blend: AUG-CC-PVTZ-JKFIT

    Orbital Energies [Eh]
    ---------------------

    Doubly Occupied:

       1A    -20.549257     2A    -20.527360     3A    -15.601197
       4A    -11.358254     5A    -11.296947     6A    -11.279965
       7A    -11.234325     8A    -11.230047     9A    -11.223983
      10A     -1.386238    11A     -1.339518    12A     -1.253167
      13A     -1.075831    14A     -1.023945    15A     -0.951778
      16A     -0.895546    17A     -0.824704    18A     -0.800197
      19A     -0.733095    20A     -0.677697    21A     -0.648943
      22A     -0.631500    23A     -0.627330    24A     -0.596519
      25A     -0.580241    26A     -0.565444    27A     -0.556931
      28A     -0.549860    29A     -0.538962    30A     -0.529374
      31A     -0.508691    32A     -0.502439    33A     -0.492160
      34A     -0.442823    35A     -0.432237    36A     -0.403266

  @DF-RHF Final Energy:  -439.13295568981982

   => Energetics <=

    Nuclear Repulsion Energy =            485.0099417941001434
    One-Electron Energy =               -1560.5462488713117182
    Two-Electron Energy =                 636.4033513873918082
    Total Energy =                       -439.1329556898198234
  Basis Set: (AUG-CC-PVTZ AUX)
    Blend: AUG-CC-PVTZ-RI
    Molecular point group: c1

    Geometry (in Angstrom), charge = 0, multiplicity = 1:

       Center              X                  Y                   Z               Mass
    ------------   -----------------  -----------------  -----------------  -----------------
         O           -2.911333997001    -0.332585002214    -0.258946055654    15.994914619570
         O           -0.582084197001    -1.517541502214     0.084065644346    15.994914619570
         N            0.665149802999     0.340722497786    -0.350848355654    14.003074004430
         C            1.952693802999    -0.310994502214    -0.129035355654    12.000000000000
         C           -1.787079197001     0.516364497786    -0.340654355654    12.000000000000
         C            2.309245802999    -0.315479502214     1.353245644346    12.000000000000
         C            3.007713802999     0.372552497786    -0.984052355654    12.000000000000
         C           -0.494258697001    -0.286445002214    -0.183193855654    12.000000000000
         C           -1.898601197001     1.588569497786     0.736917644346    12.000000000000
         H            1.818724802999    -1.343914502214    -0.462025355654     1.007825032230
         H            0.651322802999     1.348471497786    -0.462194355654     1.007825032230
         H           -1.768356197001     0.989405497786    -1.335000355654     1.007825032230
         H            2.409055802999     0.709257497786     1.724960644346     1.007825032230
         H            1.528131802999    -0.823893502214     1.922790644346     1.007825032230
         H            3.256568802999    -0.836362502214     1.522216644346     1.007825032230
         H            3.130938802999     1.419146497786    -0.682903355654     1.007825032230
         H            2.732070802999     0.343598497786    -2.040661355654     1.007825032230
         H            3.974372802999    -0.122636502214    -0.862753355654     1.007825032230
         H           -1.841582197001     1.121060497786     1.722695644346     1.007825032230
         H           -2.866582197001     2.084517497786     0.644902644346     1.007825032230
         H           -1.113571197001     2.347022497786     0.654968644346     1.007825032230
         H           -2.498536197001    -1.235977502214    -0.093208355654     1.007825032230

  Basis Set: AUG-CC-PVTZ
    Blend: AUG-CC-PVTZ
  Basis Set: (AUG-CC-PVTZ AUX)
    Blend: AUG-CC-PVTZ-JKFIT
	 Reference Energy          =    -439.1329556898198234 [Eh]
	 Singles Energy            =      -0.0000000000000000 [Eh]
	 Same-Spin Energy          =      -0.4468459455573048 [Eh]
	 Opposite-Spin Energy      =      -1.4652689364062730 [Eh]
	 Correlation Energy        =      -1.9121148819635778 [Eh]
	 Total Energy              =    -441.0450705717834126 [Eh]

	 ================> DF-SCS-MP2 Energies <==================
	-----------------------------------------------------------
	 SCS Same-Spin Scale       =       0.3333333333333333 [-]
	 SCS Opposite-Spin Scale   =       1.2000000000000000 [-]
	 SCS Same-Spin Energy      =      -0.1489486485191016 [Eh]
	 SCS Opposite-Spin Energy  =      -1.7583227236875276 [Eh]
	 SCS Correlation Energy    =      -1.9072713722066292 [Eh]
	 SCS Total Energy          =    -441.0402270620264744 [Eh]
	-----------------------------------------------------------

  Dipole Moment: [D]
     X:     3.7931      Y:     3.0162      Z:    -0.2477     Total:     4.8525

*** Psi4 exiting successfully. Buy a developer a beer!
