                               Psi4 1.3.2 release

  ==> Input File <==

--------------------------------------------------------------------------
#psi4
#
memory 32 gb

molecule  {
0 1
  O       -2.8968130    -0.3474360    -0.2563530
  O       -0.5825960    -1.5131530     0.0834280
  N        0.6646380     0.3451110    -0.3514860
  C        1.9521820    -0.3066060    -0.1296730
  C       -1.7812667     0.4661980    -0.2833995
  C        2.3087340    -0.3110910     1.3526080
  C        3.0072020     0.3769410    -0.9846900
  C       -0.5092170    -0.3043550    -0.1811720
  C       -1.8991130     1.5929580     0.7362800
  H        1.8182130    -1.3395260    -0.4626630
  H        0.6508110     1.3528600    -0.4628320
  H       -1.7688680     0.9937940    -1.3356380
  H        2.4085440     0.7136460     1.7243230
  H        1.5276200    -0.8195050     1.9221530
  H        3.2560570    -0.8319740     1.5215790
  H        3.1304270     1.4235350    -0.6835410
  H        2.7315590     0.3479870    -2.0412990
  H        3.9738610    -0.1182480    -0.8633910
  H       -1.8366812     1.0747901     1.6960604
  H       -2.8670940     2.0889060     0.6442650
  H       -1.1140830     2.3514110     0.6543310
  H       -2.4990480    -1.2315890    -0.0938460
units angstrom
no_reorient  #important for SAPT in psi4, default
symmetry c1  #important for SAPT in psi4, default
}

set PROPERTIES_ORIGIN ["COM"]
properties('MP2/aug-cc-pvtz', properties = ['dipole'])
--------------------------------------------------------------------------

    Molecular point group: c1
  Charge       = 0
  Multiplicity = 1
  Basis Set: AUG-CC-PVTZ
    Blend: AUG-CC-PVTZ
  Basis Set: (AUG-CC-PVTZ AUX)
    Blend: AUG-CC-PVTZ-JKFIT

    Orbital Energies [Eh]
    ---------------------

    Doubly Occupied:

       1A    -20.553501     2A    -20.532095     3A    -15.596004
       4A    -11.357682     5A    -11.299438     6A    -11.277754
       7A    -11.232354     8A    -11.231071     9A    -11.222458
      10A     -1.404292    11A     -1.357305    12A     -1.248299
      13A     -1.073295    14A     -1.024420    15A     -0.949996
      16A     -0.899062    17A     -0.820909    18A     -0.793421
      19A     -0.744373    20A     -0.678424    21A     -0.648914
      22A     -0.633426    23A     -0.629695    24A     -0.597528
      25A     -0.586578    26A     -0.565457    27A     -0.555686
      28A     -0.549697    29A     -0.543577    30A     -0.528545
      31A     -0.517293    32A     -0.503071    33A     -0.492499
      34A     -0.440526    35A     -0.430622    36A     -0.400393

  @DF-RHF Final Energy:  -439.12989604462456

   => Energetics <=

    Nuclear Repulsion Energy =            486.3867728346339163
    One-Electron Energy =               -1563.1940211362543778
    Two-Electron Energy =                 637.6773522569958459
    Total Energy =                       -439.1298960446245019
  Basis Set: (AUG-CC-PVTZ AUX)
    Blend: AUG-CC-PVTZ-RI
    Molecular point group: c1

    Geometry (in Angstrom), charge = 0, multiplicity = 1:

       Center              X                  Y                   Z               Mass
    ------------   -----------------  -----------------  -----------------  -----------------
         O           -2.897433486778    -0.342052694777    -0.261452415565    15.994914619570
         O           -0.583216486778    -1.507769694777     0.078328584435    15.994914619570
         N            0.664017513222     0.350494305223    -0.356585415565    14.003074004430
         C            1.951561513222    -0.301222694777    -0.134772415565    12.000000000000
         C           -1.781887186778     0.471581305223    -0.288498915565    12.000000000000
         C            2.308113513222    -0.305707694777     1.347508584435    12.000000000000
         C            3.006581513222     0.382324305223    -0.989789415565    12.000000000000
         C           -0.509837486778    -0.298971694777    -0.186271415565    12.000000000000
         C           -1.899733486778     1.598341305223     0.731180584435    12.000000000000
         H            1.817592513222    -1.334142694777    -0.467762415565     1.007825032230
         H            0.650190513222     1.358243305223    -0.467931415565     1.007825032230
         H           -1.769488486778     0.999177305223    -1.340737415565     1.007825032230
         H            2.407923513222     0.719029305223     1.719223584435     1.007825032230
         H            1.526999513222    -0.814121694777     1.917053584435     1.007825032230
         H            3.255436513222    -0.826590694777     1.516479584435     1.007825032230
         H            3.129806513222     1.428918305223    -0.688640415565     1.007825032230
         H            2.730938513222     0.353370305223    -2.046398415565     1.007825032230
         H            3.973240513222    -0.112864694777    -0.868490415565     1.007825032230
         H           -1.837301686778     1.080173405223     1.690960984435     1.007825032230
         H           -2.867714486778     2.094289305223     0.639165584435     1.007825032230
         H           -1.114703486778     2.356794305223     0.649231584435     1.007825032230
         H           -2.499668486778    -1.226205694777    -0.098945415565     1.007825032230

  Basis Set: AUG-CC-PVTZ
    Blend: AUG-CC-PVTZ
  Basis Set: (AUG-CC-PVTZ AUX)
    Blend: AUG-CC-PVTZ-JKFIT
	 Reference Energy          =    -439.1298960446245587 [Eh]
	 Singles Energy            =      -0.0000000000000000 [Eh]
	 Same-Spin Energy          =      -0.4465254724010118 [Eh]
	 Opposite-Spin Energy      =      -1.4640358302046790 [Eh]
	 Correlation Energy        =      -1.9105613026056907 [Eh]
	 Total Energy              =    -441.0404573472302445 [Eh]

	 ================> DF-SCS-MP2 Energies <==================
	-----------------------------------------------------------
	 SCS Same-Spin Scale       =       0.3333333333333333 [-]
	 SCS Opposite-Spin Scale   =       1.2000000000000000 [-]
	 SCS Same-Spin Energy      =      -0.1488418241336706 [Eh]
	 SCS Opposite-Spin Energy  =      -1.7568429962456147 [Eh]
	 SCS Correlation Energy    =      -1.9056848203792853 [Eh]
	 SCS Total Energy          =    -441.0355808650038512 [Eh]
	-----------------------------------------------------------

  Dipole Moment: [D]
     X:     3.4800      Y:     2.8224      Z:    -0.1520     Total:     4.4833

*** Psi4 exiting successfully. Buy a developer a beer!
