                               Psi4 1.3.2 release

  ==> Input File <==

--------------------------------------------------------------------------
#psi4
#
memory 32 gb

molecule  {
0 1
  O       -2.8968130    -0.3474360    -0.2563530
  O       -0.5825960    -1.5131530     0.0834280
  N        0.6464775     0.3010747    -0.3696011
  C        1.9521820    -0.3066060    -0.1296730
  C       -1.7875910     0.5207530    -0.3412920
  C        2.3087340    -0.3110910     1.3526080
  C        3.0072020     0.3769410    -0.9846900
  C       -0.5092170    -0.3043550    -0.1811720
  C       -1.8991130     1.5929580     0.7362800
  H        1.7820722    -1.3312197    -0.4717011
  H        0.6508110     1.3528600    -0.4628320
  H       -1.7688680     0.9937940    -1.3356380
  H        2.4085440     0.7136460     1.7243230
  H        1.5276200    -0.8195050     1.9221530
  H        3.2560570    -0.8319740     1.5215790
  H        3.1304270     1.4235350    -0.6835410
  H        2.7315590     0.3479870    -2.0412990
  H        3.9738610    -0.1182480    -0.8633910
  H       -1.8420940     1.1254490     1.7220580
  H       -2.8670940     2.0889060     0.6442650
  H       -1.1140830     2.3514110     0.6543310
  H       -2.4990480    -1.2315890    -0.0938460
units angstrom
no_reorient  #important for SAPT in psi4, default
symmetry c1  #important for SAPT in psi4, default
}

set PROPERTIES_ORIGIN ["COM"]
properties('MP2/aug-cc-pvtz', properties = ['dipole'])
--------------------------------------------------------------------------

    Molecular point group: c1
  Charge       = 0
  Multiplicity = 1
  Basis Set: AUG-CC-PVTZ
    Blend: AUG-CC-PVTZ
  Basis Set: (AUG-CC-PVTZ AUX)
    Blend: AUG-CC-PVTZ-JKFIT

    Orbital Energies [Eh]
    ---------------------

    Doubly Occupied:

       1A    -20.546797     2A    -20.525769     3A    -15.599579
       4A    -11.352454     5A    -11.296629     6A    -11.278597
       7A    -11.234367     8A    -11.230365     9A    -11.224331
      10A     -1.397093    11A     -1.345323    12A     -1.249945
      13A     -1.075147    14A     -1.024141    15A     -0.951345
      16A     -0.896061    17A     -0.825450    18A     -0.790286
      19A     -0.736989    20A     -0.676759    21A     -0.647033
      22A     -0.632338    23A     -0.628478    24A     -0.596502
      25A     -0.581297    26A     -0.567325    27A     -0.556320
      28A     -0.550655    29A     -0.539808    30A     -0.531023
      31A     -0.508284    32A     -0.503253    33A     -0.492917
      34A     -0.443990    35A     -0.432278    36A     -0.401887

  @DF-RHF Final Energy:  -439.13396822744966

   => Energetics <=

    Nuclear Repulsion Energy =            485.8669044908667161
    One-Electron Energy =               -1562.2601114720159785
    Two-Electron Energy =                 637.2592387536994920
    Total Energy =                       -439.1339682274497136
  Basis Set: (AUG-CC-PVTZ AUX)
    Blend: AUG-CC-PVTZ-RI
    Molecular point group: c1

    Geometry (in Angstrom), charge = 0, multiplicity = 1:

       Center              X                  Y                   Z               Mass
    ------------   -----------------  -----------------  -----------------  -----------------
         O           -2.894595283660    -0.342795997823    -0.254348502256    15.994914619570
         O           -0.580378283660    -1.508512997823     0.085432497744    15.994914619570
         N            0.648695216340     0.305714702177    -0.367596602256    14.003074004430
         C            1.954399716340    -0.301965997823    -0.127668502256    12.000000000000
         C           -1.785373283660     0.525393002177    -0.339287502256    12.000000000000
         C            2.310951716340    -0.306450997823     1.354612497744    12.000000000000
         C            3.009419716340     0.381581002177    -0.982685502256    12.000000000000
         C           -0.506999283660    -0.299714997823    -0.179167502256    12.000000000000
         C           -1.896895283660     1.597598002177     0.738284497744    12.000000000000
         H            1.784289916340    -1.326579697823    -0.469696602256     1.007825032230
         H            0.653028716340     1.357500002177    -0.460827502256     1.007825032230
         H           -1.766650283660     0.998434002177    -1.333633502256     1.007825032230
         H            2.410761716340     0.718286002177     1.726327497744     1.007825032230
         H            1.529837716340    -0.814864997823     1.924157497744     1.007825032230
         H            3.258274716340    -0.827333997823     1.523583497744     1.007825032230
         H            3.132644716340     1.428175002177    -0.681536502256     1.007825032230
         H            2.733776716340     0.352627002177    -2.039294502256     1.007825032230
         H            3.976078716340    -0.113607997823    -0.861386502256     1.007825032230
         H           -1.839876283660     1.130089002177     1.724062497744     1.007825032230
         H           -2.864876283660     2.093546002177     0.646269497744     1.007825032230
         H           -1.111865283660     2.356051002177     0.656335497744     1.007825032230
         H           -2.496830283660    -1.226948997823    -0.091841502256     1.007825032230

  Basis Set: AUG-CC-PVTZ
    Blend: AUG-CC-PVTZ
  Basis Set: (AUG-CC-PVTZ AUX)
    Blend: AUG-CC-PVTZ-JKFIT
	 Reference Energy          =    -439.1339682274496568 [Eh]
	 Singles Energy            =      -0.0000000000000000 [Eh]
	 Same-Spin Energy          =      -0.4462983682625716 [Eh]
	 Opposite-Spin Energy      =      -1.4639169700291141 [Eh]
	 Correlation Energy        =      -1.9102153382916858 [Eh]
	 Total Energy              =    -441.0441835657413208 [Eh]

	 ================> DF-SCS-MP2 Energies <==================
	-----------------------------------------------------------
	 SCS Same-Spin Scale       =       0.3333333333333333 [-]
	 SCS Opposite-Spin Scale   =       1.2000000000000000 [-]
	 SCS Same-Spin Energy      =      -0.1487661227541905 [Eh]
	 SCS Opposite-Spin Energy  =      -1.7567003640349370 [Eh]
	 SCS Correlation Energy    =      -1.9054664867891276 [Eh]
	 SCS Total Energy          =    -441.0394347142387801 [Eh]
	-----------------------------------------------------------

  Dipole Moment: [D]
     X:     3.7318      Y:     3.0259      Z:    -0.2045     Total:     4.8088

*** Psi4 exiting successfully. Buy a developer a beer!
