                               Psi4 1.3.2 release

  ==> Input File <==

--------------------------------------------------------------------------
#psi4
#
memory 32 gb

molecule  {
0 1
  O       -2.8924001    -0.3539158    -0.2658497
  O       -0.5825960    -1.5131530     0.0834280
  N        0.6646380     0.3451110    -0.3514860
  C        1.9521820    -0.3066060    -0.1296730
  C       -1.7875910     0.5207530    -0.3412920
  C        2.3087340    -0.3110910     1.3526080
  C        3.0072020     0.3769410    -0.9846900
  C       -0.5092170    -0.3043550    -0.1811720
  C       -1.8876785     1.5982937     0.7320722
  H        1.8182130    -1.3395260    -0.4626630
  H        0.6508110     1.3528600    -0.4628320
  H       -1.7688680     0.9937940    -1.3356380
  H        2.4085440     0.7136460     1.7243230
  H        1.5276200    -0.8195050     1.9221530
  H        3.2560570    -0.8319740     1.5215790
  H        3.1304270     1.4235350    -0.6835410
  H        2.7315590     0.3479870    -2.0412990
  H        3.9738610    -0.1182480    -0.8633910
  H       -1.8420940     1.1254490     1.7220580
  H       -2.8670940     2.0889060     0.6442650
  H       -1.1140830     2.3514110     0.6543310
  H       -2.4990480    -1.2315890    -0.0938460
units angstrom
no_reorient  #important for SAPT in psi4, default
symmetry c1  #important for SAPT in psi4, default
}

set PROPERTIES_ORIGIN ["COM"]
properties('MP2/aug-cc-pvtz', properties = ['dipole'])
--------------------------------------------------------------------------

    Molecular point group: c1
  Charge       = 0
  Multiplicity = 1
  Basis Set: AUG-CC-PVTZ
    Blend: AUG-CC-PVTZ
  Basis Set: (AUG-CC-PVTZ AUX)
    Blend: AUG-CC-PVTZ-JKFIT

    Orbital Energies [Eh]
    ---------------------

    Doubly Occupied:

       1A    -20.547607     2A    -20.532116     3A    -15.595549
       4A    -11.357926     5A    -11.297597     6A    -11.277123
       7A    -11.232263     8A    -11.231179     9A    -11.222183
      10A     -1.397344    11A     -1.346437    12A     -1.247831
      13A     -1.072405    14A     -1.024458    15A     -0.949792
      16A     -0.894858    17A     -0.822640    18A     -0.794921
      19A     -0.737073    20A     -0.679053    21A     -0.649570
      22A     -0.632468    23A     -0.628802    24A     -0.597266
      25A     -0.582045    26A     -0.568266    27A     -0.555063
      28A     -0.547888    29A     -0.539443    30A     -0.530446
      31A     -0.512138    32A     -0.502625    33A     -0.491371
      34A     -0.445336    35A     -0.433789    36A     -0.401282

  @DF-RHF Final Energy:  -439.13802492052997

   => Energetics <=

    Nuclear Repulsion Energy =            485.3879801326394841
    One-Electron Energy =               -1561.2957040364426575
    Two-Electron Energy =                 636.7696989832730878
    Total Energy =                       -439.1380249205300288
  Basis Set: (AUG-CC-PVTZ AUX)
    Blend: AUG-CC-PVTZ-RI
    Molecular point group: c1

    Geometry (in Angstrom), charge = 0, multiplicity = 1:

       Center              X                  Y                   Z               Mass
    ------------   -----------------  -----------------  -----------------  -----------------
         O           -2.893985166369    -0.353613556194    -0.264305811545    15.994914619570
         O           -0.584181066369    -1.512850756194     0.084971888455    15.994914619570
         N            0.663052933631     0.345413243806    -0.349942111545    14.003074004430
         C            1.950596933631    -0.306303756194    -0.128129111545    12.000000000000
         C           -1.789176066369     0.521055243806    -0.339748111545    12.000000000000
         C            2.307148933631    -0.310788756194     1.354151888455    12.000000000000
         C            3.005616933631     0.377243243806    -0.983146111545    12.000000000000
         C           -0.510802066369    -0.304052756194    -0.179628111545    12.000000000000
         C           -1.889263566369     1.598595943806     0.733616088455    12.000000000000
         H            1.816627933631    -1.339223756194    -0.461119111545     1.007825032230
         H            0.649225933631     1.353162243806    -0.461288111545     1.007825032230
         H           -1.770453066369     0.994096243806    -1.334094111545     1.007825032230
         H            2.406958933631     0.713948243806     1.725866888455     1.007825032230
         H            1.526034933631    -0.819202756194     1.923696888455     1.007825032230
         H            3.254471933631    -0.831671756194     1.523122888455     1.007825032230
         H            3.128841933631     1.423837243806    -0.681997111545     1.007825032230
         H            2.729973933631     0.348289243806    -2.039755111545     1.007825032230
         H            3.972275933631    -0.117945756194    -0.861847111545     1.007825032230
         H           -1.843679066369     1.125751243806     1.723601888455     1.007825032230
         H           -2.868679066369     2.089208243806     0.645808888455     1.007825032230
         H           -1.115668066369     2.351713243806     0.655874888455     1.007825032230
         H           -2.500633066369    -1.231286756194    -0.092302111545     1.007825032230

  Basis Set: AUG-CC-PVTZ
    Blend: AUG-CC-PVTZ
  Basis Set: (AUG-CC-PVTZ AUX)
    Blend: AUG-CC-PVTZ-JKFIT
	 Reference Energy          =    -439.1380249205299720 [Eh]
	 Singles Energy            =      -0.0000000000000000 [Eh]
	 Same-Spin Energy          =      -0.4459429616192708 [Eh]
	 Opposite-Spin Energy      =      -1.4634448548814842 [Eh]
	 Correlation Energy        =      -1.9093878165007550 [Eh]
	 Total Energy              =    -441.0474127370307542 [Eh]

	 ================> DF-SCS-MP2 Energies <==================
	-----------------------------------------------------------
	 SCS Same-Spin Scale       =       0.3333333333333333 [-]
	 SCS Opposite-Spin Scale   =       1.2000000000000000 [-]
	 SCS Same-Spin Energy      =      -0.1486476538730903 [Eh]
	 SCS Opposite-Spin Energy  =      -1.7561338258577810 [Eh]
	 SCS Correlation Energy    =      -1.9047814797308713 [Eh]
	 SCS Total Energy          =    -441.0428064002608153 [Eh]
	-----------------------------------------------------------

  Dipole Moment: [D]
     X:     3.5666      Y:     2.9373      Z:    -0.2058     Total:     4.6250

*** Psi4 exiting successfully. Buy a developer a beer!
