                               Psi4 1.3.2 release

  ==> Input File <==

--------------------------------------------------------------------------
#psi4
#
memory 32 gb

molecule  {
0 1
  O       -2.8968130    -0.3474360    -0.2563530
  O       -0.5825960    -1.5131530     0.0834280
  N        0.6646380     0.3451110    -0.3514860
  C        1.9521820    -0.3066060    -0.1296730
  C       -1.7875910     0.5207530    -0.3412920
  C        2.3087340    -0.3110910     1.3526080
  C        3.0072020     0.3769410    -0.9846900
  C       -0.5233723    -0.3328777    -0.2240421
  C       -1.9452843     1.6083979     0.7148252
  H        1.8182130    -1.3395260    -0.4626630
  H        0.6508110     1.3528600    -0.4628320
  H       -1.7688680     0.9937940    -1.3356380
  H        2.4085440     0.7136460     1.7243230
  H        1.5276200    -0.8195050     1.9221530
  H        3.2560570    -0.8319740     1.5215790
  H        3.1304270     1.4235350    -0.6835410
  H        2.7315590     0.3479870    -2.0412990
  H        3.9738610    -0.1182480    -0.8633910
  H       -1.8420940     1.1254490     1.7220580
  H       -2.8670940     2.0889060     0.6442650
  H       -1.1140830     2.3514110     0.6543310
  H       -2.4990480    -1.2315890    -0.0938460
units angstrom
no_reorient  #important for SAPT in psi4, default
symmetry c1  #important for SAPT in psi4, default
}

set PROPERTIES_ORIGIN ["COM"]
properties('MP2/aug-cc-pvtz', properties = ['dipole'])
--------------------------------------------------------------------------

    Molecular point group: c1
  Charge       = 0
  Multiplicity = 1
  Basis Set: AUG-CC-PVTZ
    Blend: AUG-CC-PVTZ
  Basis Set: (AUG-CC-PVTZ AUX)
    Blend: AUG-CC-PVTZ-JKFIT

    Orbital Energies [Eh]
    ---------------------

    Doubly Occupied:

       1A    -20.547650     2A    -20.538571     3A    -15.591734
       4A    -11.360671     5A    -11.297297     6A    -11.275374
       7A    -11.231897     8A    -11.230723     9A    -11.220822
      10A     -1.407815    11A     -1.348998    12A     -1.242538
      13A     -1.068672    14A     -1.022120    15A     -0.948266
      16A     -0.897325    17A     -0.819668    18A     -0.791083
      19A     -0.736802    20A     -0.679098    21A     -0.649644
      22A     -0.636311    23A     -0.626715    24A     -0.597760
      25A     -0.585287    26A     -0.570473    27A     -0.553819
      28A     -0.551666    29A     -0.537741    30A     -0.523416
      31A     -0.514374    32A     -0.503444    33A     -0.491084
      34A     -0.444713    35A     -0.437321    36A     -0.399204

  @DF-RHF Final Energy:  -439.13350828772190

   => Energetics <=

    Nuclear Repulsion Energy =            484.8429235152610772
    One-Electron Energy =               -1560.1926755746580966
    Two-Electron Energy =                 636.2162437716750674
    Total Energy =                       -439.1335082877218383
  Basis Set: (AUG-CC-PVTZ AUX)
    Blend: AUG-CC-PVTZ-RI
    Molecular point group: c1

    Geometry (in Angstrom), charge = 0, multiplicity = 1:

       Center              X                  Y                   Z               Mass
    ------------   -----------------  -----------------  -----------------  -----------------
         O           -2.891290855584    -0.346238386541    -0.250464873340    15.994914619570
         O           -0.577073855584    -1.511955386541     0.089316126660    15.994914619570
         N            0.670160144416     0.346308613459    -0.345597873340    14.003074004430
         C            1.957704144416    -0.305408386541    -0.123784873340    12.000000000000
         C           -1.782068855584     0.521950613459    -0.335403873340    12.000000000000
         C            2.314256144416    -0.309893386541     1.358496126660    12.000000000000
         C            3.012724144416     0.378138613459    -0.978801873340    12.000000000000
         C           -0.517850155584    -0.331680086541    -0.218153973340    12.000000000000
         C           -1.939762155584     1.609595513459     0.720713326660    12.000000000000
         H            1.823735144416    -1.338328386541    -0.456774873340     1.007825032230
         H            0.656333144416     1.354057613459    -0.456943873340     1.007825032230
         H           -1.763345855584     0.994991613459    -1.329749873340     1.007825032230
         H            2.414066144416     0.714843613459     1.730211126660     1.007825032230
         H            1.533142144416    -0.818307386541     1.928041126660     1.007825032230
         H            3.261579144416    -0.830776386541     1.527467126660     1.007825032230
         H            3.135949144416     1.424732613459    -0.677652873340     1.007825032230
         H            2.737081144416     0.349184613459    -2.035410873340     1.007825032230
         H            3.979383144416    -0.117050386541    -0.857502873340     1.007825032230
         H           -1.836571855584     1.126646613459     1.727946126660     1.007825032230
         H           -2.861571855584     2.090103613459     0.650153126660     1.007825032230
         H           -1.108560855584     2.352608613459     0.660219126660     1.007825032230
         H           -2.493525855584    -1.230391386541    -0.087957873340     1.007825032230

  Basis Set: AUG-CC-PVTZ
    Blend: AUG-CC-PVTZ
  Basis Set: (AUG-CC-PVTZ AUX)
    Blend: AUG-CC-PVTZ-JKFIT
	 Reference Energy          =    -439.1335082877218952 [Eh]
	 Singles Energy            =      -0.0000000000000000 [Eh]
	 Same-Spin Energy          =      -0.4457053899684754 [Eh]
	 Opposite-Spin Energy      =      -1.4632880393818950 [Eh]
	 Correlation Energy        =      -1.9089934293503703 [Eh]
	 Total Energy              =    -441.0425017170722413 [Eh]

	 ================> DF-SCS-MP2 Energies <==================
	-----------------------------------------------------------
	 SCS Same-Spin Scale       =       0.3333333333333333 [-]
	 SCS Opposite-Spin Scale   =       1.2000000000000000 [-]
	 SCS Same-Spin Energy      =      -0.1485684633228251 [Eh]
	 SCS Opposite-Spin Energy  =      -1.7559456472582740 [Eh]
	 SCS Correlation Energy    =      -1.9045141105810990 [Eh]
	 SCS Total Energy          =    -441.0380223983029850 [Eh]
	-----------------------------------------------------------

  Dipole Moment: [D]
     X:     3.4225      Y:     2.7786      Z:    -0.2317     Total:     4.4145

*** Psi4 exiting successfully. Buy a developer a beer!
