                               Psi4 1.3.2 release

  ==> Input File <==

--------------------------------------------------------------------------
#psi4
#
memory 32 gb

molecule  {
0 1
  O       -2.8968130    -0.3474360    -0.2563530
  O       -0.5825960    -1.5131530     0.0834280
  N        0.6646380     0.3451110    -0.3514860
  C        1.9521820    -0.3066060    -0.1296730
  C       -1.7897679     0.5395987    -0.3599408
  C        2.3087340    -0.3110910     1.3526080
  C        3.0072020     0.3769410    -0.9846900
  C       -0.5092170    -0.3043550    -0.1811720
  C       -1.8991130     1.5929580     0.7362800
  H        1.8182130    -1.3395260    -0.4626630
  H        0.6508110     1.3528600    -0.4628320
  H       -1.7688680     0.9937940    -1.3356380
  H        2.4085440     0.7136460     1.7243230
  H        1.5276200    -0.8195050     1.9221530
  H        3.2560570    -0.8319740     1.5215790
  H        3.1304270     1.4235350    -0.6835410
  H        2.7315590     0.3479870    -2.0412990
  H        3.9738610    -0.1182480    -0.8633910
  H       -1.8439337     1.1426270     1.7301268
  H       -2.8670940     2.0889060     0.6442650
  H       -1.1140830     2.3514110     0.6543310
  H       -2.4990480    -1.2315890    -0.0938460
units angstrom
no_reorient  #important for SAPT in psi4, default
symmetry c1  #important for SAPT in psi4, default
}

set PROPERTIES_ORIGIN ["COM"]
properties('MP2/aug-cc-pvtz', properties = ['dipole'])
--------------------------------------------------------------------------

    Molecular point group: c1
  Charge       = 0
  Multiplicity = 1
  Basis Set: AUG-CC-PVTZ
    Blend: AUG-CC-PVTZ
  Basis Set: (AUG-CC-PVTZ AUX)
    Blend: AUG-CC-PVTZ-JKFIT

    Orbital Energies [Eh]
    ---------------------

    Doubly Occupied:

       1A    -20.546060     2A    -20.532639     3A    -15.595609
       4A    -11.358619     5A    -11.297134     6A    -11.277040
       7A    -11.232305     8A    -11.230945     9A    -11.222178
      10A     -1.395338    11A     -1.341535    12A     -1.247860
      13A     -1.071967    14A     -1.024012    15A     -0.949808
      16A     -0.894033    17A     -0.823243    18A     -0.795665
      19A     -0.733754    20A     -0.679105    21A     -0.650313
      22A     -0.631856    23A     -0.628464    24A     -0.597076
      25A     -0.580710    26A     -0.567957    27A     -0.554948
      28A     -0.547662    29A     -0.537758    30A     -0.531540
      31A     -0.510238    32A     -0.502671    33A     -0.491101
      34A     -0.447532    35A     -0.432809    36A     -0.401579

  @DF-RHF Final Energy:  -439.13696889878713

   => Energetics <=

    Nuclear Repulsion Energy =            484.9325866641561333
    One-Electron Energy =               -1560.4129881295789346
    Two-Electron Energy =                 636.3434325666356699
    Total Energy =                       -439.1369688987871314
  Basis Set: (AUG-CC-PVTZ AUX)
    Blend: AUG-CC-PVTZ-RI
    Molecular point group: c1

    Geometry (in Angstrom), charge = 0, multiplicity = 1:

       Center              X                  Y                   Z               Mass
    ------------   -----------------  -----------------  -----------------  -----------------
         O           -2.896599557484    -0.349293083919    -0.254707954420    15.994914619570
         O           -0.582382557484    -1.515010083919     0.085073045580    15.994914619570
         N            0.664851442516     0.343253916081    -0.349840954420    14.003074004430
         C            1.952395442516    -0.308463083919    -0.128027954420    12.000000000000
         C           -1.789554457484     0.537741616081    -0.358295754420    12.000000000000
         C            2.308947442516    -0.312948083919     1.354253045580    12.000000000000
         C            3.007415442516     0.375083916081    -0.983044954420    12.000000000000
         C           -0.509003557484    -0.306212083919    -0.179526954420    12.000000000000
         C           -1.898899557484     1.591100916081     0.737925045580    12.000000000000
         H            1.818426442516    -1.341383083919    -0.461017954420     1.007825032230
         H            0.651024442516     1.351002916081    -0.461186954420     1.007825032230
         H           -1.768654557484     0.991936916081    -1.333992954420     1.007825032230
         H            2.408757442516     0.711788916081     1.725968045580     1.007825032230
         H            1.527833442516    -0.821362083919     1.923798045580     1.007825032230
         H            3.256270442516    -0.833831083919     1.523224045580     1.007825032230
         H            3.130640442516     1.421677916081    -0.681895954420     1.007825032230
         H            2.731772442516     0.346129916081    -2.039653954420     1.007825032230
         H            3.974074442516    -0.120105083919    -0.861745954420     1.007825032230
         H           -1.843720257484     1.140769916081     1.731771845580     1.007825032230
         H           -2.866880557484     2.087048916081     0.645910045580     1.007825032230
         H           -1.113869557484     2.349553916081     0.655976045580     1.007825032230
         H           -2.498834557484    -1.233446083919    -0.092200954420     1.007825032230

  Basis Set: AUG-CC-PVTZ
    Blend: AUG-CC-PVTZ
  Basis Set: (AUG-CC-PVTZ AUX)
    Blend: AUG-CC-PVTZ-JKFIT
	 Reference Energy          =    -439.1369688987871314 [Eh]
	 Singles Energy            =      -0.0000000000000000 [Eh]
	 Same-Spin Energy          =      -0.4459617709066824 [Eh]
	 Opposite-Spin Energy      =      -1.4637547841822194 [Eh]
	 Correlation Energy        =      -1.9097165550889017 [Eh]
	 Total Energy              =    -441.0466854538760231 [Eh]

	 ================> DF-SCS-MP2 Energies <==================
	-----------------------------------------------------------
	 SCS Same-Spin Scale       =       0.3333333333333333 [-]
	 SCS Opposite-Spin Scale   =       1.2000000000000000 [-]
	 SCS Same-Spin Energy      =      -0.1486539236355608 [Eh]
	 SCS Opposite-Spin Energy  =      -1.7565057410186633 [Eh]
	 SCS Correlation Energy    =      -1.9051596646542241 [Eh]
	 SCS Total Energy          =    -441.0421285634413380 [Eh]
	-----------------------------------------------------------

  Dipole Moment: [D]
     X:     3.6072      Y:     2.9473      Z:    -0.2433     Total:     4.6645

*** Psi4 exiting successfully. Buy a developer a beer!
