                               Psi4 1.3.2 release

  ==> Input File <==

--------------------------------------------------------------------------
#psi4
#
memory 32 gb

molecule  {
0 1
  O       -2.8968130    -0.3474360    -0.2563530
  O       -0.5825960    -1.5131530     0.0834280
  N        0.6646380     0.3451110    -0.3514860
  C        1.9461307    -0.3173806    -0.1265703
  C       -1.7875910     0.5207530    -0.3412920
  C        2.3087340    -0.3110910     1.3526080
  C        3.0072020     0.3769410    -0.9846900
  C       -0.5033177    -0.3141118    -0.1781275
  C       -1.8991130     1.5929580     0.7362800
  H        1.8182130    -1.3395260    -0.4626630
  H        0.6508110     1.3528600    -0.4628320
  H       -1.7688680     0.9937940    -1.3356380
  H        2.4085440     0.7136460     1.7243230
  H        1.5276200    -0.8195050     1.9221530
  H        3.2560570    -0.8319740     1.5215790
  H        3.1304270     1.4235350    -0.6835410
  H        2.7315590     0.3479870    -2.0412990
  H        3.9738610    -0.1182480    -0.8633910
  H       -1.8420940     1.1254490     1.7220580
  H       -2.8670940     2.0889060     0.6442650
  H       -1.1140830     2.3514110     0.6543310
  H       -2.4990480    -1.2315890    -0.0938460
units angstrom
no_reorient  #important for SAPT in psi4, default
symmetry c1  #important for SAPT in psi4, default
}

set PROPERTIES_ORIGIN ["COM"]
properties('MP2/aug-cc-pvtz', properties = ['dipole'])
--------------------------------------------------------------------------

    Molecular point group: c1
  Charge       = 0
  Multiplicity = 1
  Basis Set: AUG-CC-PVTZ
    Blend: AUG-CC-PVTZ
  Basis Set: (AUG-CC-PVTZ AUX)
    Blend: AUG-CC-PVTZ-JKFIT

    Orbital Energies [Eh]
    ---------------------

    Doubly Occupied:

       1A    -20.547406     2A    -20.533915     3A    -15.594947
       4A    -11.357348     5A    -11.296658     6A    -11.276630
       7A    -11.232276     8A    -11.230078     9A    -11.222206
      10A     -1.401598    11A     -1.346766    12A     -1.248765
      13A     -1.070439    14A     -1.022402    15A     -0.949053
      16A     -0.892679    17A     -0.822729    18A     -0.795724
      19A     -0.735692    20A     -0.679674    21A     -0.649466
      22A     -0.634222    23A     -0.627738    24A     -0.598455
      25A     -0.581079    26A     -0.566878    27A     -0.555120
      28A     -0.547750    29A     -0.539510    30A     -0.530978
      31A     -0.513563    32A     -0.502414    33A     -0.493075
      34A     -0.444508    35A     -0.433031    36A     -0.402104

  @DF-RHF Final Energy:  -439.13852090631292

   => Energetics <=

    Nuclear Repulsion Energy =            485.3519147196249151
    One-Electron Energy =               -1561.2271190824872065
    Two-Electron Energy =                 636.7366834565494855
    Total Energy =                       -439.1385209063129196
  Basis Set: (AUG-CC-PVTZ AUX)
    Blend: AUG-CC-PVTZ-RI
    Molecular point group: c1

    Geometry (in Angstrom), charge = 0, multiplicity = 1:

       Center              X                  Y                   Z               Mass
    ------------   -----------------  -----------------  -----------------  -----------------
         O           -2.896799053802    -0.345556564555    -0.256915673106    15.994914619570
         O           -0.582582053802    -1.511273564555     0.082865326894    15.994914619570
         N            0.664651946198     0.346990435445    -0.352048673106    14.003074004430
         C            1.946144646198    -0.315501164555    -0.127132973106    12.000000000000
         C           -1.787577053802     0.522632435445    -0.341854673106    12.000000000000
         C            2.308747946198    -0.309211564555     1.352045326894    12.000000000000
         C            3.007215946198     0.378820435445    -0.985252673106    12.000000000000
         C           -0.503303753802    -0.312232364555    -0.178690173106    12.000000000000
         C           -1.899099053802     1.594837435445     0.735717326894    12.000000000000
         H            1.818226946198    -1.337646564555    -0.463225673106     1.007825032230
         H            0.650824946198     1.354739435445    -0.463394673106     1.007825032230
         H           -1.768854053802     0.995673435445    -1.336200673106     1.007825032230
         H            2.408557946198     0.715525435445     1.723760326894     1.007825032230
         H            1.527633946198    -0.817625564555     1.921590326894     1.007825032230
         H            3.256070946198    -0.830094564555     1.521016326894     1.007825032230
         H            3.130440946198     1.425414435445    -0.684103673106     1.007825032230
         H            2.731572946198     0.349866435445    -2.041861673106     1.007825032230
         H            3.973874946198    -0.116368564555    -0.863953673106     1.007825032230
         H           -1.842080053802     1.127328435445     1.721495326894     1.007825032230
         H           -2.867080053802     2.090785435445     0.643702326894     1.007825032230
         H           -1.114069053802     2.353290435445     0.653768326894     1.007825032230
         H           -2.499034053802    -1.229709564555    -0.094408673106     1.007825032230

  Basis Set: AUG-CC-PVTZ
    Blend: AUG-CC-PVTZ
  Basis Set: (AUG-CC-PVTZ AUX)
    Blend: AUG-CC-PVTZ-JKFIT
	 Reference Energy          =    -439.1385209063129196 [Eh]
	 Singles Energy            =      -0.0000000000000000 [Eh]
	 Same-Spin Energy          =      -0.4457187957176576 [Eh]
	 Opposite-Spin Energy      =      -1.4631074587513384 [Eh]
	 Correlation Energy        =      -1.9088262544689960 [Eh]
	 Total Energy              =    -441.0473471607818965 [Eh]

	 ================> DF-SCS-MP2 Energies <==================
	-----------------------------------------------------------
	 SCS Same-Spin Scale       =       0.3333333333333333 [-]
	 SCS Opposite-Spin Scale   =       1.2000000000000000 [-]
	 SCS Same-Spin Energy      =      -0.1485729319058859 [Eh]
	 SCS Opposite-Spin Energy  =      -1.7557289505016060 [Eh]
	 SCS Correlation Energy    =      -1.9043018824074920 [Eh]
	 SCS Total Energy          =    -441.0428227887204002 [Eh]
	-----------------------------------------------------------

  Dipole Moment: [D]
     X:     3.5793      Y:     2.8605      Z:    -0.2110     Total:     4.5867

*** Psi4 exiting successfully. Buy a developer a beer!
