                               Psi4 1.3.2 release

  ==> Input File <==

--------------------------------------------------------------------------
#psi4
#
memory 32 gb

molecule  {
0 1
  O       -2.8968130    -0.3474360    -0.2563530
  O       -0.5825960    -1.5131530     0.0834280
  N        0.6646380     0.3451110    -0.3514860
  C        1.9273929    -0.3493985    -0.1173660
  C       -1.7875910     0.5207530    -0.3412920
  C        2.3087340    -0.3110910     1.3526080
  C        3.0072020     0.3769410    -0.9846900
  C       -0.4850881    -0.3430781    -0.1690740
  C       -1.8991130     1.5929580     0.7362800
  H        1.8182130    -1.3395260    -0.4626630
  H        0.6508110     1.3528600    -0.4628320
  H       -1.7688680     0.9937940    -1.3356380
  H        2.4085440     0.7136460     1.7243230
  H        1.5276200    -0.8195050     1.9221530
  H        3.2560570    -0.8319740     1.5215790
  H        3.1304270     1.4235350    -0.6835410
  H        2.7315590     0.3479870    -2.0412990
  H        3.9738610    -0.1182480    -0.8633910
  H       -1.8420940     1.1254490     1.7220580
  H       -2.8670940     2.0889060     0.6442650
  H       -1.1140830     2.3514110     0.6543310
  H       -2.4990480    -1.2315890    -0.0938460
units angstrom
no_reorient  #important for SAPT in psi4, default
symmetry c1  #important for SAPT in psi4, default
}

set PROPERTIES_ORIGIN ["COM"]
properties('MP2/aug-cc-pvtz', properties = ['dipole'])
--------------------------------------------------------------------------

    Molecular point group: c1
  Charge       = 0
  Multiplicity = 1
  Basis Set: AUG-CC-PVTZ
    Blend: AUG-CC-PVTZ
  Basis Set: (AUG-CC-PVTZ AUX)
    Blend: AUG-CC-PVTZ-JKFIT

    Orbital Energies [Eh]
    ---------------------

    Doubly Occupied:

       1A    -20.546167     2A    -20.538285     3A    -15.592934
       4A    -11.354742     5A    -11.294219     6A    -11.275185
       7A    -11.232124     8A    -11.227976     9A    -11.222307
      10A     -1.417016    11A     -1.348323    12A     -1.250927
      13A     -1.065375    14A     -1.018267    15A     -0.946579
      16A     -0.885897    17A     -0.824924    18A     -0.797248
      19A     -0.733724    20A     -0.683093    21A     -0.649408
      22A     -0.640377    23A     -0.624928    24A     -0.602113
      25A     -0.579571    26A     -0.564874    27A     -0.555342
      28A     -0.546585    29A     -0.541457    30A     -0.532164
      31A     -0.518082    32A     -0.507914    33A     -0.489965
      34A     -0.443085    35A     -0.427129    36A     -0.403542

  @DF-RHF Final Energy:  -439.13541776948153

   => Energetics <=

    Nuclear Repulsion Energy =            485.5102743285457905
    One-Electron Energy =               -1561.5276845833348034
    Two-Electron Energy =                 636.8819924853074781
    Total Energy =                       -439.1354177694814780
  Basis Set: (AUG-CC-PVTZ AUX)
    Blend: AUG-CC-PVTZ-RI
    Molecular point group: c1

    Geometry (in Angstrom), charge = 0, multiplicity = 1:

       Center              X                  Y                   Z               Mass
    ------------   -----------------  -----------------  -----------------  -----------------
         O           -2.896752534734    -0.339974258038    -0.258586936088    15.994914619570
         O           -0.582535534734    -1.505691258038     0.081194063912    15.994914619570
         N            0.664698465266     0.352572741962    -0.353719936088    14.003074004430
         C            1.927453365266    -0.341936758038    -0.119599936088    12.000000000000
         C           -1.787530534734     0.528214741962    -0.343525936088    12.000000000000
         C            2.308794465266    -0.303629258038     1.350374063912    12.000000000000
         C            3.007262465266     0.384402741962    -0.986923936088    12.000000000000
         C           -0.485027634734    -0.335616358038    -0.171307936088    12.000000000000
         C           -1.899052534734     1.600419741962     0.734046063912    12.000000000000
         H            1.818273465266    -1.332064258038    -0.464896936088     1.007825032230
         H            0.650871465266     1.360321741962    -0.465065936088     1.007825032230
         H           -1.768807534734     1.001255741962    -1.337871936088     1.007825032230
         H            2.408604465266     0.721107741962     1.722089063912     1.007825032230
         H            1.527680465266    -0.812043258038     1.919919063912     1.007825032230
         H            3.256117465266    -0.824512258038     1.519345063912     1.007825032230
         H            3.130487465266     1.430996741962    -0.685774936088     1.007825032230
         H            2.731619465266     0.355448741962    -2.043532936088     1.007825032230
         H            3.973921465266    -0.110786258038    -0.865624936088     1.007825032230
         H           -1.842033534734     1.132910741962     1.719824063912     1.007825032230
         H           -2.867033534734     2.096367741962     0.642031063912     1.007825032230
         H           -1.114022534734     2.358872741962     0.652097063912     1.007825032230
         H           -2.498987534734    -1.224127258038    -0.096079936088     1.007825032230

  Basis Set: AUG-CC-PVTZ
    Blend: AUG-CC-PVTZ
  Basis Set: (AUG-CC-PVTZ AUX)
    Blend: AUG-CC-PVTZ-JKFIT
	 Reference Energy          =    -439.1354177694815348 [Eh]
	 Singles Energy            =      -0.0000000000000000 [Eh]
	 Same-Spin Energy          =      -0.4449635148422754 [Eh]
	 Opposite-Spin Energy      =      -1.4618477325879906 [Eh]
	 Correlation Energy        =      -1.9068112474302659 [Eh]
	 Total Energy              =    -441.0422290169117900 [Eh]

	 ================> DF-SCS-MP2 Energies <==================
	-----------------------------------------------------------
	 SCS Same-Spin Scale       =       0.3333333333333333 [-]
	 SCS Opposite-Spin Scale   =       1.2000000000000000 [-]
	 SCS Same-Spin Energy      =      -0.1483211716140918 [Eh]
	 SCS Opposite-Spin Energy  =      -1.7542172791055888 [Eh]
	 SCS Correlation Energy    =      -1.9025384507196805 [Eh]
	 SCS Total Energy          =    -441.0379562202012380 [Eh]
	-----------------------------------------------------------

  Dipole Moment: [D]
     X:     3.5938      Y:     2.6877      Z:    -0.1681     Total:     4.4908

*** Psi4 exiting successfully. Buy a developer a beer!
