                               Psi4 1.3.2 release

  ==> Input File <==

--------------------------------------------------------------------------
#psi4
#
memory 32 gb

molecule  {
0 1
  O       -2.8968130    -0.3474360    -0.2563530
  O       -0.5825960    -1.5131530     0.0834280
  N        0.6646380     0.3451110    -0.3514860
  C        1.9521820    -0.3066060    -0.1296730
  C       -1.7875910     0.5207530    -0.3412920
  C        2.3087340    -0.3110910     1.3526080
  C        3.0072020     0.3769410    -0.9846900
  C       -0.5255992    -0.3185369    -0.1323636
  C       -1.8991130     1.5929580     0.7362800
  H        1.8182130    -1.3395260    -0.4626630
  H        0.6508110     1.3528600    -0.4628320
  H       -1.8028956     1.0099024    -1.3278724
  H        2.4085440     0.7136460     1.7243230
  H        1.5276200    -0.8195050     1.9221530
  H        3.2560570    -0.8319740     1.5215790
  H        3.1304270     1.4235350    -0.6835410
  H        2.7315590     0.3479870    -2.0412990
  H        3.9738610    -0.1182480    -0.8633910
  H       -1.8420940     1.1254490     1.7220580
  H       -2.8670940     2.0889060     0.6442650
  H       -1.1140830     2.3514110     0.6543310
  H       -2.4990480    -1.2315890    -0.0938460
units angstrom
no_reorient  #important for SAPT in psi4, default
symmetry c1  #important for SAPT in psi4, default
}

set PROPERTIES_ORIGIN ["COM"]
properties('MP2/aug-cc-pvtz', properties = ['dipole'])
--------------------------------------------------------------------------

    Molecular point group: c1
  Charge       = 0
  Multiplicity = 1
  Basis Set: AUG-CC-PVTZ
    Blend: AUG-CC-PVTZ
  Basis Set: (AUG-CC-PVTZ AUX)
    Blend: AUG-CC-PVTZ-JKFIT

    Orbital Energies [Eh]
    ---------------------

    Doubly Occupied:

       1A    -20.548291     2A    -20.539860     3A    -15.590445
       4A    -11.359853     5A    -11.297132     6A    -11.274562
       7A    -11.230512     8A    -11.230093     9A    -11.220925
      10A     -1.411028    11A     -1.349943    12A     -1.241111
      13A     -1.068552    14A     -1.022904    15A     -0.948276
      16A     -0.892399    17A     -0.819329    18A     -0.789404
      19A     -0.739958    20A     -0.680174    21A     -0.649517
      22A     -0.635887    23A     -0.627594    24A     -0.598440
      25A     -0.581979    26A     -0.568031    27A     -0.553596
      28A     -0.546154    29A     -0.539378    30A     -0.532148
      31A     -0.516754    32A     -0.503528    33A     -0.490864
      34A     -0.445040    35A     -0.436679    36A     -0.399554

  @DF-RHF Final Energy:  -439.13661050961139

   => Energetics <=

    Nuclear Repulsion Energy =            485.3642135783513254
    One-Electron Energy =               -1561.2418562929196924
    Two-Electron Energy =                 636.7410322049569231
    Total Energy =                       -439.1366105096113870
  Basis Set: (AUG-CC-PVTZ AUX)
    Blend: AUG-CC-PVTZ-RI
    Molecular point group: c1

    Geometry (in Angstrom), charge = 0, multiplicity = 1:

       Center              X                  Y                   Z               Mass
    ------------   -----------------  -----------------  -----------------  -----------------
         O           -2.895051794823    -0.346261615935    -0.260880448562    15.994914619570
         O           -0.580834794823    -1.511978615935     0.078900551438    15.994914619570
         N            0.666399205177     0.346285384065    -0.356013448562    14.003074004430
         C            1.953943205177    -0.305431615935    -0.134200448562    12.000000000000
         C           -1.785829794823     0.521927384065    -0.345819448562    12.000000000000
         C            2.310495205177    -0.309916615935     1.348080551438    12.000000000000
         C            3.008963205177     0.378115384065    -0.989217448562    12.000000000000
         C           -0.523837994823    -0.317362515935    -0.136891048562    12.000000000000
         C           -1.897351794823     1.594132384065     0.731752551438    12.000000000000
         H            1.819974205177    -1.338351615935    -0.467190448562     1.007825032230
         H            0.652572205177     1.354034384065    -0.467359448562     1.007825032230
         H           -1.801134394823     1.011076784065    -1.332399848562     1.007825032230
         H            2.410305205177     0.714820384065     1.719795551438     1.007825032230
         H            1.529381205177    -0.818330615935     1.917625551438     1.007825032230
         H            3.257818205177    -0.830799615935     1.517051551438     1.007825032230
         H            3.132188205177     1.424709384065    -0.688068448562     1.007825032230
         H            2.733320205177     0.349161384065    -2.045826448562     1.007825032230
         H            3.975622205177    -0.117073615935    -0.867918448562     1.007825032230
         H           -1.840332794823     1.126623384065     1.717530551438     1.007825032230
         H           -2.865332794823     2.090080384065     0.639737551438     1.007825032230
         H           -1.112321794823     2.352585384065     0.649803551438     1.007825032230
         H           -2.497286794823    -1.230414615935    -0.098373448562     1.007825032230

  Basis Set: AUG-CC-PVTZ
    Blend: AUG-CC-PVTZ
  Basis Set: (AUG-CC-PVTZ AUX)
    Blend: AUG-CC-PVTZ-JKFIT
	 Reference Energy          =    -439.1366105096113870 [Eh]
	 Singles Energy            =      -0.0000000000000000 [Eh]
	 Same-Spin Energy          =      -0.4457050003195901 [Eh]
	 Opposite-Spin Energy      =      -1.4631704690228855 [Eh]
	 Correlation Energy        =      -1.9088754693424757 [Eh]
	 Total Energy              =    -441.0454859789538773 [Eh]

	 ================> DF-SCS-MP2 Energies <==================
	-----------------------------------------------------------
	 SCS Same-Spin Scale       =       0.3333333333333333 [-]
	 SCS Opposite-Spin Scale   =       1.2000000000000000 [-]
	 SCS Same-Spin Energy      =      -0.1485683334398634 [Eh]
	 SCS Opposite-Spin Energy  =      -1.7558045628274626 [Eh]
	 SCS Correlation Energy    =      -1.9043728962673259 [Eh]
	 SCS Total Energy          =    -441.0409834058787055 [Eh]
	-----------------------------------------------------------

  Dipole Moment: [D]
     X:     3.3861      Y:     2.7632      Z:    -0.1752     Total:     4.3739

*** Psi4 exiting successfully. Buy a developer a beer!
