                               Psi4 1.3.2 release

  ==> Input File <==

--------------------------------------------------------------------------
#psi4
#
memory 32 gb

molecule  {
0 1
  O       -2.8968130    -0.3474360    -0.2563530
  O       -0.5933884    -1.5124255     0.0835376
  N        0.6587411     0.3551292    -0.3535175
  C        1.9521820    -0.3066060    -0.1296730
  C       -1.7875910     0.5207530    -0.3412920
  C        2.3087340    -0.3110910     1.3526080
  C        3.0072020     0.3769410    -0.9846900
  C       -0.5092170    -0.3043550    -0.1811720
  C       -1.8991130     1.5929580     0.7362800
  H        1.8182130    -1.3395260    -0.4626630
  H        0.6508110     1.3528600    -0.4628320
  H       -1.7688680     0.9937940    -1.3356380
  H        2.4085440     0.7136460     1.7243230
  H        1.5276200    -0.8195050     1.9221530
  H        3.2560570    -0.8319740     1.5215790
  H        3.1304270     1.4235350    -0.6835410
  H        2.7315590     0.3479870    -2.0412990
  H        3.9738610    -0.1182480    -0.8633910
  H       -1.8420940     1.1254490     1.7220580
  H       -2.8670940     2.0889060     0.6442650
  H       -1.1140830     2.3514110     0.6543310
  H       -2.4990480    -1.2315890    -0.0938460
units angstrom
no_reorient  #important for SAPT in psi4, default
symmetry c1  #important for SAPT in psi4, default
}

set PROPERTIES_ORIGIN ["COM"]
properties('MP2/aug-cc-pvtz', properties = ['dipole'])
--------------------------------------------------------------------------

    Molecular point group: c1
  Charge       = 0
  Multiplicity = 1
  Basis Set: AUG-CC-PVTZ
    Blend: AUG-CC-PVTZ
  Basis Set: (AUG-CC-PVTZ AUX)
    Blend: AUG-CC-PVTZ-JKFIT

    Orbital Energies [Eh]
    ---------------------

    Doubly Occupied:

       1A    -20.546673     2A    -20.533136     3A    -15.595651
       4A    -11.358457     5A    -11.296074     6A    -11.278503
       7A    -11.232702     8A    -11.230194     9A    -11.222908
      10A     -1.397135    11A     -1.344649    12A     -1.248221
      13A     -1.072519    14A     -1.023489    15A     -0.950260
      16A     -0.894218    17A     -0.821763    18A     -0.797489
      19A     -0.735806    20A     -0.678720    21A     -0.649179
      22A     -0.632923    23A     -0.628618    24A     -0.598004
      25A     -0.581203    26A     -0.567063    27A     -0.555518
      28A     -0.547703    29A     -0.539234    30A     -0.529954
      31A     -0.511688    32A     -0.503033    33A     -0.492147
      34A     -0.444187    35A     -0.433897    36A     -0.402777

  @DF-RHF Final Energy:  -439.13790225709886

   => Energetics <=

    Nuclear Repulsion Energy =            485.1911098878932762
    One-Electron Energy =               -1560.9066336054784188
    Two-Electron Energy =                 636.5776214604863981
    Total Energy =                       -439.1379022570988582
  Basis Set: (AUG-CC-PVTZ AUX)
    Blend: AUG-CC-PVTZ-RI
    Molecular point group: c1

    Geometry (in Angstrom), charge = 0, multiplicity = 1:

       Center              X                  Y                   Z               Mass
    ------------   -----------------  -----------------  -----------------  -----------------
         O           -2.894866295411    -0.348594817918    -0.256149351837    15.994914619570
         O           -0.591441695411    -1.513584317918     0.083741248163    15.994914619570
         N            0.660687804589     0.353970382082    -0.353313851837    14.003074004430
         C            1.954128704589    -0.307764817918    -0.129469351837    12.000000000000
         C           -1.785644295411     0.519594182082    -0.341088351837    12.000000000000
         C            2.310680704589    -0.312249817918     1.352811648163    12.000000000000
         C            3.009148704589     0.375782182082    -0.984486351837    12.000000000000
         C           -0.507270295411    -0.305513817918    -0.180968351837    12.000000000000
         C           -1.897166295411     1.591799182082     0.736483648163    12.000000000000
         H            1.820159704589    -1.340684817918    -0.462459351837     1.007825032230
         H            0.652757704589     1.351701182082    -0.462628351837     1.007825032230
         H           -1.766921295411     0.992635182082    -1.335434351837     1.007825032230
         H            2.410490704589     0.712487182082     1.724526648163     1.007825032230
         H            1.529566704589    -0.820663817918     1.922356648163     1.007825032230
         H            3.258003704589    -0.833132817918     1.521782648163     1.007825032230
         H            3.132373704589     1.422376182082    -0.683337351837     1.007825032230
         H            2.733505704589     0.346828182082    -2.041095351837     1.007825032230
         H            3.975807704589    -0.119406817918    -0.863187351837     1.007825032230
         H           -1.840147295411     1.124290182082     1.722261648163     1.007825032230
         H           -2.865147295411     2.087747182082     0.644468648163     1.007825032230
         H           -1.112136295411     2.350252182082     0.654534648163     1.007825032230
         H           -2.497101295411    -1.232747817918    -0.093642351837     1.007825032230

  Basis Set: AUG-CC-PVTZ
    Blend: AUG-CC-PVTZ
  Basis Set: (AUG-CC-PVTZ AUX)
    Blend: AUG-CC-PVTZ-JKFIT
	 Reference Energy          =    -439.1379022570988582 [Eh]
	 Singles Energy            =      -0.0000000000000000 [Eh]
	 Same-Spin Energy          =      -0.4459175684317999 [Eh]
	 Opposite-Spin Energy      =      -1.4635138467607411 [Eh]
	 Correlation Energy        =      -1.9094314151925409 [Eh]
	 Total Energy              =    -441.0473336722914155 [Eh]

	 ================> DF-SCS-MP2 Energies <==================
	-----------------------------------------------------------
	 SCS Same-Spin Scale       =       0.3333333333333333 [-]
	 SCS Opposite-Spin Scale   =       1.2000000000000000 [-]
	 SCS Same-Spin Energy      =      -0.1486391894772666 [Eh]
	 SCS Opposite-Spin Energy  =      -1.7562166161128894 [Eh]
	 SCS Correlation Energy    =      -1.9048558055901559 [Eh]
	 SCS Total Energy          =    -441.0427580626890176 [Eh]
	-----------------------------------------------------------

  Dipole Moment: [D]
     X:     3.6414      Y:     2.8963      Z:    -0.2183     Total:     4.6579

*** Psi4 exiting successfully. Buy a developer a beer!
