                               Psi4 1.4a3.dev225

  ==> Input File <==

--------------------------------------------------------------------------
#psi4
#
memory 32 gb

molecule  {
0 1
  O       -1.7446660    -1.3796590    -0.7880960
  O       -0.4296620     1.7569970     0.2600660
  N        0.4723820    -0.3330750    -0.0012650
  C        1.7925927     0.0593248     0.2909255
  C       -1.9099390    -0.0103690    -0.3967440
  C        2.4958720     0.7244850    -0.9128940
  C        2.6145980    -1.1365250     0.8043010
  C       -0.5442740     0.5588710    -0.0269710
  C       -2.8608870     0.1360220     0.7815810
  H        1.7638430     0.8203410     1.0982830
  H        0.2750420    -1.2730860    -0.3263580
  H       -2.2722210     0.5864250    -1.2458220
  H        2.5570320     0.0100450    -1.7401110
  H        1.9072700     1.5874400    -1.2316560
  H        3.5085800     1.0627310    -0.6705710
  H        2.6773940    -1.9046250     0.0252330
  H        2.1327900    -1.5715010     1.6841320
  H        3.6348850    -0.8497170     1.0733550
  H       -2.5011890    -0.4705790     1.6169940
  H       -3.8694610    -0.1962540     0.5126420
  H       -2.9055320     1.1820880     1.0905810
  H       -2.6295620    -1.7449530    -0.9570530
units angstrom
no_reorient  #important for SAPT in psi4, default
symmetry c1  #important for SAPT in psi4, default
}

set PROPERTIES_ORIGIN ["COM"]
properties('MP2/aug-cc-pvtz', properties = ['dipole'])
--------------------------------------------------------------------------

    Molecular point group: c1
  Charge       = 0
  Multiplicity = 1
  Basis Set: AUG-CC-PVTZ
    Blend: AUG-CC-PVTZ
  Basis Set: (AUG-CC-PVTZ AUX)
    Blend: AUG-CC-PVTZ-JKFIT

    Orbital Energies [Eh]
    ---------------------

    Doubly Occupied:

       1A    -20.582472     2A    -20.512053     3A    -15.578257
       4A    -11.345474     5A    -11.302689     6A    -11.262266
       7A    -11.230144     8A    -11.220667     9A    -11.207887
      10A     -1.389937    11A     -1.361792    12A     -1.239704
      13A     -1.055332    14A     -1.026662    15A     -0.933065
      16A     -0.901024    17A     -0.817979    18A     -0.782510
      19A     -0.713125    20A     -0.692107    21A     -0.646849
      22A     -0.643127    23A     -0.612607    24A     -0.596742
      25A     -0.578170    26A     -0.564056    27A     -0.552532
      28A     -0.540195    29A     -0.530302    30A     -0.522600
      31A     -0.520696    32A     -0.486248    33A     -0.473291
      34A     -0.458454    35A     -0.416679    36A     -0.380970

  @DF-RHF Final Energy:  -439.13535939164808

   => Energetics <=

    Nuclear Repulsion Energy =            486.5574460593032313
    One-Electron Energy =               -1564.0282834424710927
    Two-Electron Energy =                 638.3354779915198378
    Total Energy =                       -439.1353593916480804
  Basis Set: (AUG-CC-PVTZ AUX)
    Blend: AUG-CC-PVTZ-RI
    Molecular point group: c1

    Geometry (in Angstrom), charge = 0, multiplicity = 1:

       Center              X                  Y                   Z               Mass
    ------------   -----------------  -----------------  -----------------  -----------------
         O           -1.708085669013    -1.399262136176    -0.780130737560    15.994914619570
         O           -0.393081669013     1.737393863824     0.268031262440    15.994914619570
         N            0.508962330987    -0.352678136176     0.006700262440    14.003074004430
         C            1.829173030987     0.039721663824     0.298890762440    12.000000000000
         C           -1.873358669013    -0.029972136176    -0.388778737560    12.000000000000
         C            2.532452330987     0.704881863824    -0.904928737560    12.000000000000
         C            2.651178330987    -1.156128136176     0.812266262440    12.000000000000
         C           -0.507693669013     0.539267863824    -0.019005737560    12.000000000000
         C           -2.824306669013     0.116418863824     0.789546262440    12.000000000000
         H            1.800423330987     0.800737863824     1.106248262440     1.007825032230
         H            0.311622330987    -1.292689136176    -0.318392737560     1.007825032230
         H           -2.235640669013     0.566821863824    -1.237856737560     1.007825032230
         H            2.593612330987    -0.009558136176    -1.732145737560     1.007825032230
         H            1.943850330987     1.567836863824    -1.223690737560     1.007825032230
         H            3.545160330987     1.043127863824    -0.662605737560     1.007825032230
         H            2.713974330987    -1.924228136176     0.033198262440     1.007825032230
         H            2.169370330987    -1.591104136176     1.692097262440     1.007825032230
         H            3.671465330987    -0.869320136176     1.081320262440     1.007825032230
         H           -2.464608669013    -0.490182136176     1.624959262440     1.007825032230
         H           -3.832880669013    -0.215857136176     0.520607262440     1.007825032230
         H           -2.868951669013     1.162484863824     1.098546262440     1.007825032230
         H           -2.592981669013    -1.764556136176    -0.949087737560     1.007825032230

  Basis Set: AUG-CC-PVTZ
    Blend: AUG-CC-PVTZ
  Basis Set: (AUG-CC-PVTZ AUX)
    Blend: AUG-CC-PVTZ-JKFIT
	 Reference Energy          =    -439.1353593916480804 [Eh]
	 Singles Energy            =      -0.0000000000000000 [Eh]
	 Same-Spin Energy          =      -0.4457195586228243 [Eh]
	 Opposite-Spin Energy      =      -1.4635905848650712 [Eh]
	 Correlation Energy        =      -1.9093101434878954 [Eh]
	 Total Energy              =    -441.0446695351359949 [Eh]

	 ================> DF-SCS-MP2 Energies <==================
	-----------------------------------------------------------
	 SCS Same-Spin Scale       =       0.3333333333333333 [-]
	 SCS Opposite-Spin Scale   =       1.2000000000000000 [-]
	 SCS Same-Spin Energy      =      -0.1485731862076081 [Eh]
	 SCS Opposite-Spin Energy  =      -1.7563087018380854 [Eh]
	 SCS Correlation Energy    =      -1.9048818880456935 [Eh]
	 SCS Total Energy          =    -441.0402412796937597 [Eh]
	-----------------------------------------------------------

  Dipole Moment: [D]
     X:    -0.8518      Y:    -2.8706      Z:    -0.4660     Total:     3.0304

*** Psi4 exiting successfully. Buy a developer a beer!
