                               Psi4 1.3.2 release

  ==> Input File <==

--------------------------------------------------------------------------
#psi4
#
memory 32 gb

molecule  {
0 1
  O       -2.8968130    -0.3474360    -0.2563530
  O       -0.5825960    -1.5131530     0.0834280
  N        0.6646380     0.3451110    -0.3514860
  C        1.9521820    -0.3066060    -0.1296730
  C       -1.7875910     0.5207530    -0.3412920
  C        2.3087340    -0.3110910     1.3526080
  C        3.0072020     0.3769410    -0.9846900
  C       -0.5092170    -0.3043550    -0.1811720
  C       -1.8991130     1.5929580     0.7362800
  H        1.8182130    -1.3395260    -0.4626630
  H        0.6521746     1.2534741    -0.4518509
  H       -1.7688680     0.9937940    -1.3356380
  H        2.4085440     0.7136460     1.7243230
  H        1.5276200    -0.8195050     1.9221530
  H        3.2560570    -0.8319740     1.5215790
  H        3.1304270     1.4235350    -0.6835410
  H        2.7315590     0.3479870    -2.0412990
  H        3.9738610    -0.1182480    -0.8633910
  H       -1.8420940     1.1254490     1.7220580
  H       -2.8670940     2.0889060     0.6442650
  H       -1.1140830     2.3514110     0.6543310
  H       -2.4990480    -1.2315890    -0.0938460
units angstrom
no_reorient  #important for SAPT in psi4, default
symmetry c1  #important for SAPT in psi4, default
}

set PROPERTIES_ORIGIN ["COM"]
properties('MP2/aug-cc-pvtz', properties = ['dipole'])
--------------------------------------------------------------------------

    Molecular point group: c1
  Charge       = 0
  Multiplicity = 1
  Basis Set: AUG-CC-PVTZ
    Blend: AUG-CC-PVTZ
  Basis Set: (AUG-CC-PVTZ AUX)
    Blend: AUG-CC-PVTZ-JKFIT

    Orbital Energies [Eh]
    ---------------------

    Doubly Occupied:

       1A    -20.548181     2A    -20.533002     3A    -15.585683
       4A    -11.358702     5A    -11.297803     6A    -11.277153
       7A    -11.232503     8A    -11.230937     9A    -11.222510
      10A     -1.398337    11A     -1.346496    12A     -1.260814
      13A     -1.073904    14A     -1.025727    15A     -0.950334
      16A     -0.896574    17A     -0.830678    18A     -0.810797
      19A     -0.737209    20A     -0.680060    21A     -0.653005
      22A     -0.635836    23A     -0.629166    24A     -0.599058
      25A     -0.581992    26A     -0.567850    27A     -0.555310
      28A     -0.548565    29A     -0.539841    30A     -0.530424
      31A     -0.513823    32A     -0.503052    33A     -0.491876
      34A     -0.445281    35A     -0.435061    36A     -0.403202

  @DF-RHF Final Energy:  -439.13173280773310

   => Energetics <=

    Nuclear Repulsion Energy =            485.9425892119588184
    One-Electron Energy =               -1562.2871510801119257
    Two-Electron Energy =                 637.2128290604199492
    Total Energy =                       -439.1317328077331013
  Basis Set: (AUG-CC-PVTZ AUX)
    Blend: AUG-CC-PVTZ-RI
    Molecular point group: c1

    Geometry (in Angstrom), charge = 0, multiplicity = 1:

       Center              X                  Y                   Z               Mass
    ------------   -----------------  -----------------  -----------------  -----------------
         O           -2.896823450456    -0.346671890207    -0.256437397427    15.994914619570
         O           -0.582606450456    -1.512388890207     0.083343602573    15.994914619570
         N            0.664627549544     0.345875109793    -0.351570397427    14.003074004430
         C            1.952171549544    -0.305841890207    -0.129757397427    12.000000000000
         C           -1.787601450456     0.521517109793    -0.341376397427    12.000000000000
         C            2.308723549544    -0.310326890207     1.352523602573    12.000000000000
         C            3.007191549544     0.377705109793    -0.984774397427    12.000000000000
         C           -0.509227450456    -0.303590890207    -0.181256397427    12.000000000000
         C           -1.899123450456     1.593722109793     0.736195602573    12.000000000000
         H            1.818202549544    -1.338761890207    -0.462747397427     1.007825032230
         H            0.652164149544     1.254238209793    -0.451935297427     1.007825032230
         H           -1.768878450456     0.994558109793    -1.335722397427     1.007825032230
         H            2.408533549544     0.714410109793     1.724238602573     1.007825032230
         H            1.527609549544    -0.818740890207     1.922068602573     1.007825032230
         H            3.256046549544    -0.831209890207     1.521494602573     1.007825032230
         H            3.130416549544     1.424299109793    -0.683625397427     1.007825032230
         H            2.731548549544     0.348751109793    -2.041383397427     1.007825032230
         H            3.973850549544    -0.117483890207    -0.863475397427     1.007825032230
         H           -1.842104450456     1.126213109793     1.721973602573     1.007825032230
         H           -2.867104450456     2.089670109793     0.644180602573     1.007825032230
         H           -1.114093450456     2.352175109793     0.654246602573     1.007825032230
         H           -2.499058450456    -1.230824890207    -0.093930397427     1.007825032230

  Basis Set: AUG-CC-PVTZ
    Blend: AUG-CC-PVTZ
  Basis Set: (AUG-CC-PVTZ AUX)
    Blend: AUG-CC-PVTZ-JKFIT
	 Reference Energy          =    -439.1317328077331013 [Eh]
	 Singles Energy            =      -0.0000000000000000 [Eh]
	 Same-Spin Energy          =      -0.4452205706383289 [Eh]
	 Opposite-Spin Energy      =      -1.4619368689145360 [Eh]
	 Correlation Energy        =      -1.9071574395528650 [Eh]
	 Total Energy              =    -441.0388902472859627 [Eh]

	 ================> DF-SCS-MP2 Energies <==================
	-----------------------------------------------------------
	 SCS Same-Spin Scale       =       0.3333333333333333 [-]
	 SCS Opposite-Spin Scale   =       1.2000000000000000 [-]
	 SCS Same-Spin Energy      =      -0.1484068568794430 [Eh]
	 SCS Opposite-Spin Energy  =      -1.7543242426974432 [Eh]
	 SCS Correlation Energy    =      -1.9027310995768862 [Eh]
	 SCS Total Energy          =    -441.0344639073099984 [Eh]
	-----------------------------------------------------------

  Dipole Moment: [D]
     X:     3.5563      Y:     2.8504      Z:    -0.2155     Total:     4.5627

*** Psi4 exiting successfully. Buy a developer a beer!
