                               Psi4 1.3.2 release

  ==> Input File <==

--------------------------------------------------------------------------
#psi4
#
memory 32 gb

molecule  {
0 1
  O       -2.8968130    -0.3474360    -0.2563530
  O       -0.5825960    -1.5131530     0.0834280
  N        0.6646380     0.3451110    -0.3514860
  C        1.9521820    -0.3066060    -0.1296730
  C       -1.7833398     0.4840470    -0.3030155
  C        2.3087340    -0.3110910     1.3526080
  C        3.0072020     0.3769410    -0.9846900
  C       -0.5092170    -0.3043550    -0.1811720
  C       -1.8991130     1.5929580     0.7362800
  H        1.8182130    -1.3395260    -0.4626630
  H        0.6508110     1.3528600    -0.4628320
  H       -1.7688680     0.9937940    -1.3356380
  H        2.4085440     0.7136460     1.7243230
  H        1.5276200    -0.8195050     1.9221530
  H        3.2560570    -0.8319740     1.5215790
  H        3.1304270     1.4235350    -0.6835410
  H        2.7315590     0.3479870    -2.0412990
  H        3.9738610    -0.1182480    -0.8633910
  H       -1.8384672     1.0915253     1.7050222
  H       -2.8670940     2.0889060     0.6442650
  H       -1.1140830     2.3514110     0.6543310
  H       -2.4990480    -1.2315890    -0.0938460
units angstrom
no_reorient  #important for SAPT in psi4, default
symmetry c1  #important for SAPT in psi4, default
}

set PROPERTIES_ORIGIN ["COM"]
properties('MP2/aug-cc-pvtz', properties = ['dipole'])
--------------------------------------------------------------------------

    Molecular point group: c1
  Charge       = 0
  Multiplicity = 1
  Basis Set: AUG-CC-PVTZ
    Blend: AUG-CC-PVTZ
  Basis Set: (AUG-CC-PVTZ AUX)
    Blend: AUG-CC-PVTZ-JKFIT

    Orbital Energies [Eh]
    ---------------------

    Doubly Occupied:

       1A    -20.551518     2A    -20.532212     3A    -15.595925
       4A    -11.357815     5A    -11.298482     6A    -11.277588
       7A    -11.232351     8A    -11.230832     9A    -11.222392
      10A     -1.401686    11A     -1.353683    12A     -1.248201
      13A     -1.072917    14A     -1.024066    15A     -0.949956
      16A     -0.897539    17A     -0.821235    18A     -0.793832
      19A     -0.741784    20A     -0.678536    21A     -0.648700
      22A     -0.633247    23A     -0.629418    24A     -0.597295
      25A     -0.584601    26A     -0.566273    27A     -0.555493
      28A     -0.549172    29A     -0.542284    30A     -0.528554
      31A     -0.515994    32A     -0.502969    33A     -0.492200
      34A     -0.440250    35A     -0.434365    36A     -0.400903

  @DF-RHF Final Energy:  -439.13422190571754

   => Energetics <=

    Nuclear Repulsion Energy =            486.0334546628429848
    One-Electron Energy =               -1562.5268141215785818
    Two-Electron Energy =                 637.3591375530180585
    Total Energy =                       -439.1342219057174816
  Basis Set: (AUG-CC-PVTZ AUX)
    Blend: AUG-CC-PVTZ-RI
    Molecular point group: c1

    Geometry (in Angstrom), charge = 0, multiplicity = 1:

       Center              X                  Y                   Z               Mass
    ------------   -----------------  -----------------  -----------------  -----------------
         O           -2.897229991213    -0.343815193789    -0.259725723358    15.994914619570
         O           -0.583012991213    -1.509532193789     0.080055276642    15.994914619570
         N            0.664221008787     0.348731806211    -0.354858723358    14.003074004430
         C            1.951765008787    -0.302985193789    -0.133045723358    12.000000000000
         C           -1.783756791213     0.487667806211    -0.306388223358    12.000000000000
         C            2.308317008787    -0.307470193789     1.349235276642    12.000000000000
         C            3.006785008787     0.380561806211    -0.988062723358    12.000000000000
         C           -0.509633991213    -0.300734193789    -0.184544723358    12.000000000000
         C           -1.899529991213     1.596578806211     0.732907276642    12.000000000000
         H            1.817796008787    -1.335905193789    -0.466035723358     1.007825032230
         H            0.650394008787     1.356480806211    -0.466204723358     1.007825032230
         H           -1.769284991213     0.997414806211    -1.339010723358     1.007825032230
         H            2.408127008787     0.717266806211     1.720950276642     1.007825032230
         H            1.527203008787    -0.815884193789     1.918780276642     1.007825032230
         H            3.255640008787    -0.828353193789     1.518206276642     1.007825032230
         H            3.130010008787     1.427155806211    -0.686913723358     1.007825032230
         H            2.731142008787     0.351607806211    -2.044671723358     1.007825032230
         H            3.973444008787    -0.114627193789    -0.866763723358     1.007825032230
         H           -1.838884191213     1.095146106211     1.701649476642     1.007825032230
         H           -2.867510991213     2.092526806211     0.640892276642     1.007825032230
         H           -1.114499991213     2.355031806211     0.650958276642     1.007825032230
         H           -2.499464991213    -1.227968193789    -0.097218723358     1.007825032230

  Basis Set: AUG-CC-PVTZ
    Blend: AUG-CC-PVTZ
  Basis Set: (AUG-CC-PVTZ AUX)
    Blend: AUG-CC-PVTZ-JKFIT
	 Reference Energy          =    -439.1342219057175384 [Eh]
	 Singles Energy            =      -0.0000000000000000 [Eh]
	 Same-Spin Energy          =      -0.4463101094176210 [Eh]
	 Opposite-Spin Energy      =      -1.4637866270886535 [Eh]
	 Correlation Energy        =      -1.9100967365062744 [Eh]
	 Total Energy              =    -441.0443186422238000 [Eh]

	 ================> DF-SCS-MP2 Energies <==================
	-----------------------------------------------------------
	 SCS Same-Spin Scale       =       0.3333333333333333 [-]
	 SCS Opposite-Spin Scale   =       1.2000000000000000 [-]
	 SCS Same-Spin Energy      =      -0.1487700364725403 [Eh]
	 SCS Opposite-Spin Energy  =      -1.7565439525063842 [Eh]
	 SCS Correlation Energy    =      -1.9053139889789246 [Eh]
	 SCS Total Energy          =    -441.0395358946964848 [Eh]
	-----------------------------------------------------------

  Dipole Moment: [D]
     X:     3.5135      Y:     2.8542      Z:    -0.1793     Total:     4.5303

*** Psi4 exiting successfully. Buy a developer a beer!
