                               Psi4 1.3.2 release

  ==> Input File <==

--------------------------------------------------------------------------
#psi4
#
memory 32 gb

molecule  {
0 1
  O       -2.8968130    -0.3474360    -0.2563530
  O       -0.5825960    -1.5131530     0.0834280
  N        0.6646380     0.3451110    -0.3514860
  C        1.9521820    -0.3066060    -0.1296730
  C       -1.7875910     0.5207530    -0.3412920
  C        2.3087340    -0.3110910     1.3526080
  C        3.0072020     0.3769410    -0.9846900
  C       -0.5092170    -0.3043550    -0.1811720
  C       -1.8991130     1.5929580     0.7362800
  H        1.8182130    -1.3395260    -0.4626630
  H        0.6508110     1.3528600    -0.4628320
  H       -1.7654678     1.0797006    -1.5162162
  H        2.4085440     0.7136460     1.7243230
  H        1.5276200    -0.8195050     1.9221530
  H        3.2560570    -0.8319740     1.5215790
  H        3.1304270     1.4235350    -0.6835410
  H        2.7315590     0.3479870    -2.0412990
  H        3.9738610    -0.1182480    -0.8633910
  H       -1.8420940     1.1254490     1.7220580
  H       -2.8670940     2.0889060     0.6442650
  H       -1.1140830     2.3514110     0.6543310
  H       -2.4990480    -1.2315890    -0.0938460
units angstrom
no_reorient  #important for SAPT in psi4, default
symmetry c1  #important for SAPT in psi4, default
}

set PROPERTIES_ORIGIN ["COM"]
properties('MP2/aug-cc-pvtz', properties = ['dipole'])
--------------------------------------------------------------------------

    Molecular point group: c1
  Charge       = 0
  Multiplicity = 1
  Basis Set: AUG-CC-PVTZ
    Blend: AUG-CC-PVTZ
  Basis Set: (AUG-CC-PVTZ AUX)
    Blend: AUG-CC-PVTZ-JKFIT

    Orbital Energies [Eh]
    ---------------------

    Doubly Occupied:

       1A    -20.553027     2A    -20.534177     3A    -15.595506
       4A    -11.360806     5A    -11.320302     6A    -11.277252
       7A    -11.233425     8A    -11.232185     9A    -11.222374
      10A     -1.399114    11A     -1.348910    12A     -1.248042
      13A     -1.071252    14A     -1.021627    15A     -0.949860
      16A     -0.892502    17A     -0.818373    18A     -0.791716
      19A     -0.734410    20A     -0.674168    21A     -0.639442
      22A     -0.632852    23A     -0.627346    24A     -0.597100
      25A     -0.583695    26A     -0.568932    27A     -0.555195
      28A     -0.548885    29A     -0.539118    30A     -0.525469
      31A     -0.512093    32A     -0.503029    33A     -0.491825
      34A     -0.440227    35A     -0.431550    36A     -0.400407

  @DF-RHF Final Energy:  -439.11781606775298

   => Energetics <=

    Nuclear Repulsion Energy =            484.3307591753855945
    One-Electron Energy =               -1559.1447647043519282
    Two-Electron Energy =                 635.6961894612134074
    Total Energy =                       -439.1178160677529831
  Basis Set: (AUG-CC-PVTZ AUX)
    Blend: AUG-CC-PVTZ-RI
    Molecular point group: c1

    Geometry (in Angstrom), charge = 0, multiplicity = 1:

       Center              X                  Y                   Z               Mass
    ------------   -----------------  -----------------  -----------------  -----------------
         O           -2.896839107363    -0.348096375876    -0.254964734057    15.994914619570
         O           -0.582622107363    -1.513813375876     0.084816265943    15.994914619570
         N            0.664611892637     0.344450624124    -0.350097734057    14.003074004430
         C            1.952155892637    -0.307266375876    -0.128284734057    12.000000000000
         C           -1.787617107363     0.520092624124    -0.339903734057    12.000000000000
         C            2.308707892637    -0.311751375876     1.353996265943    12.000000000000
         C            3.007175892637     0.376280624124    -0.983301734057    12.000000000000
         C           -0.509243107363    -0.305015375876    -0.179783734057    12.000000000000
         C           -1.899139107363     1.592297624124     0.737668265943    12.000000000000
         H            1.818186892637    -1.340186375876    -0.461274734057     1.007825032230
         H            0.650784892637     1.352199624124    -0.461443734057     1.007825032230
         H           -1.765493907363     1.079040224124    -1.514827934057     1.007825032230
         H            2.408517892637     0.712985624124     1.725711265943     1.007825032230
         H            1.527593892637    -0.820165375876     1.923541265943     1.007825032230
         H            3.256030892637    -0.832634375876     1.522967265943     1.007825032230
         H            3.130400892637     1.422874624124    -0.682152734057     1.007825032230
         H            2.731532892637     0.347326624124    -2.039910734057     1.007825032230
         H            3.973834892637    -0.118908375876    -0.862002734057     1.007825032230
         H           -1.842120107363     1.124788624124     1.723446265943     1.007825032230
         H           -2.867120107363     2.088245624124     0.645653265943     1.007825032230
         H           -1.114109107363     2.350750624124     0.655719265943     1.007825032230
         H           -2.499074107363    -1.232249375876    -0.092457734057     1.007825032230

  Basis Set: AUG-CC-PVTZ
    Blend: AUG-CC-PVTZ
  Basis Set: (AUG-CC-PVTZ AUX)
    Blend: AUG-CC-PVTZ-JKFIT
	 Reference Energy          =    -439.1178160677529831 [Eh]
	 Singles Energy            =      -0.0000000000000000 [Eh]
	 Same-Spin Energy          =      -0.4464032761938072 [Eh]
	 Opposite-Spin Energy      =      -1.4656798711251979 [Eh]
	 Correlation Energy        =      -1.9120831473190050 [Eh]
	 Total Energy              =    -441.0298992150719641 [Eh]

	 ================> DF-SCS-MP2 Energies <==================
	-----------------------------------------------------------
	 SCS Same-Spin Scale       =       0.3333333333333333 [-]
	 SCS Opposite-Spin Scale   =       1.2000000000000000 [-]
	 SCS Same-Spin Energy      =      -0.1488010920646024 [Eh]
	 SCS Opposite-Spin Energy  =      -1.7588158453502374 [Eh]
	 SCS Correlation Energy    =      -1.9076169374148397 [Eh]
	 SCS Total Energy          =    -441.0254330051678266 [Eh]
	-----------------------------------------------------------

  Dipole Moment: [D]
     X:     3.5246      Y:     2.8161      Z:    -0.0748     Total:     4.5121

*** Psi4 exiting successfully. Buy a developer a beer!
