                               Psi4 1.3.2 release

  ==> Input File <==

--------------------------------------------------------------------------
#psi4
#
memory 32 gb

molecule  {
0 1
  O       -2.8968130    -0.3474360    -0.2563530
  O       -0.6257239    -1.5096911     0.0837456
  N        0.6405184     0.3848796    -0.3595328
  C        1.9521820    -0.3066060    -0.1296730
  C       -1.7875910     0.5207530    -0.3412920
  C        2.3087340    -0.3110910     1.3526080
  C        3.0072020     0.3769410    -0.9846900
  C       -0.5092170    -0.3043550    -0.1811720
  C       -1.8991130     1.5929580     0.7362800
  H        1.8182130    -1.3395260    -0.4626630
  H        0.6508110     1.3528600    -0.4628320
  H       -1.7688680     0.9937940    -1.3356380
  H        2.4085440     0.7136460     1.7243230
  H        1.5276200    -0.8195050     1.9221530
  H        3.2560570    -0.8319740     1.5215790
  H        3.1304270     1.4235350    -0.6835410
  H        2.7315590     0.3479870    -2.0412990
  H        3.9738610    -0.1182480    -0.8633910
  H       -1.8420940     1.1254490     1.7220580
  H       -2.8670940     2.0889060     0.6442650
  H       -1.1140830     2.3514110     0.6543310
  H       -2.4990480    -1.2315890    -0.0938460
units angstrom
no_reorient  #important for SAPT in psi4, default
symmetry c1  #important for SAPT in psi4, default
}

set PROPERTIES_ORIGIN ["COM"]
properties('MP2/aug-cc-pvtz', properties = ['dipole'])
--------------------------------------------------------------------------

    Molecular point group: c1
  Charge       = 0
  Multiplicity = 1
  Basis Set: AUG-CC-PVTZ
    Blend: AUG-CC-PVTZ
  Basis Set: (AUG-CC-PVTZ AUX)
    Blend: AUG-CC-PVTZ-JKFIT

    Orbital Energies [Eh]
    ---------------------

    Doubly Occupied:

       1A    -20.543237     2A    -20.535110     3A    -15.595376
       4A    -11.359189     5A    -11.292249     6A    -11.282355
       7A    -11.233858     8A    -11.228451     9A    -11.224893
      10A     -1.397127    11A     -1.341298    12A     -1.249274
      13A     -1.073397    14A     -1.022283    15A     -0.951490
      16A     -0.892272    17A     -0.821913    18A     -0.803425
      19A     -0.733993    20A     -0.678220    21A     -0.648135
      22A     -0.634873    23A     -0.628122    24A     -0.600225
      25A     -0.580098    26A     -0.565564    27A     -0.556703
      28A     -0.546288    29A     -0.539136    30A     -0.529077
      31A     -0.509623    32A     -0.503722    33A     -0.493712
      34A     -0.442097    35A     -0.432070    36A     -0.406529

  @DF-RHF Final Energy:  -439.13500340928186

   => Energetics <=

    Nuclear Repulsion Energy =            484.8771542797976508
    One-Electron Energy =               -1560.2735483238270717
    Two-Electron Energy =                 636.2613906347474995
    Total Energy =                       -439.1350034092819214
  Basis Set: (AUG-CC-PVTZ AUX)
    Blend: AUG-CC-PVTZ-RI
    Molecular point group: c1

    Geometry (in Angstrom), charge = 0, multiplicity = 1:

       Center              X                  Y                   Z               Mass
    ------------   -----------------  -----------------  -----------------  -----------------
         O           -2.888974540834    -0.352106277938    -0.255532196507    15.994914619570
         O           -0.617885440834    -1.514361377938     0.084566403493    15.994914619570
         N            0.648356859166     0.380209322062    -0.358711996507    14.003074004430
         C            1.960020459166    -0.311276277938    -0.128852196507    12.000000000000
         C           -1.779752540834     0.516082722062    -0.340471196507    12.000000000000
         C            2.316572459166    -0.315761277938     1.353428803493    12.000000000000
         C            3.015040459166     0.372270722062    -0.983869196507    12.000000000000
         C           -0.501378540834    -0.309025277938    -0.180351196507    12.000000000000
         C           -1.891274540834     1.588287722062     0.737100803493    12.000000000000
         H            1.826051459166    -1.344196277938    -0.461842196507     1.007825032230
         H            0.658649459166     1.348189722062    -0.462011196507     1.007825032230
         H           -1.761029540834     0.989123722062    -1.334817196507     1.007825032230
         H            2.416382459166     0.708975722062     1.725143803493     1.007825032230
         H            1.535458459166    -0.824175277938     1.922973803493     1.007825032230
         H            3.263895459166    -0.836644277938     1.522399803493     1.007825032230
         H            3.138265459166     1.418864722062    -0.682720196507     1.007825032230
         H            2.739397459166     0.343316722062    -2.040478196507     1.007825032230
         H            3.981699459166    -0.122918277938    -0.862570196507     1.007825032230
         H           -1.834255540834     1.120778722062     1.722878803493     1.007825032230
         H           -2.859255540834     2.084235722062     0.645085803493     1.007825032230
         H           -1.106244540834     2.346740722062     0.655151803493     1.007825032230
         H           -2.491209540834    -1.236259277938    -0.093025196507     1.007825032230

  Basis Set: AUG-CC-PVTZ
    Blend: AUG-CC-PVTZ
  Basis Set: (AUG-CC-PVTZ AUX)
    Blend: AUG-CC-PVTZ-JKFIT
	 Reference Energy          =    -439.1350034092818646 [Eh]
	 Singles Energy            =      -0.0000000000000000 [Eh]
	 Same-Spin Energy          =      -0.4456867222515027 [Eh]
	 Opposite-Spin Energy      =      -1.4633421867609577 [Eh]
	 Correlation Energy        =      -1.9090289090124606 [Eh]
	 Total Energy              =    -441.0440323182943416 [Eh]

	 ================> DF-SCS-MP2 Energies <==================
	-----------------------------------------------------------
	 SCS Same-Spin Scale       =       0.3333333333333333 [-]
	 SCS Opposite-Spin Scale   =       1.2000000000000000 [-]
	 SCS Same-Spin Energy      =      -0.1485622407505009 [Eh]
	 SCS Opposite-Spin Energy  =      -1.7560106241131492 [Eh]
	 SCS Correlation Energy    =      -1.9045728648636502 [Eh]
	 SCS Total Energy          =    -441.0395762741455314 [Eh]
	-----------------------------------------------------------

  Dipole Moment: [D]
     X:     3.8353      Y:     2.8305      Z:    -0.1978     Total:     4.7708

*** Psi4 exiting successfully. Buy a developer a beer!
