                               Psi4 1.3.2 release

  ==> Input File <==

--------------------------------------------------------------------------
#psi4
#
memory 32 gb

molecule  {
0 1
  O       -2.8968130    -0.3474360    -0.2563530
  O       -0.6041744    -1.5116059     0.0836271
  N        0.6527552     0.3650973    -0.3555359
  C        1.9521820    -0.3066060    -0.1296730
  C       -1.7875910     0.5207530    -0.3412920
  C        2.3087340    -0.3110910     1.3526080
  C        3.0072020     0.3769410    -0.9846900
  C       -0.5092170    -0.3043550    -0.1811720
  C       -1.8991130     1.5929580     0.7362800
  H        1.8182130    -1.3395260    -0.4626630
  H        0.6508110     1.3528600    -0.4628320
  H       -1.7688680     0.9937940    -1.3356380
  H        2.4085440     0.7136460     1.7243230
  H        1.5276200    -0.8195050     1.9221530
  H        3.2560570    -0.8319740     1.5215790
  H        3.1304270     1.4235350    -0.6835410
  H        2.7315590     0.3479870    -2.0412990
  H        3.9738610    -0.1182480    -0.8633910
  H       -1.8420940     1.1254490     1.7220580
  H       -2.8670940     2.0889060     0.6442650
  H       -1.1140830     2.3514110     0.6543310
  H       -2.4990480    -1.2315890    -0.0938460
units angstrom
no_reorient  #important for SAPT in psi4, default
symmetry c1  #important for SAPT in psi4, default
}

set PROPERTIES_ORIGIN ["COM"]
properties('MP2/aug-cc-pvtz', properties = ['dipole'])
--------------------------------------------------------------------------

    Molecular point group: c1
  Charge       = 0
  Multiplicity = 1
  Basis Set: AUG-CC-PVTZ
    Blend: AUG-CC-PVTZ
  Basis Set: (AUG-CC-PVTZ AUX)
    Blend: AUG-CC-PVTZ-JKFIT

    Orbital Energies [Eh]
    ---------------------

    Doubly Occupied:

       1A    -20.545534     2A    -20.533792     3A    -15.595569
       4A    -11.358664     5A    -11.294803     6A    -11.279784
       7A    -11.233083     8A    -11.229617     9A    -11.223567
      10A     -1.397093    11A     -1.343529    12A     -1.248518
      13A     -1.072799    14A     -1.023101    15A     -0.950665
      16A     -0.893500    17A     -0.821427    18A     -0.799804
      19A     -0.735179    20A     -0.678553    21A     -0.648847
      22A     -0.633511    23A     -0.628443    24A     -0.598832
      25A     -0.580811    26A     -0.566576    27A     -0.555919
      28A     -0.547252    29A     -0.539167    30A     -0.529712
      31A     -0.510962    32A     -0.503283    33A     -0.492729
      34A     -0.443469    35A     -0.433351    36A     -0.404074

  @DF-RHF Final Energy:  -439.13744395943110

   => Energetics <=

    Nuclear Repulsion Energy =            485.0816589568562449
    One-Electron Energy =               -1560.6871740200795102
    Two-Electron Energy =                 636.4680711037922265
    Total Energy =                       -439.1374439594310388
  Basis Set: (AUG-CC-PVTZ AUX)
    Blend: AUG-CC-PVTZ-RI
    Molecular point group: c1

    Geometry (in Angstrom), charge = 0, multiplicity = 1:

       Center              X                  Y                   Z               Mass
    ------------   -----------------  -----------------  -----------------  -----------------
         O           -2.892910897601    -0.349759575586    -0.255944673278    15.994914619570
         O           -0.600272297601    -1.513929475586     0.084035426722    15.994914619570
         N            0.656657302399     0.362773724414    -0.355127573278    14.003074004430
         C            1.956084102399    -0.308929575586    -0.129264673278    12.000000000000
         C           -1.783688897601     0.518429424414    -0.340883673278    12.000000000000
         C            2.312636102399    -0.313414575586     1.353016326722    12.000000000000
         C            3.011104102399     0.374617424414    -0.984281673278    12.000000000000
         C           -0.505314897601    -0.306678575586    -0.180763673278    12.000000000000
         C           -1.895210897601     1.590634424414     0.736688326722    12.000000000000
         H            1.822115102399    -1.341849575586    -0.462254673278     1.007825032230
         H            0.654713102399     1.350536424414    -0.462423673278     1.007825032230
         H           -1.764965897601     0.991470424414    -1.335229673278     1.007825032230
         H            2.412446102399     0.711322424414     1.724731326722     1.007825032230
         H            1.531522102399    -0.821828575586     1.922561326722     1.007825032230
         H            3.259959102399    -0.834297575586     1.521987326722     1.007825032230
         H            3.134329102399     1.421211424414    -0.683132673278     1.007825032230
         H            2.735461102399     0.345663424414    -2.040890673278     1.007825032230
         H            3.977763102399    -0.120571575586    -0.862982673278     1.007825032230
         H           -1.838191897601     1.123125424414     1.722466326722     1.007825032230
         H           -2.863191897601     2.086582424414     0.644673326722     1.007825032230
         H           -1.110180897601     2.349087424414     0.654739326722     1.007825032230
         H           -2.495145897601    -1.233912575586    -0.093437673278     1.007825032230

  Basis Set: AUG-CC-PVTZ
    Blend: AUG-CC-PVTZ
  Basis Set: (AUG-CC-PVTZ AUX)
    Blend: AUG-CC-PVTZ-JKFIT
	 Reference Energy          =    -439.1374439594310957 [Eh]
	 Singles Energy            =      -0.0000000000000000 [Eh]
	 Same-Spin Energy          =      -0.4458241662497572 [Eh]
	 Opposite-Spin Energy      =      -1.4634207071661993 [Eh]
	 Correlation Energy        =      -1.9092448734159566 [Eh]
	 Total Energy              =    -441.0466888328470532 [Eh]

	 ================> DF-SCS-MP2 Energies <==================
	-----------------------------------------------------------
	 SCS Same-Spin Scale       =       0.3333333333333333 [-]
	 SCS Opposite-Spin Scale   =       1.2000000000000000 [-]
	 SCS Same-Spin Energy      =      -0.1486080554165857 [Eh]
	 SCS Opposite-Spin Energy  =      -1.7561048485994391 [Eh]
	 SCS Correlation Energy    =      -1.9047129040160247 [Eh]
	 SCS Total Energy          =    -441.0421568634471328 [Eh]
	-----------------------------------------------------------

  Dipole Moment: [D]
     X:     3.7060      Y:     2.8752      Z:    -0.2116     Total:     4.6953

*** Psi4 exiting successfully. Buy a developer a beer!
