                               Psi4 1.3.2 release

  ==> Input File <==

--------------------------------------------------------------------------
#psi4
#
memory 32 gb

molecule  {
0 1
  O       -2.8968130    -0.3474360    -0.2563530
  O       -0.5609913    -1.5142896     0.0833425
  N        0.6646380     0.3451110    -0.3514860
  C        1.9521820    -0.3066060    -0.1296730
  C       -1.7727331     0.5423817    -0.3462353
  C        2.3087340    -0.3110910     1.3526080
  C        3.0072020     0.3769410    -0.9846900
  C       -0.5092170    -0.3043550    -0.1811720
  C       -1.8991130     1.5929580     0.7362800
  H        1.8182130    -1.3395260    -0.4626630
  H        0.6508110     1.3528600    -0.4628320
  H       -1.7688680     0.9937940    -1.3356380
  H        2.4085440     0.7136460     1.7243230
  H        1.5276200    -0.8195050     1.9221530
  H        3.2560570    -0.8319740     1.5215790
  H        3.1304270     1.4235350    -0.6835410
  H        2.7315590     0.3479870    -2.0412990
  H        3.9738610    -0.1182480    -0.8633910
  H       -1.8420940     1.1254490     1.7220580
  H       -2.8670940     2.0889060     0.6442650
  H       -1.1140830     2.3514110     0.6543310
  H       -2.4990480    -1.2315890    -0.0938460
units angstrom
no_reorient  #important for SAPT in psi4, default
symmetry c1  #important for SAPT in psi4, default
}

set PROPERTIES_ORIGIN ["COM"]
properties('MP2/aug-cc-pvtz', properties = ['dipole'])
--------------------------------------------------------------------------

    Molecular point group: c1
  Charge       = 0
  Multiplicity = 1
  Basis Set: AUG-CC-PVTZ
    Blend: AUG-CC-PVTZ
  Basis Set: (AUG-CC-PVTZ AUX)
    Blend: AUG-CC-PVTZ-JKFIT

    Orbital Energies [Eh]
    ---------------------

    Doubly Occupied:

       1A    -20.546472     2A    -20.532570     3A    -15.594756
       4A    -11.358833     5A    -11.298195     6A    -11.276458
       7A    -11.231977     8A    -11.231909     9A    -11.221835
      10A     -1.395025    11A     -1.338708    12A     -1.247038
      13A     -1.073216    14A     -1.026802    15A     -0.949416
      16A     -0.896562    17A     -0.822161    18A     -0.794789
      19A     -0.733446    20A     -0.678365    21A     -0.649411
      22A     -0.632014    23A     -0.628114    24A     -0.596770
      25A     -0.580208    26A     -0.568001    27A     -0.554560
      28A     -0.548507    29A     -0.537068    30A     -0.530416
      31A     -0.511765    32A     -0.502322    33A     -0.490746
      34A     -0.448368    35A     -0.435383    36A     -0.400899

  @DF-RHF Final Energy:  -439.13641426245147

   => Energetics <=

    Nuclear Repulsion Energy =            485.1856470314748435
    One-Electron Energy =               -1560.9179550755620767
    Two-Electron Energy =                 636.5958937816357093
    Total Energy =                       -439.1364142624514670
  Basis Set: (AUG-CC-PVTZ AUX)
    Blend: AUG-CC-PVTZ-RI
    Molecular point group: c1

    Geometry (in Angstrom), charge = 0, multiplicity = 1:

       Center              X                  Y                   Z               Mass
    ------------   -----------------  -----------------  -----------------  -----------------
         O           -2.900809013152    -0.349277093650    -0.255890050878    15.994914619570
         O           -0.564987313152    -1.516130693650     0.083805449122    15.994914619570
         N            0.660641986848     0.343269906350    -0.351023050878    14.003074004430
         C            1.948185986848    -0.308447093650    -0.129210050878    12.000000000000
         C           -1.776729113152     0.540540606350    -0.345772350878    12.000000000000
         C            2.304737986848    -0.312932093650     1.353070949122    12.000000000000
         C            3.003205986848     0.375099906350    -0.984227050878    12.000000000000
         C           -0.513213013152    -0.306196093650    -0.180709050878    12.000000000000
         C           -1.903109013152     1.591116906350     0.736742949122    12.000000000000
         H            1.814216986848    -1.341367093650    -0.462200050878     1.007825032230
         H            0.646814986848     1.351018906350    -0.462369050878     1.007825032230
         H           -1.772864013152     0.991952906350    -1.335175050878     1.007825032230
         H            2.404547986848     0.711804906350     1.724785949122     1.007825032230
         H            1.523623986848    -0.821346093650     1.922615949122     1.007825032230
         H            3.252060986848    -0.833815093650     1.522041949122     1.007825032230
         H            3.126430986848     1.421693906350    -0.683078050878     1.007825032230
         H            2.727562986848     0.346145906350    -2.040836050878     1.007825032230
         H            3.969864986848    -0.120089093650    -0.862928050878     1.007825032230
         H           -1.846090013152     1.123607906350     1.722520949122     1.007825032230
         H           -2.871090013152     2.087064906350     0.644727949122     1.007825032230
         H           -1.118079013152     2.349569906350     0.654793949122     1.007825032230
         H           -2.503044013152    -1.233430093650    -0.093383050878     1.007825032230

  Basis Set: AUG-CC-PVTZ
    Blend: AUG-CC-PVTZ
  Basis Set: (AUG-CC-PVTZ AUX)
    Blend: AUG-CC-PVTZ-JKFIT
	 Reference Energy          =    -439.1364142624514670 [Eh]
	 Singles Energy            =      -0.0000000000000000 [Eh]
	 Same-Spin Energy          =      -0.4461156759454816 [Eh]
	 Opposite-Spin Energy      =      -1.4642020953875443 [Eh]
	 Correlation Energy        =      -1.9103177713330259 [Eh]
	 Total Energy              =    -441.0467320337845081 [Eh]

	 ================> DF-SCS-MP2 Energies <==================
	-----------------------------------------------------------
	 SCS Same-Spin Scale       =       0.3333333333333333 [-]
	 SCS Opposite-Spin Scale   =       1.2000000000000000 [-]
	 SCS Same-Spin Energy      =      -0.1487052253151605 [Eh]
	 SCS Opposite-Spin Energy  =      -1.7570425144650532 [Eh]
	 SCS Correlation Energy    =      -1.9057477397802138 [Eh]
	 SCS Total Energy          =    -441.0421620022316915 [Eh]
	-----------------------------------------------------------

  Dipole Moment: [D]
     X:     3.5554      Y:     2.9877      Z:    -0.2250     Total:     4.6496

*** Psi4 exiting successfully. Buy a developer a beer!
