                               Psi4 1.3.2 release

  ==> Input File <==

--------------------------------------------------------------------------
#psi4
#
memory 32 gb

molecule  {
0 1
  O       -2.8968130    -0.3474360    -0.2563530
  O       -0.5717980    -1.5137885     0.0832982
  N        0.6704455     0.3350433    -0.3494415
  C        1.9521820    -0.3066060    -0.1296730
  C       -1.7875910     0.5207530    -0.3412920
  C        2.3087340    -0.3110910     1.3526080
  C        3.0072020     0.3769410    -0.9846900
  C       -0.5092170    -0.3043550    -0.1811720
  C       -1.8991130     1.5929580     0.7362800
  H        1.8182130    -1.3395260    -0.4626630
  H        0.6508110     1.3528600    -0.4628320
  H       -1.7688680     0.9937940    -1.3356380
  H        2.4085440     0.7136460     1.7243230
  H        1.5276200    -0.8195050     1.9221530
  H        3.2560570    -0.8319740     1.5215790
  H        3.1304270     1.4235350    -0.6835410
  H        2.7315590     0.3479870    -2.0412990
  H        3.9738610    -0.1182480    -0.8633910
  H       -1.8420940     1.1254490     1.7220580
  H       -2.8670940     2.0889060     0.6442650
  H       -1.1140830     2.3514110     0.6543310
  H       -2.4990480    -1.2315890    -0.0938460
units angstrom
no_reorient  #important for SAPT in psi4, default
symmetry c1  #important for SAPT in psi4, default
}

set PROPERTIES_ORIGIN ["COM"]
properties('MP2/aug-cc-pvtz', properties = ['dipole'])
--------------------------------------------------------------------------

    Molecular point group: c1
  Charge       = 0
  Multiplicity = 1
  Basis Set: AUG-CC-PVTZ
    Blend: AUG-CC-PVTZ
  Basis Set: (AUG-CC-PVTZ AUX)
    Blend: AUG-CC-PVTZ-JKFIT

    Orbital Energies [Eh]
    ---------------------

    Doubly Occupied:

       1A    -20.548932     2A    -20.531831     3A    -15.595787
       4A    -11.358153     5A    -11.298604     6A    -11.275962
       7A    -11.231954     8A    -11.231337     9A    -11.221597
      10A     -1.397346    11A     -1.346901    12A     -1.247795
      13A     -1.072000    14A     -1.024218    15A     -0.949466
      16A     -0.895819    17A     -0.823183    18A     -0.792319
      19A     -0.737131    20A     -0.679052    21A     -0.649777
      22A     -0.631967    23A     -0.629006    24A     -0.596083
      25A     -0.582053    26A     -0.567999    27A     -0.554702
      28A     -0.548539    29A     -0.539501    30A     -0.530276
      31A     -0.513171    32A     -0.502514    33A     -0.490822
      34A     -0.445667    35A     -0.434799    36A     -0.400064

  @DF-RHF Final Energy:  -439.13730630690367

   => Energetics <=

    Nuclear Repulsion Energy =            485.4242911324658394
    One-Electron Energy =               -1561.3705404546124100
    Two-Electron Energy =                 636.8089430152427894
    Total Energy =                       -439.1373063069037244
  Basis Set: (AUG-CC-PVTZ AUX)
    Blend: AUG-CC-PVTZ-RI
    Molecular point group: c1

    Geometry (in Angstrom), charge = 0, multiplicity = 1:

       Center              X                  Y                   Z               Mass
    ------------   -----------------  -----------------  -----------------  -----------------
         O           -2.898750773281    -0.346283011433    -0.256555526733    15.994914619570
         O           -0.573735773281    -1.512635511433     0.083095673267    15.994914619570
         N            0.668507726719     0.336196288567    -0.349644026733    14.003074004430
         C            1.950244226719    -0.305453011433    -0.129875526733    12.000000000000
         C           -1.789528773281     0.521905988567    -0.341494526733    12.000000000000
         C            2.306796226719    -0.309938011433     1.352405473267    12.000000000000
         C            3.005264226719     0.378093988567    -0.984892526733    12.000000000000
         C           -0.511154773281    -0.303202011433    -0.181374526733    12.000000000000
         C           -1.901050773281     1.594110988567     0.736077473267    12.000000000000
         H            1.816275226719    -1.338373011433    -0.462865526733     1.007825032230
         H            0.648873226719     1.354012988567    -0.463034526733     1.007825032230
         H           -1.770805773281     0.994946988567    -1.335840526733     1.007825032230
         H            2.406606226719     0.714798988567     1.724120473267     1.007825032230
         H            1.525682226719    -0.818352011433     1.921950473267     1.007825032230
         H            3.254119226719    -0.830821011433     1.521376473267     1.007825032230
         H            3.128489226719     1.424687988567    -0.683743526733     1.007825032230
         H            2.729621226719     0.349139988567    -2.041501526733     1.007825032230
         H            3.971923226719    -0.117095011433    -0.863593526733     1.007825032230
         H           -1.844031773281     1.126601988567     1.721855473267     1.007825032230
         H           -2.869031773281     2.090058988567     0.644062473267     1.007825032230
         H           -1.116020773281     2.352563988567     0.654128473267     1.007825032230
         H           -2.500985773281    -1.230436011433    -0.094048526733     1.007825032230

  Basis Set: AUG-CC-PVTZ
    Blend: AUG-CC-PVTZ
  Basis Set: (AUG-CC-PVTZ AUX)
    Blend: AUG-CC-PVTZ-JKFIT
	 Reference Energy          =    -439.1373063069036675 [Eh]
	 Singles Energy            =      -0.0000000000000000 [Eh]
	 Same-Spin Energy          =      -0.4461531929380765 [Eh]
	 Opposite-Spin Energy      =      -1.4638076556136115 [Eh]
	 Correlation Energy        =      -1.9099608485516879 [Eh]
	 Total Energy              =    -441.0472671554553585 [Eh]

	 ================> DF-SCS-MP2 Energies <==================
	-----------------------------------------------------------
	 SCS Same-Spin Scale       =       0.3333333333333333 [-]
	 SCS Opposite-Spin Scale   =       1.2000000000000000 [-]
	 SCS Same-Spin Energy      =      -0.1487177309793588 [Eh]
	 SCS Opposite-Spin Energy  =      -1.7565691867363338 [Eh]
	 SCS Correlation Energy    =      -1.9052869177156926 [Eh]
	 SCS Total Energy          =    -441.0425932246193383 [Eh]
	-----------------------------------------------------------

  Dipole Moment: [D]
     X:     3.5125      Y:     2.9360      Z:    -0.2314     Total:     4.5838

*** Psi4 exiting successfully. Buy a developer a beer!
