                               Psi4 1.3.2 release

  ==> Input File <==

--------------------------------------------------------------------------
#psi4
#
memory 32 gb

molecule  {
0 1
  O       -2.8968130    -0.3474360    -0.2563530
  O       -0.5825960    -1.5131530     0.0834280
  N        0.6646380     0.3451110    -0.3514860
  C        1.9521820    -0.3066060    -0.1296730
  C       -1.7875910     0.5207530    -0.3412920
  C        2.3087340    -0.3110910     1.3526080
  C        3.0072020     0.3769410    -0.9846900
  C       -0.5053641    -0.3006518    -0.1934069
  C       -1.8991130     1.5929580     0.7362800
  H        1.8182130    -1.3395260    -0.4626630
  H        0.6508110     1.3528600    -0.4628320
  H       -1.7603630     0.9896761    -1.3373904
  H        2.4085440     0.7136460     1.7243230
  H        1.5276200    -0.8195050     1.9221530
  H        3.2560570    -0.8319740     1.5215790
  H        3.1304270     1.4235350    -0.6835410
  H        2.7315590     0.3479870    -2.0412990
  H        3.9738610    -0.1182480    -0.8633910
  H       -1.8420940     1.1254490     1.7220580
  H       -2.8670940     2.0889060     0.6442650
  H       -1.1140830     2.3514110     0.6543310
  H       -2.4990480    -1.2315890    -0.0938460
units angstrom
no_reorient  #important for SAPT in psi4, default
symmetry c1  #important for SAPT in psi4, default
}

set PROPERTIES_ORIGIN ["COM"]
properties('MP2/aug-cc-pvtz', properties = ['dipole'])
--------------------------------------------------------------------------

    Molecular point group: c1
  Charge       = 0
  Multiplicity = 1
  Basis Set: AUG-CC-PVTZ
    Blend: AUG-CC-PVTZ
  Basis Set: (AUG-CC-PVTZ AUX)
    Blend: AUG-CC-PVTZ-JKFIT

    Orbital Energies [Eh]
    ---------------------

    Doubly Occupied:

       1A    -20.547699     2A    -20.530654     3A    -15.597049
       4A    -11.357961     5A    -11.297457     6A    -11.277890
       7A    -11.232777     8A    -11.230954     9A    -11.222583
      10A     -1.394102    11A     -1.344614    12A     -1.249359
      13A     -1.073199    14A     -1.024086    15A     -0.950252
      16A     -0.895684    17A     -0.823153    18A     -0.796410
      19A     -0.735571    20A     -0.678655    21A     -0.649747
      22A     -0.631476    23A     -0.628921    24A     -0.596791
      25A     -0.581406    26A     -0.567413    27A     -0.555505
      28A     -0.548624    29A     -0.539413    30A     -0.529777
      31A     -0.511259    32A     -0.502503    33A     -0.491611
      34A     -0.444975    35A     -0.433443    36A     -0.401716

  @DF-RHF Final Energy:  -439.13729011489426

   => Energetics <=

    Nuclear Repulsion Energy =            485.2828488780182852
    One-Electron Energy =               -1561.0909004796794761
    Two-Electron Energy =                 636.6707614867668781
    Total Energy =                       -439.1372901148943129
  Basis Set: (AUG-CC-PVTZ AUX)
    Blend: AUG-CC-PVTZ-RI
    Molecular point group: c1

    Geometry (in Angstrom), charge = 0, multiplicity = 1:

       Center              X                  Y                   Z               Mass
    ------------   -----------------  -----------------  -----------------  -----------------
         O           -2.897231034521    -0.347743268009    -0.255219560040    15.994914619570
         O           -0.583014034521    -1.513460268009     0.084561439960    15.994914619570
         N            0.664219965479     0.344803731991    -0.350352560040    14.003074004430
         C            1.951763965479    -0.306913268009    -0.128539560040    12.000000000000
         C           -1.788009034521     0.520445731991    -0.340158560040    12.000000000000
         C            2.308315965479    -0.311398268009     1.353741439960    12.000000000000
         C            3.006783965479     0.376633731991    -0.983556560040    12.000000000000
         C           -0.505782134521    -0.300959068009    -0.192273460040    12.000000000000
         C           -1.899531034521     1.592650731991     0.737413439960    12.000000000000
         H            1.817794965479    -1.339833268009    -0.461529560040     1.007825032230
         H            0.650392965479     1.352552731991    -0.461698560040     1.007825032230
         H           -1.760781034521     0.989368831991    -1.336256960040     1.007825032230
         H            2.408125965479     0.713338731991     1.725456439960     1.007825032230
         H            1.527201965479    -0.819812268009     1.923286439960     1.007825032230
         H            3.255638965479    -0.832281268009     1.522712439960     1.007825032230
         H            3.130008965479     1.423227731991    -0.682407560040     1.007825032230
         H            2.731140965479     0.347679731991    -2.040165560040     1.007825032230
         H            3.973442965479    -0.118555268009    -0.862257560040     1.007825032230
         H           -1.842512034521     1.125141731991     1.723191439960     1.007825032230
         H           -2.867512034521     2.088598731991     0.645398439960     1.007825032230
         H           -1.114501034521     2.351103731991     0.655464439960     1.007825032230
         H           -2.499466034521    -1.231896268009    -0.092712560040     1.007825032230

  Basis Set: AUG-CC-PVTZ
    Blend: AUG-CC-PVTZ
  Basis Set: (AUG-CC-PVTZ AUX)
    Blend: AUG-CC-PVTZ-JKFIT
	 Reference Energy          =    -439.1372901148942560 [Eh]
	 Singles Energy            =      -0.0000000000000000 [Eh]
	 Same-Spin Energy          =      -0.4461374944582935 [Eh]
	 Opposite-Spin Energy      =      -1.4638341711270586 [Eh]
	 Correlation Energy        =      -1.9099716655853520 [Eh]
	 Total Energy              =    -441.0472617804796300 [Eh]

	 ================> DF-SCS-MP2 Energies <==================
	-----------------------------------------------------------
	 SCS Same-Spin Scale       =       0.3333333333333333 [-]
	 SCS Opposite-Spin Scale   =       1.2000000000000000 [-]
	 SCS Same-Spin Energy      =      -0.1487124981527645 [Eh]
	 SCS Opposite-Spin Energy  =      -1.7566010053524703 [Eh]
	 SCS Correlation Energy    =      -1.9053135035052349 [Eh]
	 SCS Total Energy          =    -441.0426036183994825 [Eh]
	-----------------------------------------------------------

  Dipole Moment: [D]
     X:     3.6232      Y:     2.9551      Z:    -0.2360     Total:     4.6814

*** Psi4 exiting successfully. Buy a developer a beer!
