                               Psi4 1.4a3.dev225

  ==> Input File <==

--------------------------------------------------------------------------
#psi4
#
memory 32 gb

molecule  {
0 1
  O       -1.7446660    -1.3796590    -0.7880960
  O       -0.4296620     1.7569970     0.2600660
  N        0.4723820    -0.3330750    -0.0012650
  C        1.8394770     0.0732600     0.3013020
  C       -1.9099390    -0.0103690    -0.3967440
  C        2.4958720     0.7244850    -0.9128940
  C        2.6145980    -1.1365250     0.8043010
  C       -0.5292426     0.5456834    -0.0265909
  C       -2.8608870     0.1360220     0.7815810
  H        1.7638430     0.8203410     1.0982830
  H        0.2750420    -1.2730860    -0.3263580
  H       -2.2722210     0.5864250    -1.2458220
  H        2.5570320     0.0100450    -1.7401110
  H        1.9072700     1.5874400    -1.2316560
  H        3.5085800     1.0627310    -0.6705710
  H        2.6773940    -1.9046250     0.0252330
  H        2.1327900    -1.5715010     1.6841320
  H        3.6348850    -0.8497170     1.0733550
  H       -2.5011890    -0.4705790     1.6169940
  H       -3.8694610    -0.1962540     0.5126420
  H       -2.9055320     1.1820880     1.0905810
  H       -2.6295620    -1.7449530    -0.9570530
units angstrom
no_reorient  #important for SAPT in psi4, default
symmetry c1  #important for SAPT in psi4, default
}

set PROPERTIES_ORIGIN ["COM"]
properties('MP2/aug-cc-pvtz', properties = ['dipole'])
--------------------------------------------------------------------------

    Molecular point group: c1
  Charge       = 0
  Multiplicity = 1
  Basis Set: AUG-CC-PVTZ
    Blend: AUG-CC-PVTZ
  Basis Set: (AUG-CC-PVTZ AUX)
    Blend: AUG-CC-PVTZ-JKFIT

    Orbital Energies [Eh]
    ---------------------

    Doubly Occupied:

       1A    -20.580344     2A    -20.505405     3A    -15.579117
       4A    -11.341585     5A    -11.300638     6A    -11.265729
       7A    -11.228022     8A    -11.222697     9A    -11.210493
      10A     -1.386716    11A     -1.352616    12A     -1.233084
      13A     -1.059142    14A     -1.027993    15A     -0.938507
      16A     -0.895823    17A     -0.815986    18A     -0.782465
      19A     -0.712267    20A     -0.688223    21A     -0.645092
      22A     -0.640954    23A     -0.615730    24A     -0.590693
      25A     -0.579630    26A     -0.562166    27A     -0.551026
      28A     -0.543680    29A     -0.525697    30A     -0.520385
      31A     -0.516064    32A     -0.490904    33A     -0.481033
      34A     -0.458650    35A     -0.411076    36A     -0.383861

  @DF-RHF Final Energy:  -439.13704910305904

   => Energetics <=

    Nuclear Repulsion Energy =            486.0154172933191035
    One-Electron Energy =               -1563.0179497302965501
    Two-Electron Energy =                 637.8654833339182915
    Total Energy =                       -439.1370491030590983
  Basis Set: (AUG-CC-PVTZ AUX)
    Blend: AUG-CC-PVTZ-RI
    Molecular point group: c1

    Geometry (in Angstrom), charge = 0, multiplicity = 1:

       Center              X                  Y                   Z               Mass
    ------------   -----------------  -----------------  -----------------  -----------------
         O           -1.713753242182    -1.399330569185    -0.781115363714    15.994914619570
         O           -0.398749242182     1.737325430815     0.267046636286    15.994914619570
         N            0.503294757818    -0.352746569185     0.005715636286    14.003074004430
         C            1.870389757818     0.053588430815     0.308282636286    12.000000000000
         C           -1.879026242182    -0.030040569185    -0.389763363714    12.000000000000
         C            2.526784757818     0.704813430815    -0.905913363714    12.000000000000
         C            2.645510757818    -1.156196569185     0.811281636286    12.000000000000
         C           -0.498329842182     0.526011830815    -0.019610263714    12.000000000000
         C           -2.829974242182     0.116350430815     0.788561636286    12.000000000000
         H            1.794755757818     0.800669430815     1.105263636286     1.007825032230
         H            0.305954757818    -1.292757569185    -0.319377363714     1.007825032230
         H           -2.241308242182     0.566753430815    -1.238841363714     1.007825032230
         H            2.587944757818    -0.009626569185    -1.733130363714     1.007825032230
         H            1.938182757818     1.567768430815    -1.224675363714     1.007825032230
         H            3.539492757818     1.043059430815    -0.663590363714     1.007825032230
         H            2.708306757818    -1.924296569185     0.032213636286     1.007825032230
         H            2.163702757818    -1.591172569185     1.691112636286     1.007825032230
         H            3.665797757818    -0.869388569185     1.080335636286     1.007825032230
         H           -2.470276242182    -0.490250569185     1.623974636286     1.007825032230
         H           -3.838548242182    -0.215925569185     0.519622636286     1.007825032230
         H           -2.874619242182     1.162416430815     1.097561636286     1.007825032230
         H           -2.598649242182    -1.764624569185    -0.950072363714     1.007825032230

  Basis Set: AUG-CC-PVTZ
    Blend: AUG-CC-PVTZ
  Basis Set: (AUG-CC-PVTZ AUX)
    Blend: AUG-CC-PVTZ-JKFIT
	 Reference Energy          =    -439.1370491030590415 [Eh]
	 Singles Energy            =      -0.0000000000000000 [Eh]
	 Same-Spin Energy          =      -0.4455894672086109 [Eh]
	 Opposite-Spin Energy      =      -1.4636354733362671 [Eh]
	 Correlation Energy        =      -1.9092249405448780 [Eh]
	 Total Energy              =    -441.0462740436039439 [Eh]

	 ================> DF-SCS-MP2 Energies <==================
	-----------------------------------------------------------
	 SCS Same-Spin Scale       =       0.3333333333333333 [-]
	 SCS Opposite-Spin Scale   =       1.2000000000000000 [-]
	 SCS Same-Spin Energy      =      -0.1485298224028703 [Eh]
	 SCS Opposite-Spin Energy  =      -1.7563625680035204 [Eh]
	 SCS Correlation Energy    =      -1.9048923904063908 [Eh]
	 SCS Total Energy          =    -441.0419414934654583 [Eh]
	-----------------------------------------------------------

  Dipole Moment: [D]
     X:    -0.5390      Y:    -2.9839      Z:    -0.4708     Total:     3.0685

*** Psi4 exiting successfully. Buy a developer a beer!
