                               Psi4 1.3.2 release

  ==> Input File <==

--------------------------------------------------------------------------
#psi4
#
memory 32 gb

molecule  {
0 1
  O       -2.8968130    -0.3474360    -0.2563530
  O       -0.5825960    -1.5131530     0.0834280
  N        0.6646380     0.3451110    -0.3514860
  C        1.9144195    -0.3704806    -0.1113186
  C       -1.7875910     0.5207530    -0.3412920
  C        2.3087340    -0.3110910     1.3526080
  C        3.0072020     0.3769410    -0.9846900
  C       -0.4724964    -0.3621282    -0.1631074
  C       -1.8991130     1.5929580     0.7362800
  H        1.8182130    -1.3395260    -0.4626630
  H        0.6508110     1.3528600    -0.4628320
  H       -1.7688680     0.9937940    -1.3356380
  H        2.4085440     0.7136460     1.7243230
  H        1.5276200    -0.8195050     1.9221530
  H        3.2560570    -0.8319740     1.5215790
  H        3.1304270     1.4235350    -0.6835410
  H        2.7315590     0.3479870    -2.0412990
  H        3.9738610    -0.1182480    -0.8633910
  H       -1.8420940     1.1254490     1.7220580
  H       -2.8670940     2.0889060     0.6442650
  H       -1.1140830     2.3514110     0.6543310
  H       -2.4990480    -1.2315890    -0.0938460
units angstrom
no_reorient  #important for SAPT in psi4, default
symmetry c1  #important for SAPT in psi4, default
}

set PROPERTIES_ORIGIN ["COM"]
properties('MP2/aug-cc-pvtz', properties = ['dipole'])
--------------------------------------------------------------------------

    Molecular point group: c1
  Charge       = 0
  Multiplicity = 1
  Basis Set: AUG-CC-PVTZ
    Blend: AUG-CC-PVTZ
  Basis Set: (AUG-CC-PVTZ AUX)
    Blend: AUG-CC-PVTZ-JKFIT

    Orbital Energies [Eh]
    ---------------------

    Doubly Occupied:

       1A    -20.545299     2A    -20.541292     3A    -15.591880
       4A    -11.353238     5A    -11.292236     6A    -11.274539
       7A    -11.232026     8A    -11.226533     9A    -11.222582
      10A     -1.428768    11A     -1.348481    12A     -1.252306
      13A     -1.062325    14A     -1.015670    15A     -0.944914
      16A     -0.881584    17A     -0.827254    18A     -0.797687
      19A     -0.732741    20A     -0.686245    21A     -0.649575
      22A     -0.644676    23A     -0.623662    24A     -0.603996
      25A     -0.578724    26A     -0.563565    27A     -0.555864
      28A     -0.545887    29A     -0.543577    30A     -0.531932
      31A     -0.522044    32A     -0.512530    33A     -0.485783
      34A     -0.441966    35A     -0.421924    36A     -0.403899

  @DF-RHF Final Energy:  -439.12903425998854

   => Energetics <=

    Nuclear Repulsion Energy =            485.6311608654689280
    One-Electron Energy =               -1561.7459836959665154
    Two-Electron Energy =                 636.9857885705090439
    Total Energy =                       -439.1290342599885435
  Basis Set: (AUG-CC-PVTZ AUX)
    Blend: AUG-CC-PVTZ-RI
    Molecular point group: c1

    Geometry (in Angstrom), charge = 0, multiplicity = 1:

       Center              X                  Y                   Z               Mass
    ------------   -----------------  -----------------  -----------------  -----------------
         O           -2.896717595087    -0.336300679609    -0.259686660779    15.994914619570
         O           -0.582500595087    -1.502017679609     0.080094339221    15.994914619570
         N            0.664733404913     0.356246320391    -0.354819660779    14.003074004430
         C            1.914514904913    -0.359345279609    -0.114652260779    12.000000000000
         C           -1.787495595087     0.531888320391    -0.344625660779    12.000000000000
         C            2.308829404913    -0.299955679609     1.349274339221    12.000000000000
         C            3.007297404913     0.388076320391    -0.988023660779    12.000000000000
         C           -0.472400995087    -0.350992879609    -0.166441060779    12.000000000000
         C           -1.899017595087     1.604093320391     0.732946339221    12.000000000000
         H            1.818308404913    -1.328390679609    -0.465996660779     1.007825032230
         H            0.650906404913     1.363995320391    -0.466165660779     1.007825032230
         H           -1.768772595087     1.004929320391    -1.338971660779     1.007825032230
         H            2.408639404913     0.724781320391     1.720989339221     1.007825032230
         H            1.527715404913    -0.808369679609     1.918819339221     1.007825032230
         H            3.256152404913    -0.820838679609     1.518245339221     1.007825032230
         H            3.130522404913     1.434670320391    -0.686874660779     1.007825032230
         H            2.731654404913     0.359122320391    -2.044632660779     1.007825032230
         H            3.973956404913    -0.107112679609    -0.866724660779     1.007825032230
         H           -1.841998595087     1.136584320391     1.718724339221     1.007825032230
         H           -2.866998595087     2.100041320391     0.640931339221     1.007825032230
         H           -1.113987595087     2.362546320391     0.650997339221     1.007825032230
         H           -2.498952595087    -1.220453679609    -0.097179660779     1.007825032230

  Basis Set: AUG-CC-PVTZ
    Blend: AUG-CC-PVTZ
  Basis Set: (AUG-CC-PVTZ AUX)
    Blend: AUG-CC-PVTZ-JKFIT
	 Reference Energy          =    -439.1290342599885435 [Eh]
	 Singles Energy            =      -0.0000000000000000 [Eh]
	 Same-Spin Energy          =      -0.4446042071393720 [Eh]
	 Opposite-Spin Energy      =      -1.4613026163785086 [Eh]
	 Correlation Energy        =      -1.9059068235178804 [Eh]
	 Total Energy              =    -441.0349410835063964 [Eh]

	 ================> DF-SCS-MP2 Energies <==================
	-----------------------------------------------------------
	 SCS Same-Spin Scale       =       0.3333333333333333 [-]
	 SCS Opposite-Spin Scale   =       1.2000000000000000 [-]
	 SCS Same-Spin Energy      =      -0.1482014023797907 [Eh]
	 SCS Opposite-Spin Energy  =      -1.7535631396542102 [Eh]
	 SCS Correlation Energy    =      -1.9017645420340008 [Eh]
	 SCS Total Energy          =    -441.0307988020225594 [Eh]
	-----------------------------------------------------------

  Dipole Moment: [D]
     X:     3.6108      Y:     2.5685      Z:    -0.1387     Total:     4.4333

*** Psi4 exiting successfully. Buy a developer a beer!
