                               Psi4 1.4a3.dev225

  ==> Input File <==

--------------------------------------------------------------------------
#psi4
#
memory 32 gb

molecule  {
0 1
  O       -1.7446660    -1.3796590    -0.7880960
  O       -0.4296620     1.7569970     0.2600660
  N        0.4723820    -0.3330750    -0.0012650
  C        1.8394770     0.0732600     0.3013020
  C       -1.9099390    -0.0103690    -0.3967440
  C        2.4958720     0.7244850    -0.9128940
  C        2.6145980    -1.1365250     0.8043010
  C       -0.5442740     0.5588710    -0.0269710
  C       -2.8608870     0.1360220     0.7815810
  H        1.7638430     0.8203410     1.0982830
  H        0.2750420    -1.2730860    -0.3263580
  H       -2.2886996     0.6135706    -1.2844429
  H        2.5570320     0.0100450    -1.7401110
  H        1.9072700     1.5874400    -1.2316560
  H        3.5085800     1.0627310    -0.6705710
  H        2.6773940    -1.9046250     0.0252330
  H        2.1327900    -1.5715010     1.6841320
  H        3.6348850    -0.8497170     1.0733550
  H       -2.5011890    -0.4705790     1.6169940
  H       -3.8694610    -0.1962540     0.5126420
  H       -2.9055320     1.1820880     1.0905810
  H       -2.6295620    -1.7449530    -0.9570530
units angstrom
no_reorient  #important for SAPT in psi4, default
symmetry c1  #important for SAPT in psi4, default
}

set PROPERTIES_ORIGIN ["COM"]
properties('MP2/aug-cc-pvtz', properties = ['dipole'])
--------------------------------------------------------------------------

    Molecular point group: c1
  Charge       = 0
  Multiplicity = 1
  Basis Set: AUG-CC-PVTZ
    Blend: AUG-CC-PVTZ
  Basis Set: (AUG-CC-PVTZ AUX)
    Blend: AUG-CC-PVTZ-JKFIT

    Orbital Energies [Eh]
    ---------------------

    Doubly Occupied:

       1A    -20.581844     2A    -20.509287     3A    -15.575873
       4A    -11.343350     5A    -11.306868     6A    -11.264080
       7A    -11.229425     8A    -11.221434     9A    -11.209327
      10A     -1.388141    11A     -1.358890    12A     -1.228013
      13A     -1.057267    14A     -1.027285    15A     -0.937216
      16A     -0.896185    17A     -0.811842    18A     -0.777504
      19A     -0.708270    20A     -0.690305    21A     -0.642899
      22A     -0.640885    23A     -0.614244    24A     -0.594623
      25A     -0.578416    26A     -0.563363    27A     -0.551633
      28A     -0.542448    29A     -0.525062    30A     -0.520505
      31A     -0.516573    32A     -0.490996    33A     -0.480197
      34A     -0.456258    35A     -0.413864    36A     -0.382609

  @DF-RHF Final Energy:  -439.13560928552340

   => Energetics <=

    Nuclear Repulsion Energy =            485.6585572417397998
    One-Electron Energy =               -1562.3143719183217399
    Two-Electron Energy =                 637.5202053910585391
    Total Energy =                       -439.1356092855234010
  Basis Set: (AUG-CC-PVTZ AUX)
    Blend: AUG-CC-PVTZ-RI
    Molecular point group: c1

    Geometry (in Angstrom), charge = 0, multiplicity = 1:

       Center              X                  Y                   Z               Mass
    ------------   -----------------  -----------------  -----------------  -----------------
         O           -1.712250630308    -1.400746410682    -0.780783662024    15.994914619570
         O           -0.397246630308     1.735909589318     0.267378337976    15.994914619570
         N            0.504797369692    -0.354162410682     0.006047337976    14.003074004430
         C            1.871892369692     0.052172589318     0.308614337976    12.000000000000
         C           -1.877523630308    -0.031456410682    -0.389431662024    12.000000000000
         C            2.528287369692     0.703397589318    -0.905581662024    12.000000000000
         C            2.647013369692    -1.157612410682     0.811613337976    12.000000000000
         C           -0.511858630308     0.537783589318    -0.019658662024    12.000000000000
         C           -2.828471630308     0.114934589318     0.788893337976    12.000000000000
         H            1.796258369692     0.799253589318     1.105595337976     1.007825032230
         H            0.307457369692    -1.294173410682    -0.319045662024     1.007825032230
         H           -2.256284230308     0.592483189318    -1.277130562024     1.007825032230
         H            2.589447369692    -0.011042410682    -1.732798662024     1.007825032230
         H            1.939685369692     1.566352589318    -1.224343662024     1.007825032230
         H            3.540995369692     1.041643589318    -0.663258662024     1.007825032230
         H            2.709809369692    -1.925712410682     0.032545337976     1.007825032230
         H            2.165205369692    -1.592588410682     1.691444337976     1.007825032230
         H            3.667300369692    -0.870804410682     1.080667337976     1.007825032230
         H           -2.468773630308    -0.491666410682     1.624306337976     1.007825032230
         H           -3.837045630308    -0.217341410682     0.519954337976     1.007825032230
         H           -2.873116630308     1.161000589318     1.097893337976     1.007825032230
         H           -2.597146630308    -1.766040410682    -0.949740662024     1.007825032230

  Basis Set: AUG-CC-PVTZ
    Blend: AUG-CC-PVTZ
  Basis Set: (AUG-CC-PVTZ AUX)
    Blend: AUG-CC-PVTZ-JKFIT
	 Reference Energy          =    -439.1356092855234010 [Eh]
	 Singles Energy            =      -0.0000000000000000 [Eh]
	 Same-Spin Energy          =      -0.4455902643503537 [Eh]
	 Opposite-Spin Energy      =      -1.4639058815551551 [Eh]
	 Correlation Energy        =      -1.9094961459055089 [Eh]
	 Total Energy              =    -441.0451054314289081 [Eh]

	 ================> DF-SCS-MP2 Energies <==================
	-----------------------------------------------------------
	 SCS Same-Spin Scale       =       0.3333333333333333 [-]
	 SCS Opposite-Spin Scale   =       1.2000000000000000 [-]
	 SCS Same-Spin Energy      =      -0.1485300881167846 [Eh]
	 SCS Opposite-Spin Energy  =      -1.7566870578661862 [Eh]
	 SCS Correlation Energy    =      -1.9052171459829708 [Eh]
	 SCS Total Energy          =    -441.0408264315063889 [Eh]
	-----------------------------------------------------------

  Dipole Moment: [D]
     X:    -0.6606      Y:    -2.8970      Z:    -0.4445     Total:     3.0044

*** Psi4 exiting successfully. Buy a developer a beer!
