                               Psi4 1.3.2 release

  ==> Input File <==

--------------------------------------------------------------------------
#psi4
#
memory 32 gb

molecule  {
0 1
  O       -2.8968130    -0.3474360    -0.2563530
  O       -0.5825960    -1.5131530     0.0834280
  N        0.6646380     0.3451110    -0.3514860
  C        1.9521820    -0.3066060    -0.1296730
  C       -1.7865152     0.5114523    -0.3318442
  C        2.3087340    -0.3110910     1.3526080
  C        3.0072020     0.3769410    -0.9846900
  C       -0.5092170    -0.3043550    -0.1811720
  C       -1.8991130     1.5929580     0.7362800
  H        1.8182130    -1.3395260    -0.4626630
  H        0.6508110     1.3528600    -0.4628320
  H       -1.7688680     0.9937940    -1.3356380
  H        2.4085440     0.7136460     1.7243230
  H        1.5276200    -0.8195050     1.9221530
  H        3.2560570    -0.8319740     1.5215790
  H        3.1304270     1.4235350    -0.6835410
  H        2.7315590     0.3479870    -2.0412990
  H        3.9738610    -0.1182480    -0.8633910
  H       -1.8411806     1.1169131     1.7179109
  H       -2.8670940     2.0889060     0.6442650
  H       -1.1140830     2.3514110     0.6543310
  H       -2.4990480    -1.2315890    -0.0938460
units angstrom
no_reorient  #important for SAPT in psi4, default
symmetry c1  #important for SAPT in psi4, default
}

set PROPERTIES_ORIGIN ["COM"]
properties('MP2/aug-cc-pvtz', properties = ['dipole'])
--------------------------------------------------------------------------

    Molecular point group: c1
  Charge       = 0
  Multiplicity = 1
  Basis Set: AUG-CC-PVTZ
    Blend: AUG-CC-PVTZ
  Basis Set: (AUG-CC-PVTZ AUX)
    Blend: AUG-CC-PVTZ-JKFIT

    Orbital Energies [Eh]
    ---------------------

    Doubly Occupied:

       1A    -20.548705     2A    -20.532409     3A    -15.595778
       4A    -11.358144     5A    -11.297533     6A    -11.277322
       7A    -11.232334     8A    -11.230731     9A    -11.222287
      10A     -1.398245    11A     -1.347826    12A     -1.248038
      13A     -1.072407    14A     -1.023850    15A     -0.949886
      16A     -0.895558    17A     -0.822017    18A     -0.794648
      19A     -0.737801    20A     -0.678786    21A     -0.649167
      22A     -0.632661    23A     -0.628967    24A     -0.597111
      25A     -0.582227    26A     -0.567274    27A     -0.555203
      28A     -0.548383    29A     -0.540118    30A     -0.529563
      31A     -0.513435    32A     -0.502824    33A     -0.491697
      34A     -0.443460    35A     -0.434986    36A     -0.401345

  @DF-RHF Final Energy:  -439.13760492422267

   => Energetics <=

    Nuclear Repulsion Energy =            485.4897220286324568
    One-Electron Energy =               -1561.4891998656146370
    Two-Electron Energy =                 636.8618729127593951
    Total Energy =                       -439.1376049242227282
  Basis Set: (AUG-CC-PVTZ AUX)
    Blend: AUG-CC-PVTZ-RI
    Molecular point group: c1

    Geometry (in Angstrom), charge = 0, multiplicity = 1:

       Center              X                  Y                   Z               Mass
    ------------   -----------------  -----------------  -----------------  -----------------
         O           -2.896918464853    -0.346518966353    -0.257185917961    15.994914619570
         O           -0.582701464853    -1.512235966353     0.082595082039    15.994914619570
         N            0.664532535147     0.346028033647    -0.352318917961    14.003074004430
         C            1.952076535147    -0.305688966353    -0.130505917961    12.000000000000
         C           -1.786620664853     0.512369333647    -0.332677117961    12.000000000000
         C            2.308628535147    -0.310173966353     1.351775082039    12.000000000000
         C            3.007096535147     0.377858033647    -0.985522917961    12.000000000000
         C           -0.509322464853    -0.303437966353    -0.182004917961    12.000000000000
         C           -1.899218464853     1.593875033647     0.735447082039    12.000000000000
         H            1.818107535147    -1.338608966353    -0.463495917961     1.007825032230
         H            0.650705535147     1.353777033647    -0.463664917961     1.007825032230
         H           -1.768973464853     0.994711033647    -1.336470917961     1.007825032230
         H            2.408438535147     0.714563033647     1.723490082039     1.007825032230
         H            1.527514535147    -0.818587966353     1.921320082039     1.007825032230
         H            3.255951535147    -0.831056966353     1.520746082039     1.007825032230
         H            3.130321535147     1.424452033647    -0.684373917961     1.007825032230
         H            2.731453535147     0.348904033647    -2.042131917961     1.007825032230
         H            3.973755535147    -0.117330966353    -0.864223917961     1.007825032230
         H           -1.841286064853     1.117830133647     1.717077982039     1.007825032230
         H           -2.867199464853     2.089823033647     0.643432082039     1.007825032230
         H           -1.114188464853     2.352328033647     0.653498082039     1.007825032230
         H           -2.499153464853    -1.230671966353    -0.094678917961     1.007825032230

  Basis Set: AUG-CC-PVTZ
    Blend: AUG-CC-PVTZ
  Basis Set: (AUG-CC-PVTZ AUX)
    Blend: AUG-CC-PVTZ-JKFIT
	 Reference Energy          =    -439.1376049242226713 [Eh]
	 Singles Energy            =      -0.0000000000000000 [Eh]
	 Same-Spin Energy          =      -0.4460791932439703 [Eh]
	 Opposite-Spin Energy      =      -1.4636334405873432 [Eh]
	 Correlation Energy        =      -1.9097126338313135 [Eh]
	 Total Energy              =    -441.0473175580539760 [Eh]

	 ================> DF-SCS-MP2 Energies <==================
	-----------------------------------------------------------
	 SCS Same-Spin Scale       =       0.3333333333333333 [-]
	 SCS Opposite-Spin Scale   =       1.2000000000000000 [-]
	 SCS Same-Spin Energy      =      -0.1486930644146567 [Eh]
	 SCS Opposite-Spin Energy  =      -1.7563601287048118 [Eh]
	 SCS Correlation Energy    =      -1.9050531931194685 [Eh]
	 SCS Total Energy          =    -441.0426581173421141 [Eh]
	-----------------------------------------------------------

  Dipole Moment: [D]
     X:     3.5614      Y:     2.9012      Z:    -0.2146     Total:     4.5986

*** Psi4 exiting successfully. Buy a developer a beer!
