                               Psi4 1.3.2 release

  ==> Input File <==

--------------------------------------------------------------------------
#psi4
#
memory 32 gb

molecule  {
0 1
  O       -2.8968130    -0.3474360    -0.2563530
  O       -0.5825960    -1.5131530     0.0834280
  N        0.6646380     0.3451110    -0.3514860
  C        1.9521820    -0.3066060    -0.1296730
  C       -1.7875910     0.5207530    -0.3412920
  C        2.3087340    -0.3110910     1.3526080
  C        3.0072020     0.3769410    -0.9846900
  C       -0.4974832    -0.3247921    -0.1798683
  C       -1.8991130     1.5929580     0.7362800
  H        1.8182130    -1.3395260    -0.4626630
  H        0.6684474     1.3527851    -0.4642932
  H       -1.7688680     0.9937940    -1.3356380
  H        2.4085440     0.7136460     1.7243230
  H        1.5276200    -0.8195050     1.9221530
  H        3.2560570    -0.8319740     1.5215790
  H        3.1304270     1.4235350    -0.6835410
  H        2.7315590     0.3479870    -2.0412990
  H        3.9738610    -0.1182480    -0.8633910
  H       -1.8420940     1.1254490     1.7220580
  H       -2.8670940     2.0889060     0.6442650
  H       -1.1140830     2.3514110     0.6543310
  H       -2.4990480    -1.2315890    -0.0938460
units angstrom
no_reorient  #important for SAPT in psi4, default
symmetry c1  #important for SAPT in psi4, default
}

set PROPERTIES_ORIGIN ["COM"]
properties('MP2/aug-cc-pvtz', properties = ['dipole'])
--------------------------------------------------------------------------

    Molecular point group: c1
  Charge       = 0
  Multiplicity = 1
  Basis Set: AUG-CC-PVTZ
    Blend: AUG-CC-PVTZ
  Basis Set: (AUG-CC-PVTZ AUX)
    Blend: AUG-CC-PVTZ-JKFIT

    Orbital Energies [Eh]
    ---------------------

    Doubly Occupied:

       1A    -20.546985     2A    -20.535507     3A    -15.594221
       4A    -11.357201     5A    -11.295973     6A    -11.276301
       7A    -11.232159     8A    -11.229234     9A    -11.222239
      10A     -1.406296    11A     -1.347464    12A     -1.249607
      13A     -1.070173    14A     -1.021306    15A     -0.949885
      16A     -0.890890    17A     -0.820641    18A     -0.797341
      19A     -0.734973    20A     -0.679305    21A     -0.648686
      22A     -0.635585    23A     -0.628703    24A     -0.599854
      25A     -0.581129    26A     -0.566427    27A     -0.555255
      28A     -0.547587    29A     -0.540172    30A     -0.531145
      31A     -0.514145    32A     -0.504198    33A     -0.492123
      34A     -0.444007    35A     -0.431638    36A     -0.402463

  @DF-RHF Final Energy:  -439.13869116377964

   => Energetics <=

    Nuclear Repulsion Energy =            485.3825510720065495
    One-Electron Energy =               -1561.2808567662386849
    Two-Electron Energy =                 636.7596145304523816
    Total Energy =                       -439.1386911637796402
  Basis Set: (AUG-CC-PVTZ AUX)
    Blend: AUG-CC-PVTZ-RI
    Molecular point group: c1

    Geometry (in Angstrom), charge = 0, multiplicity = 1:

       Center              X                  Y                   Z               Mass
    ------------   -----------------  -----------------  -----------------  -----------------
         O           -2.898022628002    -0.345564620674    -0.256461080614    15.994914619570
         O           -0.583805628002    -1.511281620674     0.083319919386    15.994914619570
         N            0.663428371998     0.346982379326    -0.351594080614    14.003074004430
         C            1.950972371998    -0.304734620674    -0.129781080614    12.000000000000
         C           -1.788800628002     0.522624379326    -0.341400080614    12.000000000000
         C            2.307524371998    -0.309219620674     1.352499919386    12.000000000000
         C            3.005992371998     0.378812379326    -0.984798080614    12.000000000000
         C           -0.498692828002    -0.322920720674    -0.179976380614    12.000000000000
         C           -1.900322628002     1.594829379326     0.736171919386    12.000000000000
         H            1.817003371998    -1.337654620674    -0.462771080614     1.007825032230
         H            0.667237771998     1.354656479326    -0.464401280614     1.007825032230
         H           -1.770077628002     0.995665379326    -1.335746080614     1.007825032230
         H            2.407334371998     0.715517379326     1.724214919386     1.007825032230
         H            1.526410371998    -0.817633620674     1.922044919386     1.007825032230
         H            3.254847371998    -0.830102620674     1.521470919386     1.007825032230
         H            3.129217371998     1.425406379326    -0.683649080614     1.007825032230
         H            2.730349371998     0.349858379326    -2.041407080614     1.007825032230
         H            3.972651371998    -0.116376620674    -0.863499080614     1.007825032230
         H           -1.843303628002     1.127320379326     1.721949919386     1.007825032230
         H           -2.868303628002     2.090777379326     0.644156919386     1.007825032230
         H           -1.115292628002     2.353282379326     0.654222919386     1.007825032230
         H           -2.500257628002    -1.229717620674    -0.093954080614     1.007825032230

  Basis Set: AUG-CC-PVTZ
    Blend: AUG-CC-PVTZ
  Basis Set: (AUG-CC-PVTZ AUX)
    Blend: AUG-CC-PVTZ-JKFIT
	 Reference Energy          =    -439.1386911637796402 [Eh]
	 Singles Energy            =      -0.0000000000000000 [Eh]
	 Same-Spin Energy          =      -0.4455747366840803 [Eh]
	 Opposite-Spin Energy      =      -1.4627762492212177 [Eh]
	 Correlation Energy        =      -1.9083509859052981 [Eh]
	 Total Energy              =    -441.0470421496849553 [Eh]

	 ================> DF-SCS-MP2 Energies <==================
	-----------------------------------------------------------
	 SCS Same-Spin Scale       =       0.3333333333333333 [-]
	 SCS Opposite-Spin Scale   =       1.2000000000000000 [-]
	 SCS Same-Spin Energy      =      -0.1485249122280268 [Eh]
	 SCS Opposite-Spin Energy  =      -1.7553314990654612 [Eh]
	 SCS Correlation Energy    =      -1.9038564112934879 [Eh]
	 SCS Total Energy          =    -441.0425475750731152 [Eh]
	-----------------------------------------------------------

  Dipole Moment: [D]
     X:     3.6074      Y:     2.8118      Z:    -0.2177     Total:     4.5790

*** Psi4 exiting successfully. Buy a developer a beer!
