                               Psi4 1.3.2 release

  ==> Input File <==

--------------------------------------------------------------------------
#psi4
#
memory 32 gb

molecule  {
0 1
  O       -2.8968130    -0.3474360    -0.2563530
  O       -0.5825960    -1.5131530     0.0834280
  N        0.6527505     0.3650517    -0.3557417
  C        1.9521820    -0.3066060    -0.1296730
  C       -1.7727371     0.5423318    -0.3464603
  C        2.3087340    -0.3110910     1.3526080
  C        3.0072020     0.3769410    -0.9846900
  C       -0.5092170    -0.3043550    -0.1811720
  C       -1.8991130     1.5929580     0.7362800
  H        1.8182130    -1.3395260    -0.4626630
  H        0.6508110     1.3528600    -0.4628320
  H       -1.7688680     0.9937940    -1.3356380
  H        2.4085440     0.7136460     1.7243230
  H        1.5276200    -0.8195050     1.9221530
  H        3.2560570    -0.8319740     1.5215790
  H        3.1304270     1.4235350    -0.6835410
  H        2.7315590     0.3479870    -2.0412990
  H        3.9738610    -0.1182480    -0.8633910
  H       -1.8420940     1.1254490     1.7220580
  H       -2.8670940     2.0889060     0.6442650
  H       -1.1140830     2.3514110     0.6543310
  H       -2.4990480    -1.2315890    -0.0938460
units angstrom
no_reorient  #important for SAPT in psi4, default
symmetry c1  #important for SAPT in psi4, default
}

set PROPERTIES_ORIGIN ["COM"]
properties('MP2/aug-cc-pvtz', properties = ['dipole'])
--------------------------------------------------------------------------

    Molecular point group: c1
  Charge       = 0
  Multiplicity = 1
  Basis Set: AUG-CC-PVTZ
    Blend: AUG-CC-PVTZ
  Basis Set: (AUG-CC-PVTZ AUX)
    Blend: AUG-CC-PVTZ-JKFIT

    Orbital Energies [Eh]
    ---------------------

    Doubly Occupied:

       1A    -20.544219     2A    -20.533893     3A    -15.594609
       4A    -11.359185     5A    -11.295668     6A    -11.279015
       7A    -11.232665     8A    -11.230848     9A    -11.223153
      10A     -1.394844    11A     -1.336443    12A     -1.247653
      13A     -1.073614    14A     -1.026145    15A     -0.950221
      16A     -0.895087    17A     -0.821076    18A     -0.799783
      19A     -0.732208    20A     -0.678022    21A     -0.648738
      22A     -0.633038    23A     -0.627725    24A     -0.598596
      25A     -0.579455    26A     -0.566993    27A     -0.555377
      28A     -0.547604    29A     -0.537055    30A     -0.529985
      31A     -0.510210    32A     -0.502792    33A     -0.491928
      34A     -0.446833    35A     -0.434492    36A     -0.403616

  @DF-RHF Final Energy:  -439.13628636438307

   => Energetics <=

    Nuclear Repulsion Energy =            484.9483289667484200
    One-Electron Energy =               -1560.4436527798864063
    Two-Electron Energy =                 636.3590374487548615
    Total Energy =                       -439.1362863643830678
  Basis Set: (AUG-CC-PVTZ AUX)
    Blend: AUG-CC-PVTZ-RI
    Molecular point group: c1

    Geometry (in Angstrom), charge = 0, multiplicity = 1:

       Center              X                  Y                   Z               Mass
    ------------   -----------------  -----------------  -----------------  -----------------
         O           -2.896902866276    -0.351541199516    -0.255425307833    15.994914619570
         O           -0.582685866276    -1.517258199516     0.084355692167    15.994914619570
         N            0.652660633724     0.360946500484    -0.354814007833    14.003074004430
         C            1.952092133724    -0.310711199516    -0.128745307833    12.000000000000
         C           -1.772826966276     0.538226600484    -0.345532607833    12.000000000000
         C            2.308644133724    -0.315196199516     1.353535692167    12.000000000000
         C            3.007112133724     0.372835800484    -0.983762307833    12.000000000000
         C           -0.509306866276    -0.308460199516    -0.180244307833    12.000000000000
         C           -1.899202866276     1.588852800484     0.737207692167    12.000000000000
         H            1.818123133724    -1.343631199516    -0.461735307833     1.007825032230
         H            0.650721133724     1.348754800484    -0.461904307833     1.007825032230
         H           -1.768957866276     0.989688800484    -1.334710307833     1.007825032230
         H            2.408454133724     0.709540800484     1.725250692167     1.007825032230
         H            1.527530133724    -0.823610199516     1.923080692167     1.007825032230
         H            3.255967133724    -0.836079199516     1.522506692167     1.007825032230
         H            3.130337133724     1.419429800484    -0.682613307833     1.007825032230
         H            2.731469133724     0.343881800484    -2.040371307833     1.007825032230
         H            3.973771133724    -0.122353199516    -0.862463307833     1.007825032230
         H           -1.842183866276     1.121343800484     1.722985692167     1.007825032230
         H           -2.867183866276     2.084800800484     0.645192692167     1.007825032230
         H           -1.114172866276     2.347305800484     0.655258692167     1.007825032230
         H           -2.499137866276    -1.235694199516    -0.092918307833     1.007825032230

  Basis Set: AUG-CC-PVTZ
    Blend: AUG-CC-PVTZ
  Basis Set: (AUG-CC-PVTZ AUX)
    Blend: AUG-CC-PVTZ-JKFIT
	 Reference Energy          =    -439.1362863643830678 [Eh]
	 Singles Energy            =      -0.0000000000000000 [Eh]
	 Same-Spin Energy          =      -0.4458968443694841 [Eh]
	 Opposite-Spin Energy      =      -1.4639542127278060 [Eh]
	 Correlation Energy        =      -1.9098510570972902 [Eh]
	 Total Energy              =    -441.0461374214803527 [Eh]

	 ================> DF-SCS-MP2 Energies <==================
	-----------------------------------------------------------
	 SCS Same-Spin Scale       =       0.3333333333333333 [-]
	 SCS Opposite-Spin Scale   =       1.2000000000000000 [-]
	 SCS Same-Spin Energy      =      -0.1486322814564947 [Eh]
	 SCS Opposite-Spin Energy  =      -1.7567450552733672 [Eh]
	 SCS Correlation Energy    =      -1.9053773367298619 [Eh]
	 SCS Total Energy          =    -441.0416637011129524 [Eh]
	-----------------------------------------------------------

  Dipole Moment: [D]
     X:     3.6841      Y:     2.9479      Z:    -0.2117     Total:     4.7230

*** Psi4 exiting successfully. Buy a developer a beer!
