                               Psi4 1.3.2 release

  ==> Input File <==

--------------------------------------------------------------------------
#psi4
#
memory 32 gb

molecule  {
0 1
  O       -2.8968130    -0.3474360    -0.2563530
  O       -0.5825960    -1.5131530     0.0834280
  N        0.6646380     0.3451110    -0.3514860
  C        1.9399817    -0.3281048    -0.1234848
  C       -1.7875910     0.5207530    -0.3412920
  C        2.3087340    -0.3110910     1.3526080
  C        3.0072020     0.3769410    -0.9846900
  C       -0.4973295    -0.3238184    -0.1750961
  C       -1.8991130     1.5929580     0.7362800
  H        1.8182130    -1.3395260    -0.4626630
  H        0.6508110     1.3528600    -0.4628320
  H       -1.7688680     0.9937940    -1.3356380
  H        2.4085440     0.7136460     1.7243230
  H        1.5276200    -0.8195050     1.9221530
  H        3.2560570    -0.8319740     1.5215790
  H        3.1304270     1.4235350    -0.6835410
  H        2.7315590     0.3479870    -2.0412990
  H        3.9738610    -0.1182480    -0.8633910
  H       -1.8420940     1.1254490     1.7220580
  H       -2.8670940     2.0889060     0.6442650
  H       -1.1140830     2.3514110     0.6543310
  H       -2.4990480    -1.2315890    -0.0938460
units angstrom
no_reorient  #important for SAPT in psi4, default
symmetry c1  #important for SAPT in psi4, default
}

set PROPERTIES_ORIGIN ["COM"]
properties('MP2/aug-cc-pvtz', properties = ['dipole'])
--------------------------------------------------------------------------

    Molecular point group: c1
  Charge       = 0
  Multiplicity = 1
  Basis Set: AUG-CC-PVTZ
    Blend: AUG-CC-PVTZ
  Basis Set: (AUG-CC-PVTZ AUX)
    Blend: AUG-CC-PVTZ-JKFIT

    Orbital Energies [Eh]
    ---------------------

    Doubly Occupied:

       1A    -20.547000     2A    -20.535357     3A    -15.594222
       4A    -11.356441     5A    -11.295912     6A    -11.276088
       7A    -11.232226     8A    -11.229384     9A    -11.222200
      10A     -1.406388    11A     -1.347501    12A     -1.249511
      13A     -1.068687    14A     -1.020985    15A     -0.948235
      16A     -0.890387    17A     -0.823274    18A     -0.796356
      19A     -0.734978    20A     -0.680636    21A     -0.649444
      22A     -0.636174    23A     -0.626720    24A     -0.599761
      25A     -0.580551    26A     -0.566210    27A     -0.555151
      28A     -0.547361    29A     -0.539910    30A     -0.531617
      31A     -0.514877    32A     -0.503475    33A     -0.493024
      34A     -0.444066    35A     -0.431360    36A     -0.402682

  @DF-RHF Final Energy:  -439.13834109019865

   => Energetics <=

    Nuclear Repulsion Energy =            485.4016085841707309
    One-Electron Energy =               -1561.3235995195441319
    Two-Electron Energy =                 636.7836498451746365
    Total Energy =                       -439.1383410901986508
  Basis Set: (AUG-CC-PVTZ AUX)
    Blend: AUG-CC-PVTZ-RI
    Molecular point group: c1

    Geometry (in Angstrom), charge = 0, multiplicity = 1:

       Center              X                  Y                   Z               Mass
    ------------   -----------------  -----------------  -----------------  -----------------
         O           -2.896784334664    -0.343686391822    -0.257475595361    15.994914619570
         O           -0.582567334664    -1.509403391822     0.082305404639    15.994914619570
         N            0.664666665336     0.348860608178    -0.352608595361    14.003074004430
         C            1.940010365336    -0.324355191822    -0.124607395361    12.000000000000
         C           -1.787562334664     0.524502608178    -0.342414595361    12.000000000000
         C            2.308762665336    -0.307341391822     1.351485404639    12.000000000000
         C            3.007230665336     0.380690608178    -0.985812595361    12.000000000000
         C           -0.497300834664    -0.320068791822    -0.176218695361    12.000000000000
         C           -1.899084334664     1.596707608178     0.735157404639    12.000000000000
         H            1.818241665336    -1.335776391822    -0.463785595361     1.007825032230
         H            0.650839665336     1.356609608178    -0.463954595361     1.007825032230
         H           -1.768839334664     0.997543608178    -1.336760595361     1.007825032230
         H            2.408572665336     0.717395608178     1.723200404639     1.007825032230
         H            1.527648665336    -0.815755391822     1.921030404639     1.007825032230
         H            3.256085665336    -0.828224391822     1.520456404639     1.007825032230
         H            3.130455665336     1.427284608178    -0.684663595361     1.007825032230
         H            2.731587665336     0.351736608178    -2.042421595361     1.007825032230
         H            3.973889665336    -0.114498391822    -0.864513595361     1.007825032230
         H           -1.842065334664     1.129198608178     1.720935404639     1.007825032230
         H           -2.867065334664     2.092655608178     0.643142404639     1.007825032230
         H           -1.114054334664     2.355160608178     0.653208404639     1.007825032230
         H           -2.499019334664    -1.227839391822    -0.094968595361     1.007825032230

  Basis Set: AUG-CC-PVTZ
    Blend: AUG-CC-PVTZ
  Basis Set: (AUG-CC-PVTZ AUX)
    Blend: AUG-CC-PVTZ-JKFIT
	 Reference Energy          =    -439.1383410901986508 [Eh]
	 Singles Energy            =      -0.0000000000000000 [Eh]
	 Same-Spin Energy          =      -0.4454384856017691 [Eh]
	 Opposite-Spin Energy      =      -1.4626293033246913 [Eh]
	 Correlation Energy        =      -1.9080677889264603 [Eh]
	 Total Energy              =    -441.0464088791251243 [Eh]

	 ================> DF-SCS-MP2 Energies <==================
	-----------------------------------------------------------
	 SCS Same-Spin Scale       =       0.3333333333333333 [-]
	 SCS Opposite-Spin Scale   =       1.2000000000000000 [-]
	 SCS Same-Spin Energy      =      -0.1484794952005897 [Eh]
	 SCS Opposite-Spin Energy  =      -1.7551551639896295 [Eh]
	 SCS Correlation Energy    =      -1.9036346591902191 [Eh]
	 SCS Total Energy          =    -441.0419757493888824 [Eh]
	-----------------------------------------------------------

  Dipole Moment: [D]
     X:     3.5828      Y:     2.8037      Z:    -0.1969     Total:     4.5537

*** Psi4 exiting successfully. Buy a developer a beer!
