                               Psi4 1.3.2 release

  ==> Input File <==

--------------------------------------------------------------------------
#psi4
#
memory 32 gb

molecule  {
0 1
  O       -2.8968130    -0.3474360    -0.2563530
  O       -0.5825960    -1.5131530     0.0834280
  N        0.6646380     0.3451110    -0.3514860
  C        1.8639962    -0.2619690    -0.1448653
  C       -1.7875910     0.5207530    -0.3412920
  C        2.3087340    -0.3110910     1.3526080
  C        3.0072020     0.3769410    -0.9846900
  C       -0.5092170    -0.3043550    -0.1811720
  C       -1.8991130     1.5929580     0.7362800
  H        1.8182130    -1.3395260    -0.4626630
  H        0.6508110     1.3528600    -0.4628320
  H       -1.7688680     0.9937940    -1.3356380
  H        2.4085440     0.7136460     1.7243230
  H        1.5276200    -0.8195050     1.9221530
  H        3.2560570    -0.8319740     1.5215790
  H        3.1304270     1.4235350    -0.6835410
  H        2.7315590     0.3479870    -2.0412990
  H        3.9738610    -0.1182480    -0.8633910
  H       -1.8420940     1.1254490     1.7220580
  H       -2.8670940     2.0889060     0.6442650
  H       -1.1140830     2.3514110     0.6543310
  H       -2.4990480    -1.2315890    -0.0938460
units angstrom
no_reorient  #important for SAPT in psi4, default
symmetry c1  #important for SAPT in psi4, default
}

set PROPERTIES_ORIGIN ["COM"]
properties('MP2/aug-cc-pvtz', properties = ['dipole'])
--------------------------------------------------------------------------

    Molecular point group: c1
  Charge       = 0
  Multiplicity = 1
  Basis Set: AUG-CC-PVTZ
    Blend: AUG-CC-PVTZ
  Basis Set: (AUG-CC-PVTZ AUX)
    Blend: AUG-CC-PVTZ-JKFIT

    Orbital Energies [Eh]
    ---------------------

    Doubly Occupied:

       1A    -20.550541     2A    -20.537706     3A    -15.600903
       4A    -11.363213     5A    -11.300677     6A    -11.274208
       7A    -11.233257     8A    -11.231175     9A    -11.219410
      10A     -1.403441    11A     -1.350038    12A     -1.272609
      13A     -1.066728    14A     -1.022269    15A     -0.941755
      16A     -0.904356    17A     -0.829230    18A     -0.805423
      19A     -0.739026    20A     -0.684048    21A     -0.654477
      22A     -0.639238    23A     -0.627072    24A     -0.595274
      25A     -0.583266    26A     -0.569867    27A     -0.557201
      28A     -0.549221    29A     -0.541138    30A     -0.532125
      31A     -0.519783    32A     -0.492199    33A     -0.475973
      34A     -0.447487    35A     -0.440218    36A     -0.395536

  @DF-RHF Final Energy:  -439.12693150154462

   => Energetics <=

    Nuclear Repulsion Energy =            486.5605958574823262
    One-Electron Energy =               -1563.4748810377950576
    Two-Electron Energy =                 637.7873536787679996
    Total Energy =                       -439.1269315015446182
  Basis Set: (AUG-CC-PVTZ AUX)
    Blend: AUG-CC-PVTZ-RI
    Molecular point group: c1

    Geometry (in Angstrom), charge = 0, multiplicity = 1:

       Center              X                  Y                   Z               Mass
    ------------   -----------------  -----------------  -----------------  -----------------
         O           -2.888740709911    -0.351521879900    -0.254962320764    15.994914619570
         O           -0.574523709911    -1.517238879900     0.084818679236    15.994914619570
         N            0.672710290089     0.341025120100    -0.350095320764    14.003074004430
         C            1.872068490089    -0.266054879900    -0.143474620764    12.000000000000
         C           -1.779518709911     0.516667120100    -0.339901320764    12.000000000000
         C            2.316806290089    -0.315176879900     1.353998679236    12.000000000000
         C            3.015274290089     0.372855120100    -0.983299320764    12.000000000000
         C           -0.501144709911    -0.308440879900    -0.179781320764    12.000000000000
         C           -1.891040709911     1.588872120100     0.737670679236    12.000000000000
         H            1.826285290089    -1.343611879900    -0.461272320764     1.007825032230
         H            0.658883290089     1.348774120100    -0.461441320764     1.007825032230
         H           -1.760795709911     0.989708120100    -1.334247320764     1.007825032230
         H            2.416616290089     0.709560120100     1.725713679236     1.007825032230
         H            1.535692290089    -0.823590879900     1.923543679236     1.007825032230
         H            3.264129290089    -0.836059879900     1.522969679236     1.007825032230
         H            3.138499290089     1.419449120100    -0.682150320764     1.007825032230
         H            2.739631290089     0.343901120100    -2.039908320764     1.007825032230
         H            3.981933290089    -0.122333879900    -0.862000320764     1.007825032230
         H           -1.834021709911     1.121363120100     1.723448679236     1.007825032230
         H           -2.859021709911     2.084820120100     0.645655679236     1.007825032230
         H           -1.106010709911     2.347325120100     0.655721679236     1.007825032230
         H           -2.490975709911    -1.235674879900    -0.092455320764     1.007825032230

  Basis Set: AUG-CC-PVTZ
    Blend: AUG-CC-PVTZ
  Basis Set: (AUG-CC-PVTZ AUX)
    Blend: AUG-CC-PVTZ-JKFIT
	 Reference Energy          =    -439.1269315015446182 [Eh]
	 Singles Energy            =      -0.0000000000000000 [Eh]
	 Same-Spin Energy          =      -0.4467165258733587 [Eh]
	 Opposite-Spin Energy      =      -1.4643266723055177 [Eh]
	 Correlation Energy        =      -1.9110431981788765 [Eh]
	 Total Energy              =    -441.0379746997235202 [Eh]

	 ================> DF-SCS-MP2 Energies <==================
	-----------------------------------------------------------
	 SCS Same-Spin Scale       =       0.3333333333333333 [-]
	 SCS Opposite-Spin Scale   =       1.2000000000000000 [-]
	 SCS Same-Spin Energy      =      -0.1489055086244529 [Eh]
	 SCS Opposite-Spin Energy  =      -1.7571920067666211 [Eh]
	 SCS Correlation Energy    =      -1.9060975153910740 [Eh]
	 SCS Total Energy          =    -441.0330290169356999 [Eh]
	-----------------------------------------------------------

  Dipole Moment: [D]
     X:     3.2243      Y:     2.9526      Z:    -0.2829     Total:     4.3811

*** Psi4 exiting successfully. Buy a developer a beer!
