                               Psi4 1.3.2 release

  ==> Input File <==

--------------------------------------------------------------------------
#psi4
#
memory 32 gb

molecule  {
0 1
  O       -2.8761935    -0.3638851    -0.1873429
  O       -0.5825960    -1.5131530     0.0834280
  N        0.6646380     0.3451110    -0.3514860
  C        1.9521820    -0.3066060    -0.1296730
  C       -1.7875910     0.5207530    -0.3412920
  C        2.3087340    -0.3110910     1.3526080
  C        3.0072020     0.3769410    -0.9846900
  C       -0.5092170    -0.3043550    -0.1811720
  C       -1.8991130     1.5929580     0.7362800
  H        1.8182130    -1.3395260    -0.4626630
  H        0.6508110     1.3528600    -0.4628320
  H       -1.7212095     1.0220252    -1.3196385
  H        2.4085440     0.7136460     1.7243230
  H        1.5276200    -0.8195050     1.9221530
  H        3.2560570    -0.8319740     1.5215790
  H        3.1304270     1.4235350    -0.6835410
  H        2.7315590     0.3479870    -2.0412990
  H        3.9738610    -0.1182480    -0.8633910
  H       -1.8420940     1.1254490     1.7220580
  H       -2.8670940     2.0889060     0.6442650
  H       -1.1140830     2.3514110     0.6543310
  H       -2.4990480    -1.2315890    -0.0938460
units angstrom
no_reorient  #important for SAPT in psi4, default
symmetry c1  #important for SAPT in psi4, default
}

set PROPERTIES_ORIGIN ["COM"]
properties('MP2/aug-cc-pvtz', properties = ['dipole'])
--------------------------------------------------------------------------

    Molecular point group: c1
  Charge       = 0
  Multiplicity = 1
  Basis Set: AUG-CC-PVTZ
    Blend: AUG-CC-PVTZ
  Basis Set: (AUG-CC-PVTZ AUX)
    Blend: AUG-CC-PVTZ-JKFIT

    Orbital Energies [Eh]
    ---------------------

    Doubly Occupied:

       1A    -20.546617     2A    -20.530820     3A    -15.594836
       4A    -11.356793     5A    -11.298929     6A    -11.276696
       7A    -11.231988     8A    -11.230053     9A    -11.221749
      10A     -1.398727    11A     -1.350090    12A     -1.247222
      13A     -1.072573    14A     -1.025421    15A     -0.949432
      16A     -0.895283    17A     -0.822693    18A     -0.794574
      19A     -0.737857    20A     -0.683914    21A     -0.653496
      22A     -0.632070    23A     -0.628155    24A     -0.596376
      25A     -0.581465    26A     -0.566664    27A     -0.554774
      28A     -0.547775    29A     -0.540240    30A     -0.529706
      31A     -0.511996    32A     -0.502195    33A     -0.490741
      34A     -0.447790    35A     -0.432674    36A     -0.400533

  @DF-RHF Final Energy:  -439.13738470982105

   => Energetics <=

    Nuclear Repulsion Energy =            485.9925970645642792
    One-Electron Energy =               -1562.4941282262525419
    Two-Electron Energy =                 637.3641464518672137
    Total Energy =                       -439.1373847098210490
  Basis Set: (AUG-CC-PVTZ AUX)
    Blend: AUG-CC-PVTZ-RI
    Molecular point group: c1

    Geometry (in Angstrom), charge = 0, multiplicity = 1:

       Center              X                  Y                   Z               Mass
    ------------   -----------------  -----------------  -----------------  -----------------
         O           -2.879075649357    -0.362095118716    -0.195885831067    15.994914619570
         O           -0.585478149357    -1.511363018716     0.074885068933    15.994914619570
         N            0.661755850643     0.346900981284    -0.360028931067    14.003074004430
         C            1.949299850643    -0.304816018716    -0.138215931067    12.000000000000
         C           -1.790473149357     0.522542981284    -0.349834931067    12.000000000000
         C            2.305851850643    -0.309301018716     1.344065068933    12.000000000000
         C            3.004319850643     0.378730981284    -0.993232931067    12.000000000000
         C           -0.512099149357    -0.302565018716    -0.189714931067    12.000000000000
         C           -1.901995149357     1.594747981284     0.727737068933    12.000000000000
         H            1.815330850643    -1.337736018716    -0.471205931067     1.007825032230
         H            0.647928850643     1.354649981284    -0.471374931067     1.007825032230
         H           -1.724091649357     1.023815181284    -1.328181431067     1.007825032230
         H            2.405661850643     0.715435981284     1.715780068933     1.007825032230
         H            1.524737850643    -0.817715018716     1.913610068933     1.007825032230
         H            3.253174850643    -0.830184018716     1.513036068933     1.007825032230
         H            3.127544850643     1.425324981284    -0.692083931067     1.007825032230
         H            2.728676850643     0.349776981284    -2.049841931067     1.007825032230
         H            3.970978850643    -0.116458018716    -0.871933931067     1.007825032230
         H           -1.844976149357     1.127238981284     1.713515068933     1.007825032230
         H           -2.869976149357     2.090695981284     0.635722068933     1.007825032230
         H           -1.116965149357     2.353200981284     0.645788068933     1.007825032230
         H           -2.501930149357    -1.229799018716    -0.102388931067     1.007825032230

  Basis Set: AUG-CC-PVTZ
    Blend: AUG-CC-PVTZ
  Basis Set: (AUG-CC-PVTZ AUX)
    Blend: AUG-CC-PVTZ-JKFIT
	 Reference Energy          =    -439.1373847098210490 [Eh]
	 Singles Energy            =      -0.0000000000000000 [Eh]
	 Same-Spin Energy          =      -0.4456620873279445 [Eh]
	 Opposite-Spin Energy      =      -1.4626857412619907 [Eh]
	 Correlation Energy        =      -1.9083478285899351 [Eh]
	 Total Energy              =    -441.0457325384109595 [Eh]

	 ================> DF-SCS-MP2 Energies <==================
	-----------------------------------------------------------
	 SCS Same-Spin Scale       =       0.3333333333333333 [-]
	 SCS Opposite-Spin Scale   =       1.2000000000000000 [-]
	 SCS Same-Spin Energy      =      -0.1485540291093148 [Eh]
	 SCS Opposite-Spin Energy  =      -1.7552228895143889 [Eh]
	 SCS Correlation Energy    =      -1.9037769186237037 [Eh]
	 SCS Total Energy          =    -441.0411616284447405 [Eh]
	-----------------------------------------------------------

  Dipole Moment: [D]
     X:     3.4969      Y:     2.9299      Z:    -0.3620     Total:     4.5764

*** Psi4 exiting successfully. Buy a developer a beer!
