                               Psi4 1.3.2 release

  ==> Input File <==

--------------------------------------------------------------------------
#psi4
#
memory 32 gb

molecule  {
0 1
  O       -2.8968130    -0.3474360    -0.2563530
  O       -0.6472496    -1.5075359     0.0832010
  N        0.6646380     0.3451110    -0.3514860
  C        1.9521820    -0.3066060    -0.1296730
  C       -1.8298109     0.4543857    -0.3261754
  C        2.3087340    -0.3110910     1.3526080
  C        3.0072020     0.3769410    -0.9846900
  C       -0.5092170    -0.3043550    -0.1811720
  C       -1.8991130     1.5929580     0.7362800
  H        1.8182130    -1.3395260    -0.4626630
  H        0.6508110     1.3528600    -0.4628320
  H       -1.7688680     0.9937940    -1.3356380
  H        2.4085440     0.7136460     1.7243230
  H        1.5276200    -0.8195050     1.9221530
  H        3.2560570    -0.8319740     1.5215790
  H        3.1304270     1.4235350    -0.6835410
  H        2.7315590     0.3479870    -2.0412990
  H        3.9738610    -0.1182480    -0.8633910
  H       -1.8420940     1.1254490     1.7220580
  H       -2.8670940     2.0889060     0.6442650
  H       -1.1140830     2.3514110     0.6543310
  H       -2.4990480    -1.2315890    -0.0938460
units angstrom
no_reorient  #important for SAPT in psi4, default
symmetry c1  #important for SAPT in psi4, default
}

set PROPERTIES_ORIGIN ["COM"]
properties('MP2/aug-cc-pvtz', properties = ['dipole'])
--------------------------------------------------------------------------

    Molecular point group: c1
  Charge       = 0
  Multiplicity = 1
  Basis Set: AUG-CC-PVTZ
    Blend: AUG-CC-PVTZ
  Basis Set: (AUG-CC-PVTZ AUX)
    Blend: AUG-CC-PVTZ-JKFIT

    Orbital Energies [Eh]
    ---------------------

    Doubly Occupied:

       1A    -20.552056     2A    -20.532387     3A    -15.598744
       4A    -11.357266     5A    -11.296431     6A    -11.279569
       7A    -11.233592     8A    -11.227080     9A    -11.223562
      10A     -1.411433    11A     -1.364226    12A     -1.250988
      13A     -1.070367    14A     -1.013914    15A     -0.951239
      16A     -0.890565    17A     -0.823574    18A     -0.796043
      19A     -0.749290    20A     -0.679850    21A     -0.650253
      22A     -0.633976    23A     -0.631423    24A     -0.599489
      25A     -0.591666    26A     -0.565829    27A     -0.556518
      28A     -0.546854    29A     -0.543584    30A     -0.531220
      31A     -0.511214    32A     -0.504235    33A     -0.493763
      34A     -0.431134    35A     -0.429080    36A     -0.402359

  @DF-RHF Final Energy:  -439.13077961097065

   => Energetics <=

    Nuclear Repulsion Energy =            485.7941765244880230
    One-Electron Energy =               -1562.0003686327593186
    Two-Electron Energy =                 637.0754124973007038
    Total Energy =                       -439.1307796109706487
  Basis Set: (AUG-CC-PVTZ AUX)
    Blend: AUG-CC-PVTZ-RI
    Molecular point group: c1

    Geometry (in Angstrom), charge = 0, multiplicity = 1:

       Center              X                  Y                   Z               Mass
    ------------   -----------------  -----------------  -----------------  -----------------
         O           -2.885059872513    -0.342046231830    -0.257709008085    15.994914619570
         O           -0.635496472513    -1.502146131830     0.081844991915    15.994914619570
         N            0.676391127487     0.350500768170    -0.352842008085    14.003074004430
         C            1.963935127487    -0.301216231830    -0.131029008085    12.000000000000
         C           -1.818057772513     0.459775468170    -0.327531408085    12.000000000000
         C            2.320487127487    -0.305701231830     1.351251991915    12.000000000000
         C            3.018955127487     0.382330768170    -0.986046008085    12.000000000000
         C           -0.497463872513    -0.298965231830    -0.182528008085    12.000000000000
         C           -1.887359872513     1.598347768170     0.734923991915    12.000000000000
         H            1.829966127487    -1.334136231830    -0.464019008085     1.007825032230
         H            0.662564127487     1.358249768170    -0.464188008085     1.007825032230
         H           -1.757114872513     0.999183768170    -1.336994008085     1.007825032230
         H            2.420297127487     0.719035768170     1.722966991915     1.007825032230
         H            1.539373127487    -0.814115231830     1.920796991915     1.007825032230
         H            3.267810127487    -0.826584231830     1.520222991915     1.007825032230
         H            3.142180127487     1.428924768170    -0.684897008085     1.007825032230
         H            2.743312127487     0.353376768170    -2.042655008085     1.007825032230
         H            3.985614127487    -0.112858231830    -0.864747008085     1.007825032230
         H           -1.830340872513     1.130838768170     1.720701991915     1.007825032230
         H           -2.855340872513     2.094295768170     0.642908991915     1.007825032230
         H           -1.102329872513     2.356800768170     0.652974991915     1.007825032230
         H           -2.487294872513    -1.226199231830    -0.095202008085     1.007825032230

  Basis Set: AUG-CC-PVTZ
    Blend: AUG-CC-PVTZ
  Basis Set: (AUG-CC-PVTZ AUX)
    Blend: AUG-CC-PVTZ-JKFIT
	 Reference Energy          =    -439.1307796109706487 [Eh]
	 Singles Energy            =      -0.0000000000000000 [Eh]
	 Same-Spin Energy          =      -0.4462015660567354 [Eh]
	 Opposite-Spin Energy      =      -1.4628077614183528 [Eh]
	 Correlation Energy        =      -1.9090093274750881 [Eh]
	 Total Energy              =    -441.0397889384457244 [Eh]

	 ================> DF-SCS-MP2 Energies <==================
	-----------------------------------------------------------
	 SCS Same-Spin Scale       =       0.3333333333333333 [-]
	 SCS Opposite-Spin Scale   =       1.2000000000000000 [-]
	 SCS Same-Spin Energy      =      -0.1487338553522451 [Eh]
	 SCS Opposite-Spin Energy  =      -1.7553693137020232 [Eh]
	 SCS Correlation Energy    =      -1.9041031690542682 [Eh]
	 SCS Total Energy          =    -441.0348827800249296 [Eh]
	-----------------------------------------------------------

  Dipole Moment: [D]
     X:     3.6298      Y:     2.6709      Z:    -0.2124     Total:     4.5116

*** Psi4 exiting successfully. Buy a developer a beer!
