                               Psi4 1.3.2 release

  ==> Input File <==

--------------------------------------------------------------------------
#psi4
#
memory 32 gb

molecule  {
0 1
  O       -2.8968130    -0.3474360    -0.2563530
  O       -0.5825960    -1.5131530     0.0834280
  N        0.6646380     0.3451110    -0.3514860
  C        1.9521820    -0.3066060    -0.1296730
  C       -1.7875910     0.5207530    -0.3412920
  C        2.3087340    -0.3110910     1.3526080
  C        3.0072020     0.3769410    -0.9846900
  C       -0.5016088    -0.2968860    -0.2056531
  C       -1.8991130     1.5929580     0.7362800
  H        1.8182130    -1.3395260    -0.4626630
  H        0.6508110     1.3528600    -0.4628320
  H       -1.7518602     0.9855224    -1.3390670
  H        2.4085440     0.7136460     1.7243230
  H        1.5276200    -0.8195050     1.9221530
  H        3.2560570    -0.8319740     1.5215790
  H        3.1304270     1.4235350    -0.6835410
  H        2.7315590     0.3479870    -2.0412990
  H        3.9738610    -0.1182480    -0.8633910
  H       -1.8420940     1.1254490     1.7220580
  H       -2.8670940     2.0889060     0.6442650
  H       -1.1140830     2.3514110     0.6543310
  H       -2.4990480    -1.2315890    -0.0938460
units angstrom
no_reorient  #important for SAPT in psi4, default
symmetry c1  #important for SAPT in psi4, default
}

set PROPERTIES_ORIGIN ["COM"]
properties('MP2/aug-cc-pvtz', properties = ['dipole'])
--------------------------------------------------------------------------

    Molecular point group: c1
  Charge       = 0
  Multiplicity = 1
  Basis Set: AUG-CC-PVTZ
    Blend: AUG-CC-PVTZ
  Basis Set: (AUG-CC-PVTZ AUX)
    Blend: AUG-CC-PVTZ-JKFIT

    Orbital Energies [Eh]
    ---------------------

    Doubly Occupied:

       1A    -20.547599     2A    -20.528836     3A    -15.598376
       4A    -11.357662     5A    -11.297596     6A    -11.278548
       7A    -11.233226     8A    -11.231148     9A    -11.222915
      10A     -1.391158    11A     -1.343419    12A     -1.250560
      13A     -1.074151    14A     -1.024307    15A     -0.950642
      16A     -0.896390    17A     -0.823944    18A     -0.797858
      19A     -0.734692    20A     -0.678455    21A     -0.650065
      22A     -0.630863    23A     -0.628686    24A     -0.596504
      25A     -0.581139    26A     -0.567284    27A     -0.555902
      28A     -0.549112    29A     -0.539507    30A     -0.529477
      31A     -0.510063    32A     -0.502204    33A     -0.491681
      34A     -0.445040    35A     -0.432387    36A     -0.401908

  @DF-RHF Final Energy:  -439.13637023152137

   => Energetics <=

    Nuclear Repulsion Energy =            485.2573382942096032
    One-Electron Energy =               -1561.0408066093223169
    Two-Electron Energy =                 636.6470980835913451
    Total Energy =                       -439.1363702315213686
  Basis Set: (AUG-CC-PVTZ AUX)
    Blend: AUG-CC-PVTZ-RI
    Molecular point group: c1

    Geometry (in Angstrom), charge = 0, multiplicity = 1:

       Center              X                  Y                   Z               Mass
    ------------   -----------------  -----------------  -----------------  -----------------
         O           -2.897640150708    -0.348056045105    -0.254085691163    15.994914619570
         O           -0.583423150708    -1.513773045105     0.085695308837    15.994914619570
         N            0.663810849292     0.344490954895    -0.349218691163    14.003074004430
         C            1.951354849292    -0.307226045105    -0.127405691163    12.000000000000
         C           -1.788418150708     0.520132954895    -0.339024691163    12.000000000000
         C            2.307906849292    -0.311711045105     1.354875308837    12.000000000000
         C            3.006374849292     0.376320954895    -0.982422691163    12.000000000000
         C           -0.502435950708    -0.297506045105    -0.203385791163    12.000000000000
         C           -1.899940150708     1.592337954895     0.738547308837    12.000000000000
         H            1.817385849292    -1.340146045105    -0.460395691163     1.007825032230
         H            0.649983849292     1.352239954895    -0.460564691163     1.007825032230
         H           -1.752687350708     0.984902354895    -1.336799691163     1.007825032230
         H            2.407716849292     0.713025954895     1.726590308837     1.007825032230
         H            1.526792849292    -0.820125045105     1.924420308837     1.007825032230
         H            3.255229849292    -0.832594045105     1.523846308837     1.007825032230
         H            3.129599849292     1.422914954895    -0.681273691163     1.007825032230
         H            2.730731849292     0.347366954895    -2.039031691163     1.007825032230
         H            3.973033849292    -0.118868045105    -0.861123691163     1.007825032230
         H           -1.842921150708     1.124828954895     1.724325308837     1.007825032230
         H           -2.867921150708     2.088285954895     0.646532308837     1.007825032230
         H           -1.114910150708     2.350790954895     0.656598308837     1.007825032230
         H           -2.499875150708    -1.232209045105    -0.091578691163     1.007825032230

  Basis Set: AUG-CC-PVTZ
    Blend: AUG-CC-PVTZ
  Basis Set: (AUG-CC-PVTZ AUX)
    Blend: AUG-CC-PVTZ-JKFIT
	 Reference Energy          =    -439.1363702315213686 [Eh]
	 Singles Energy            =      -0.0000000000000000 [Eh]
	 Same-Spin Energy          =      -0.4462591855766387 [Eh]
	 Opposite-Spin Energy      =      -1.4640540709427956 [Eh]
	 Correlation Energy        =      -1.9103132565194343 [Eh]
	 Total Energy              =    -441.0466834880407987 [Eh]

	 ================> DF-SCS-MP2 Energies <==================
	-----------------------------------------------------------
	 SCS Same-Spin Scale       =       0.3333333333333333 [-]
	 SCS Opposite-Spin Scale   =       1.2000000000000000 [-]
	 SCS Same-Spin Energy      =      -0.1487530618588795 [Eh]
	 SCS Opposite-Spin Energy  =      -1.7568648851313546 [Eh]
	 SCS Correlation Energy    =      -1.9056179469902341 [Eh]
	 SCS Total Energy          =    -441.0419881785115876 [Eh]
	-----------------------------------------------------------

  Dipole Moment: [D]
     X:     3.6688      Y:     2.9934      Z:    -0.2464     Total:     4.7415

*** Psi4 exiting successfully. Buy a developer a beer!
