                               Psi4 1.3.2 release

  ==> Input File <==

--------------------------------------------------------------------------
#psi4
#
memory 32 gb

molecule  {
0 1
  O       -2.8968130    -0.3474360    -0.2563530
  O       -0.5825960    -1.5131530     0.0834280
  N        0.6646380     0.3451110    -0.3514860
  C        1.9521820    -0.3066060    -0.1296730
  C       -1.7875910     0.5207530    -0.3412920
  C        2.3087340    -0.3110910     1.3526080
  C        3.0072020     0.3769410    -0.9846900
  C       -0.3421015    -0.4122173    -0.1602403
  C       -1.8991130     1.5929580     0.7362800
  H        1.8182130    -1.3395260    -0.4626630
  H        0.6508110     1.3528600    -0.4628320
  H       -1.7688680     0.9937940    -1.3356380
  H        2.4085440     0.7136460     1.7243230
  H        1.5276200    -0.8195050     1.9221530
  H        3.2560570    -0.8319740     1.5215790
  H        3.1304270     1.4235350    -0.6835410
  H        2.7315590     0.3479870    -2.0412990
  H        3.9738610    -0.1182480    -0.8633910
  H       -1.8420940     1.1254490     1.7220580
  H       -2.8670940     2.0889060     0.6442650
  H       -1.1140830     2.3514110     0.6543310
  H       -2.4990480    -1.2315890    -0.0938460
units angstrom
no_reorient  #important for SAPT in psi4, default
symmetry c1  #important for SAPT in psi4, default
}

set PROPERTIES_ORIGIN ["COM"]
properties('MP2/aug-cc-pvtz', properties = ['dipole'])
--------------------------------------------------------------------------

    Molecular point group: c1
  Charge       = 0
  Multiplicity = 1
  Basis Set: AUG-CC-PVTZ
    Blend: AUG-CC-PVTZ
  Basis Set: (AUG-CC-PVTZ AUX)
    Blend: AUG-CC-PVTZ-JKFIT

    Orbital Energies [Eh]
    ---------------------

    Doubly Occupied:

       1A    -20.540912     2A    -20.537502     3A    -15.602458
       4A    -11.349888     5A    -11.281639     6A    -11.277743
       7A    -11.236926     8A    -11.228858     9A    -11.216729
      10A     -1.444755    11A     -1.338892    12A     -1.288730
      13A     -1.074864    14A     -1.003093    15A     -0.956660
      16A     -0.868783    17A     -0.832436    18A     -0.809648
      19A     -0.717955    20A     -0.689832    21A     -0.655732
      22A     -0.644507    23A     -0.629864    24A     -0.617691
      25A     -0.575635    26A     -0.562349    27A     -0.557842
      28A     -0.552317    29A     -0.548560    30A     -0.523830
      31A     -0.521224    32A     -0.513301    33A     -0.500158
      34A     -0.434917    35A     -0.416839    36A     -0.379059

  @DF-RHF Final Energy:  -439.10082231283195

   => Energetics <=

    Nuclear Repulsion Energy =            486.2442941414186635
    One-Electron Energy =               -1562.8259778056740288
    Two-Electron Energy =                 637.4808613514233002
    Total Energy =                       -439.1008223128319514
  Basis Set: (AUG-CC-PVTZ AUX)
    Blend: AUG-CC-PVTZ-RI
    Molecular point group: c1

    Geometry (in Angstrom), charge = 0, multiplicity = 1:

       Center              X                  Y                   Z               Mass
    ------------   -----------------  -----------------  -----------------  -----------------
         O           -2.912110207436    -0.337562561973    -0.258269000865    15.994914619570
         O           -0.597893207436    -1.503279561973     0.081511999135    15.994914619570
         N            0.649340792564     0.354984438027    -0.353402000865    14.003074004430
         C            1.936884792564    -0.296732561973    -0.131589000865    12.000000000000
         C           -1.802888207436     0.530626438027    -0.343208000865    12.000000000000
         C            2.293436792564    -0.301217561973     1.350691999135    12.000000000000
         C            2.991904792564     0.386814438027    -0.986606000865    12.000000000000
         C           -0.357398707436    -0.402343861973    -0.162156300865    12.000000000000
         C           -1.914410207436     1.602831438027     0.734363999135    12.000000000000
         H            1.802915792564    -1.329652561973    -0.464579000865     1.007825032230
         H            0.635513792564     1.362733438027    -0.464748000865     1.007825032230
         H           -1.784165207436     1.003667438027    -1.337554000865     1.007825032230
         H            2.393246792564     0.723519438027     1.722406999135     1.007825032230
         H            1.512322792564    -0.809631561973     1.920236999135     1.007825032230
         H            3.240759792564    -0.822100561973     1.519662999135     1.007825032230
         H            3.115129792564     1.433408438027    -0.685457000865     1.007825032230
         H            2.716261792564     0.357860438027    -2.043215000865     1.007825032230
         H            3.958563792564    -0.108374561973    -0.865307000865     1.007825032230
         H           -1.857391207436     1.135322438027     1.720141999135     1.007825032230
         H           -2.882391207436     2.098779438027     0.642348999135     1.007825032230
         H           -1.129380207436     2.361284438027     0.652414999135     1.007825032230
         H           -2.514345207436    -1.221715561973    -0.095762000865     1.007825032230

  Basis Set: AUG-CC-PVTZ
    Blend: AUG-CC-PVTZ
  Basis Set: (AUG-CC-PVTZ AUX)
    Blend: AUG-CC-PVTZ-JKFIT
	 Reference Energy          =    -439.1008223128319514 [Eh]
	 Singles Energy            =      -0.0000000000000000 [Eh]
	 Same-Spin Energy          =      -0.4454798747141919 [Eh]
	 Opposite-Spin Energy      =      -1.4621596123542693 [Eh]
	 Correlation Energy        =      -1.9076394870684612 [Eh]
	 Total Energy              =    -441.0084617999004308 [Eh]

	 ================> DF-SCS-MP2 Energies <==================
	-----------------------------------------------------------
	 SCS Same-Spin Scale       =       0.3333333333333333 [-]
	 SCS Opposite-Spin Scale   =       1.2000000000000000 [-]
	 SCS Same-Spin Energy      =      -0.1484932915713973 [Eh]
	 SCS Opposite-Spin Energy  =      -1.7545915348251231 [Eh]
	 SCS Correlation Energy    =      -1.9030848263965203 [Eh]
	 SCS Total Energy          =    -441.0039071392284882 [Eh]
	-----------------------------------------------------------

  Dipole Moment: [D]
     X:     4.5071      Y:     2.3752      Z:    -0.1887     Total:     5.0982

*** Psi4 exiting successfully. Buy a developer a beer!
