                               Psi4 1.4a3.dev225

  ==> Input File <==

--------------------------------------------------------------------------
#psi4
#
memory 32 gb

molecule  {
0 1
  O       -1.7446660    -1.3796590    -0.7880960
  O       -0.4296620     1.7569970     0.2600660
  N        0.4723820    -0.3330750    -0.0012650
  C        1.8394770     0.0732600     0.3013020
  C       -1.9099390    -0.0103690    -0.3967440
  C        2.4958720     0.7244850    -0.9128940
  C        2.6145980    -1.1365250     0.8043010
  C       -0.5442740     0.5588710    -0.0269710
  C       -2.8921426     0.1408336     0.8203100
  H        1.7638430     0.8203410     1.0982830
  H        0.2750420    -1.2730860    -0.3263580
  H       -2.2722210     0.5864250    -1.2458220
  H        2.5570320     0.0100450    -1.7401110
  H        1.9072700     1.5874400    -1.2316560
  H        3.5085800     1.0627310    -0.6705710
  H        2.6773940    -1.9046250     0.0252330
  H        2.1327900    -1.5715010     1.6841320
  H        3.6348850    -0.8497170     1.0733550
  H       -2.5011890    -0.4705790     1.6169940
  H       -3.8694610    -0.1962540     0.5126420
  H       -2.9055320     1.1820880     1.0905810
  H       -2.6295620    -1.7449530    -0.9570530
units angstrom
no_reorient  #important for SAPT in psi4, default
symmetry c1  #important for SAPT in psi4, default
}

set PROPERTIES_ORIGIN ["COM"]
properties('MP2/aug-cc-pvtz', properties = ['dipole'])
--------------------------------------------------------------------------

    Molecular point group: c1
  Charge       = 0
  Multiplicity = 1
  Basis Set: AUG-CC-PVTZ
    Blend: AUG-CC-PVTZ
  Basis Set: (AUG-CC-PVTZ AUX)
    Blend: AUG-CC-PVTZ-JKFIT

    Orbital Energies [Eh]
    ---------------------

    Doubly Occupied:

       1A    -20.581270     2A    -20.508982     3A    -15.575381
       4A    -11.342639     5A    -11.302657     6A    -11.263833
       7A    -11.227947     8A    -11.221270     9A    -11.209168
      10A     -1.387041    11A     -1.358393    12A     -1.227608
      13A     -1.055651    14A     -1.022675    15A     -0.937050
      16A     -0.900033    17A     -0.813787    18A     -0.777560
      19A     -0.710986    20A     -0.688958    21A     -0.643198
      22A     -0.637404    23A     -0.614142    24A     -0.595198
      25A     -0.579293    26A     -0.563052    27A     -0.556792
      28A     -0.542358    29A     -0.530423    30A     -0.521011
      31A     -0.517039    32A     -0.490930    33A     -0.479435
      34A     -0.453303    35A     -0.413368    36A     -0.382393

  @DF-RHF Final Energy:  -439.13624347079303

   => Energetics <=

    Nuclear Repulsion Energy =            485.0472463943042385
    One-Electron Energy =               -1561.1025205906134943
    Two-Electron Energy =                 636.9190307255162224
    Total Energy =                       -439.1362434707930333
  Basis Set: (AUG-CC-PVTZ AUX)
    Blend: AUG-CC-PVTZ-RI
    Molecular point group: c1

    Geometry (in Angstrom), charge = 0, multiplicity = 1:

       Center              X                  Y                   Z               Mass
    ------------   -----------------  -----------------  -----------------  -----------------
         O           -1.709516272249    -1.400978160717    -0.784625704333    15.994914619570
         O           -0.394512272249     1.735677839283     0.263536295667    15.994914619570
         N            0.507531727751    -0.354394160717     0.002205295667    14.003074004430
         C            1.874626727751     0.051940839283     0.304772295667    12.000000000000
         C           -1.874789272249    -0.031688160717    -0.393273704333    12.000000000000
         C            2.531021727751     0.703165839283    -0.909423704333    12.000000000000
         C            2.649747727751    -1.157844160717     0.807771295667    12.000000000000
         C           -0.509124272249     0.537551839283    -0.023500704333    12.000000000000
         C           -2.856992872249     0.119514439283     0.823780295667    12.000000000000
         H            1.798992727751     0.799021839283     1.101753295667     1.007825032230
         H            0.310191727751    -1.294405160717    -0.322887704333     1.007825032230
         H           -2.237071272249     0.565105839283    -1.242351704333     1.007825032230
         H            2.592181727751    -0.011274160717    -1.736640704333     1.007825032230
         H            1.942419727751     1.566120839283    -1.228185704333     1.007825032230
         H            3.543729727751     1.041411839283    -0.667100704333     1.007825032230
         H            2.712543727751    -1.925944160717     0.028703295667     1.007825032230
         H            2.167939727751    -1.592820160717     1.687602295667     1.007825032230
         H            3.670034727751    -0.871036160717     1.076825295667     1.007825032230
         H           -2.466039272249    -0.491898160717     1.620464295667     1.007825032230
         H           -3.834311272249    -0.217573160717     0.516112295667     1.007825032230
         H           -2.870382272249     1.160768839283     1.094051295667     1.007825032230
         H           -2.594412272249    -1.766272160717    -0.953582704333     1.007825032230

  Basis Set: AUG-CC-PVTZ
    Blend: AUG-CC-PVTZ
  Basis Set: (AUG-CC-PVTZ AUX)
    Blend: AUG-CC-PVTZ-JKFIT
	 Reference Energy          =    -439.1362434707930333 [Eh]
	 Singles Energy            =      -0.0000000000000000 [Eh]
	 Same-Spin Energy          =      -0.4452560266803574 [Eh]
	 Opposite-Spin Energy      =      -1.4633601606584408 [Eh]
	 Correlation Energy        =      -1.9086161873387981 [Eh]
	 Total Energy              =    -441.0448596581318270 [Eh]

	 ================> DF-SCS-MP2 Energies <==================
	-----------------------------------------------------------
	 SCS Same-Spin Scale       =       0.3333333333333333 [-]
	 SCS Opposite-Spin Scale   =       1.2000000000000000 [-]
	 SCS Same-Spin Energy      =      -0.1484186755601191 [Eh]
	 SCS Opposite-Spin Energy  =      -1.7560321927901288 [Eh]
	 SCS Correlation Energy    =      -1.9044508683502479 [Eh]
	 SCS Total Energy          =    -441.0406943391432719 [Eh]
	-----------------------------------------------------------

  Dipole Moment: [D]
     X:    -0.6719      Y:    -2.9004      Z:    -0.4873     Total:     3.0168

*** Psi4 exiting successfully. Buy a developer a beer!
