                               Psi4 1.3.2 release

  ==> Input File <==

--------------------------------------------------------------------------
#psi4
#
memory 32 gb

molecule  {
0 1
  O       -2.8968130    -0.3474360    -0.2563530
  O       -0.5825960    -1.5131530     0.0834280
  N        0.6657695     0.3429648    -0.3639940
  C        1.9521820    -0.3066060    -0.1296730
  C       -1.7875910     0.5207530    -0.3412920
  C        2.3200891    -0.3174290     1.3497977
  C        3.0072020     0.3769410    -0.9846900
  C       -0.5092170    -0.3043550    -0.1811720
  C       -1.8991130     1.5929580     0.7362800
  H        1.8182130    -1.3395260    -0.4626630
  H        0.6508110     1.3528600    -0.4628320
  H       -1.7688680     0.9937940    -1.3356380
  H        2.4085440     0.7136460     1.7243230
  H        1.5276200    -0.8195050     1.9221530
  H        3.2560570    -0.8319740     1.5215790
  H        3.1304270     1.4235350    -0.6835410
  H        2.7315590     0.3479870    -2.0412990
  H        3.9738610    -0.1182480    -0.8633910
  H       -1.8420940     1.1254490     1.7220580
  H       -2.8670940     2.0889060     0.6442650
  H       -1.1140830     2.3514110     0.6543310
  H       -2.4990480    -1.2315890    -0.0938460
units angstrom
no_reorient  #important for SAPT in psi4, default
symmetry c1  #important for SAPT in psi4, default
}

set PROPERTIES_ORIGIN ["COM"]
properties('MP2/aug-cc-pvtz', properties = ['dipole'])
--------------------------------------------------------------------------

    Molecular point group: c1
  Charge       = 0
  Multiplicity = 1
  Basis Set: AUG-CC-PVTZ
    Blend: AUG-CC-PVTZ
  Basis Set: (AUG-CC-PVTZ AUX)
    Blend: AUG-CC-PVTZ-JKFIT

    Orbital Energies [Eh]
    ---------------------

    Doubly Occupied:

       1A    -20.547986     2A    -20.533025     3A    -15.596062
       4A    -11.358692     5A    -11.297533     6A    -11.277065
       7A    -11.231783     8A    -11.230960     9A    -11.222536
      10A     -1.397434    11A     -1.345952    12A     -1.247695
      13A     -1.072165    14A     -1.024102    15A     -0.949550
      16A     -0.895217    17A     -0.822333    18A     -0.794366
      19A     -0.736595    20A     -0.678863    21A     -0.649399
      22A     -0.632608    23A     -0.628754    24A     -0.596742
      25A     -0.581608    26A     -0.567644    27A     -0.554185
      28A     -0.549951    29A     -0.539515    30A     -0.531188
      31A     -0.512792    32A     -0.501443    33A     -0.490239
      34A     -0.445064    35A     -0.434792    36A     -0.402010

  @DF-RHF Final Energy:  -439.13754090805492

   => Energetics <=

    Nuclear Repulsion Energy =            485.1567978798595959
    One-Electron Energy =               -1560.8329848931514334
    Two-Electron Energy =                 636.5386461052369214
    Total Energy =                       -439.1375409080549161
  Basis Set: (AUG-CC-PVTZ AUX)
    Blend: AUG-CC-PVTZ-RI
    Molecular point group: c1

    Geometry (in Angstrom), charge = 0, multiplicity = 1:

       Center              X                  Y                   Z               Mass
    ------------   -----------------  -----------------  -----------------  -----------------
         O           -2.897973241332    -0.346626535187    -0.254759669824    15.994914619570
         O           -0.583756241332    -1.512343535187     0.085021330176    15.994914619570
         N            0.664609258668     0.343774264813    -0.362400669824    14.003074004430
         C            1.951021758668    -0.305796535187    -0.128079669824    12.000000000000
         C           -1.788751241332     0.521562464813    -0.339698669824    12.000000000000
         C            2.318928858668    -0.316619535187     1.351391030176    12.000000000000
         C            3.006041758668     0.377750464813    -0.983096669824    12.000000000000
         C           -0.510377241332    -0.303545535187    -0.179578669824    12.000000000000
         C           -1.900273241332     1.593767464813     0.737873330176    12.000000000000
         H            1.817052758668    -1.338716535187    -0.461069669824     1.007825032230
         H            0.649650758668     1.353669464813    -0.461238669824     1.007825032230
         H           -1.770028241332     0.994603464813    -1.334044669824     1.007825032230
         H            2.407383758668     0.714455464813     1.725916330176     1.007825032230
         H            1.526459758668    -0.818695535187     1.923746330176     1.007825032230
         H            3.254896758668    -0.831164535187     1.523172330176     1.007825032230
         H            3.129266758668     1.424344464813    -0.681947669824     1.007825032230
         H            2.730398758668     0.348796464813    -2.039705669824     1.007825032230
         H            3.972700758668    -0.117438535187    -0.861797669824     1.007825032230
         H           -1.843254241332     1.126258464813     1.723651330176     1.007825032230
         H           -2.868254241332     2.089715464813     0.645858330176     1.007825032230
         H           -1.115243241332     2.352220464813     0.655924330176     1.007825032230
         H           -2.500208241332    -1.230779535187    -0.092252669824     1.007825032230

  Basis Set: AUG-CC-PVTZ
    Blend: AUG-CC-PVTZ
  Basis Set: (AUG-CC-PVTZ AUX)
    Blend: AUG-CC-PVTZ-JKFIT
	 Reference Energy          =    -439.1375409080549161 [Eh]
	 Singles Energy            =      -0.0000000000000000 [Eh]
	 Same-Spin Energy          =      -0.4460246696146249 [Eh]
	 Opposite-Spin Energy      =      -1.4636711370043032 [Eh]
	 Correlation Energy        =      -1.9096958066189280 [Eh]
	 Total Energy              =    -441.0472367146738293 [Eh]

	 ================> DF-SCS-MP2 Energies <==================
	-----------------------------------------------------------
	 SCS Same-Spin Scale       =       0.3333333333333333 [-]
	 SCS Opposite-Spin Scale   =       1.2000000000000000 [-]
	 SCS Same-Spin Energy      =      -0.1486748898715416 [Eh]
	 SCS Opposite-Spin Energy  =      -1.7564053644051638 [Eh]
	 SCS Correlation Energy    =      -1.9050802542767054 [Eh]
	 SCS Total Energy          =    -441.0426211623316135 [Eh]
	-----------------------------------------------------------

  Dipole Moment: [D]
     X:     3.5561      Y:     2.9042      Z:    -0.1963     Total:     4.5955

*** Psi4 exiting successfully. Buy a developer a beer!
