                               Psi4 1.3.2 release

  ==> Input File <==

--------------------------------------------------------------------------
#psi4
#
memory 32 gb

molecule  {
0 1
  O       -2.9030131    -0.3414217    -0.2794175
  O       -0.5825960    -1.5131530     0.0834280
  N        0.6646380     0.3451110    -0.3514860
  C        1.9521820    -0.3066060    -0.1296730
  C       -1.7875910     0.5207530    -0.3412920
  C        2.3087340    -0.3110910     1.3526080
  C        3.0072020     0.3769410    -0.9846900
  C       -0.5092170    -0.3043550    -0.1811720
  C       -1.8991130     1.5929580     0.7362800
  H        1.8182130    -1.3395260    -0.4626630
  H        0.6508110     1.3528600    -0.4628320
  H       -1.7847720     0.9840915    -1.3403675
  H        2.4085440     0.7136460     1.7243230
  H        1.5276200    -0.8195050     1.9221530
  H        3.2560570    -0.8319740     1.5215790
  H        3.1304270     1.4235350    -0.6835410
  H        2.7315590     0.3479870    -2.0412990
  H        3.9738610    -0.1182480    -0.8633910
  H       -1.8420940     1.1254490     1.7220580
  H       -2.8670940     2.0889060     0.6442650
  H       -1.1140830     2.3514110     0.6543310
  H       -2.4990480    -1.2315890    -0.0938460
units angstrom
no_reorient  #important for SAPT in psi4, default
symmetry c1  #important for SAPT in psi4, default
}

set PROPERTIES_ORIGIN ["COM"]
properties('MP2/aug-cc-pvtz', properties = ['dipole'])
--------------------------------------------------------------------------

    Molecular point group: c1
  Charge       = 0
  Multiplicity = 1
  Basis Set: AUG-CC-PVTZ
    Blend: AUG-CC-PVTZ
  Basis Set: (AUG-CC-PVTZ AUX)
    Blend: AUG-CC-PVTZ-JKFIT

    Orbital Energies [Eh]
    ---------------------

    Doubly Occupied:

       1A    -20.548315     2A    -20.533030     3A    -15.596001
       4A    -11.358751     5A    -11.296803     6A    -11.277396
       7A    -11.232429     8A    -11.230995     9A    -11.222409
      10A     -1.396861    11A     -1.344220    12A     -1.248219
      13A     -1.072154    14A     -1.023334    15A     -0.949994
      16A     -0.894878    17A     -0.822231    18A     -0.795068
      19A     -0.736086    20A     -0.677607    21A     -0.647933
      22A     -0.632317    23A     -0.628972    24A     -0.597318
      25A     -0.581665    26A     -0.567698    27A     -0.555221
      28A     -0.548239    29A     -0.538998    30A     -0.530129
      31A     -0.512397    32A     -0.502953    33A     -0.491746
      34A     -0.443938    35A     -0.434858    36A     -0.401716

  @DF-RHF Final Energy:  -439.13681728586079

   => Energetics <=

    Nuclear Repulsion Energy =            485.0839144901941609
    One-Electron Energy =               -1560.6956986455477363
    Two-Electron Energy =                 636.4749668694929596
    Total Energy =                       -439.1368172858607295
  Basis Set: (AUG-CC-PVTZ AUX)
    Blend: AUG-CC-PVTZ-RI
    Molecular point group: c1

    Geometry (in Angstrom), charge = 0, multiplicity = 1:

       Center              X                  Y                   Z               Mass
    ------------   -----------------  -----------------  -----------------  -----------------
         O           -2.902134324170    -0.342080862788    -0.276567007965    15.994914619570
         O           -0.581717224170    -1.513812162788     0.086278492035    15.994914619570
         N            0.665516775830     0.344451837212    -0.348635507965    14.003074004430
         C            1.953060775830    -0.307265162788    -0.126822507965    12.000000000000
         C           -1.786712224170     0.520093837212    -0.338441507965    12.000000000000
         C            2.309612775830    -0.311750162788     1.355458492035    12.000000000000
         C            3.008080775830     0.376281837212    -0.981839507965    12.000000000000
         C           -0.508338224170    -0.305014162788    -0.178321507965    12.000000000000
         C           -1.898234224170     1.592298837212     0.739130492035    12.000000000000
         H            1.819091775830    -1.340185162788    -0.459812507965     1.007825032230
         H            0.651689775830     1.352200837212    -0.459981507965     1.007825032230
         H           -1.783893224170     0.983432337212    -1.337517007965     1.007825032230
         H            2.409422775830     0.712986837212     1.727173492035     1.007825032230
         H            1.528498775830    -0.820164162788     1.925003492035     1.007825032230
         H            3.256935775830    -0.832633162788     1.524429492035     1.007825032230
         H            3.131305775830     1.422875837212    -0.680690507965     1.007825032230
         H            2.732437775830     0.347327837212    -2.038448507965     1.007825032230
         H            3.974739775830    -0.118907162788    -0.860540507965     1.007825032230
         H           -1.841215224170     1.124789837212     1.724908492035     1.007825032230
         H           -2.866215224170     2.088246837212     0.647115492035     1.007825032230
         H           -1.113204224170     2.350751837212     0.657181492035     1.007825032230
         H           -2.498169224170    -1.232248162788    -0.090995507965     1.007825032230

  Basis Set: AUG-CC-PVTZ
    Blend: AUG-CC-PVTZ
  Basis Set: (AUG-CC-PVTZ AUX)
    Blend: AUG-CC-PVTZ-JKFIT
	 Reference Energy          =    -439.1368172858607863 [Eh]
	 Singles Energy            =      -0.0000000000000000 [Eh]
	 Same-Spin Energy          =      -0.4462018361182531 [Eh]
	 Opposite-Spin Energy      =      -1.4640656250045014 [Eh]
	 Correlation Energy        =      -1.9102674611227546 [Eh]
	 Total Energy              =    -441.0470847469835576 [Eh]

	 ================> DF-SCS-MP2 Energies <==================
	-----------------------------------------------------------
	 SCS Same-Spin Scale       =       0.3333333333333333 [-]
	 SCS Opposite-Spin Scale   =       1.2000000000000000 [-]
	 SCS Same-Spin Energy      =      -0.1487339453727510 [Eh]
	 SCS Opposite-Spin Energy  =      -1.7568787500054017 [Eh]
	 SCS Correlation Energy    =      -1.9056126953781527 [Eh]
	 SCS Total Energy          =    -441.0424299812389108 [Eh]
	-----------------------------------------------------------

  Dipole Moment: [D]
     X:     3.6006      Y:     2.9106      Z:    -0.1795     Total:     4.6334

*** Psi4 exiting successfully. Buy a developer a beer!
