                               Psi4 1.3.2 release

  ==> Input File <==

--------------------------------------------------------------------------
#psi4
#
memory 32 gb

molecule  {
0 1
  O       -2.8968130    -0.3474360    -0.2563530
  O       -0.5825960    -1.5131530     0.0834280
  N        0.6646380     0.3451110    -0.3514860
  C        1.9521820    -0.3066060    -0.1296730
  C       -1.7875910     0.5207530    -0.3412920
  C        2.3087340    -0.3110910     1.3526080
  C        3.0072020     0.3769410    -0.9846900
  C       -0.5092170    -0.3043550    -0.1811720
  C       -1.8990002     1.5834944     0.7456261
  H        1.8182130    -1.3395260    -0.4626630
  H        0.6508110     1.3528600    -0.4628320
  H       -1.7681803     0.9851148    -1.3397076
  H        2.4085440     0.7136460     1.7243230
  H        1.5276200    -0.8195050     1.9221530
  H        3.2560570    -0.8319740     1.5215790
  H        3.1304270     1.4235350    -0.6835410
  H        2.7315590     0.3479870    -2.0412990
  H        3.9738610    -0.1182480    -0.8633910
  H       -1.8420940     1.1254490     1.7220580
  H       -2.8670940     2.0889060     0.6442650
  H       -1.1140830     2.3514110     0.6543310
  H       -2.4990480    -1.2315890    -0.0938460
units angstrom
no_reorient  #important for SAPT in psi4, default
symmetry c1  #important for SAPT in psi4, default
}

set PROPERTIES_ORIGIN ["COM"]
properties('MP2/aug-cc-pvtz', properties = ['dipole'])
--------------------------------------------------------------------------

    Molecular point group: c1
  Charge       = 0
  Multiplicity = 1
  Basis Set: AUG-CC-PVTZ
    Blend: AUG-CC-PVTZ
  Basis Set: (AUG-CC-PVTZ AUX)
    Blend: AUG-CC-PVTZ-JKFIT

    Orbital Energies [Eh]
    ---------------------

    Doubly Occupied:

       1A    -20.547477     2A    -20.532348     3A    -15.595623
       4A    -11.358036     5A    -11.297312     6A    -11.277185
       7A    -11.232293     8A    -11.230930     9A    -11.222232
      10A     -1.397134    11A     -1.345679    12A     -1.247893
      13A     -1.072194    14A     -1.023698    15A     -0.949834
      16A     -0.895127    17A     -0.822401    18A     -0.794957
      19A     -0.736357    20A     -0.678815    21A     -0.649475
      22A     -0.632182    23A     -0.628814    24A     -0.597082
      25A     -0.581842    26A     -0.567032    27A     -0.555082
      28A     -0.547072    29A     -0.540111    30A     -0.530588
      31A     -0.512288    32A     -0.502723    33A     -0.491406
      34A     -0.445342    35A     -0.433978    36A     -0.401413

  @DF-RHF Final Energy:  -439.13765356612851

   => Energetics <=

    Nuclear Repulsion Energy =            485.3589626626422273
    One-Electron Energy =               -1561.2453191870201863
    Two-Electron Energy =                 636.7487029582495097
    Total Energy =                       -439.1376535661285061
  Basis Set: (AUG-CC-PVTZ AUX)
    Blend: AUG-CC-PVTZ-RI
    Molecular point group: c1

    Geometry (in Angstrom), charge = 0, multiplicity = 1:

       Center              X                  Y                   Z               Mass
    ------------   -----------------  -----------------  -----------------  -----------------
         O           -2.896828579659    -0.346502953330    -0.257177204457    15.994914619570
         O           -0.582611579659    -1.512219953330     0.082603795543    15.994914619570
         N            0.664622420341     0.346044046670    -0.352310204457    14.003074004430
         C            1.952166420341    -0.305672953330    -0.130497204457    12.000000000000
         C           -1.787606579659     0.521686046670    -0.342116204457    12.000000000000
         C            2.308718420341    -0.310157953330     1.351783795543    12.000000000000
         C            3.007186420341     0.377874046670    -0.985514204457    12.000000000000
         C           -0.509232579659    -0.303421953330    -0.181996204457    12.000000000000
         C           -1.899015779659     1.584427446670     0.744801895543    12.000000000000
         H            1.818197420341    -1.338592953330    -0.463487204457     1.007825032230
         H            0.650795420341     1.353793046670    -0.463656204457     1.007825032230
         H           -1.768195879659     0.986047846670    -1.340531804457     1.007825032230
         H            2.408528420341     0.714579046670     1.723498795543     1.007825032230
         H            1.527604420341    -0.818571953330     1.921328795543     1.007825032230
         H            3.256041420341    -0.831040953330     1.520754795543     1.007825032230
         H            3.130411420341     1.424468046670    -0.684365204457     1.007825032230
         H            2.731543420341     0.348920046670    -2.042123204457     1.007825032230
         H            3.973845420341    -0.117314953330    -0.864215204457     1.007825032230
         H           -1.842109579659     1.126382046670     1.721233795543     1.007825032230
         H           -2.867109579659     2.089839046670     0.643440795543     1.007825032230
         H           -1.114098579659     2.352344046670     0.653506795543     1.007825032230
         H           -2.499063579659    -1.230655953330    -0.094670204457     1.007825032230

  Basis Set: AUG-CC-PVTZ
    Blend: AUG-CC-PVTZ
  Basis Set: (AUG-CC-PVTZ AUX)
    Blend: AUG-CC-PVTZ-JKFIT
	 Reference Energy          =    -439.1376535661285061 [Eh]
	 Singles Energy            =      -0.0000000000000000 [Eh]
	 Same-Spin Energy          =      -0.4460321405467925 [Eh]
	 Opposite-Spin Energy      =      -1.4636519682271869 [Eh]
	 Correlation Energy        =      -1.9096841087739795 [Eh]
	 Total Energy              =    -441.0473376749025078 [Eh]

	 ================> DF-SCS-MP2 Energies <==================
	-----------------------------------------------------------
	 SCS Same-Spin Scale       =       0.3333333333333333 [-]
	 SCS Opposite-Spin Scale   =       1.2000000000000000 [-]
	 SCS Same-Spin Energy      =      -0.1486773801822642 [Eh]
	 SCS Opposite-Spin Energy  =      -1.7563823618726242 [Eh]
	 SCS Correlation Energy    =      -1.9050597420548883 [Eh]
	 SCS Total Energy          =    -441.0427133081834086 [Eh]
	-----------------------------------------------------------

  Dipole Moment: [D]
     X:     3.5747      Y:     2.9139      Z:    -0.2219     Total:     4.6172

*** Psi4 exiting successfully. Buy a developer a beer!
