                               Psi4 1.3.2 release

  ==> Input File <==

--------------------------------------------------------------------------
#psi4
#
memory 32 gb

molecule  {
0 1
  O       -2.8968130    -0.3474360    -0.2563530
  O       -0.5825960    -1.5131530     0.0834280
  N        0.6646380     0.3451110    -0.3514860
  C        1.9521820    -0.3066060    -0.1296730
  C       -1.7875910     0.5207530    -0.3412920
  C        2.3087340    -0.3110910     1.3526080
  C        3.0072020     0.3769410    -0.9846900
  C       -0.5092170    -0.3043550    -0.1811720
  C       -1.8991130     1.5929580     0.7362800
  H        1.8182130    -1.3395260    -0.4626630
  H        0.6508110     1.3528600    -0.4628320
  H       -1.7722682     0.9078874    -1.1550598
  H        2.4085440     0.7136460     1.7243230
  H        1.5276200    -0.8195050     1.9221530
  H        3.2560570    -0.8319740     1.5215790
  H        3.1304270     1.4235350    -0.6835410
  H        2.7315590     0.3479870    -2.0412990
  H        3.9738610    -0.1182480    -0.8633910
  H       -1.8420940     1.1254490     1.7220580
  H       -2.8670940     2.0889060     0.6442650
  H       -1.1140830     2.3514110     0.6543310
  H       -2.4990480    -1.2315890    -0.0938460
units angstrom
no_reorient  #important for SAPT in psi4, default
symmetry c1  #important for SAPT in psi4, default
}

set PROPERTIES_ORIGIN ["COM"]
properties('MP2/aug-cc-pvtz', properties = ['dipole'])
--------------------------------------------------------------------------

    Molecular point group: c1
  Charge       = 0
  Multiplicity = 1
  Basis Set: AUG-CC-PVTZ
    Blend: AUG-CC-PVTZ
  Basis Set: (AUG-CC-PVTZ AUX)
    Blend: AUG-CC-PVTZ-JKFIT

    Orbital Energies [Eh]
    ---------------------

    Doubly Occupied:

       1A    -20.544610     2A    -20.531664     3A    -15.596431
       4A    -11.356965     5A    -11.277470     6A    -11.272239
       7A    -11.232582     8A    -11.229294     9A    -11.222396
      10A     -1.396610    11A     -1.344491    12A     -1.248458
      13A     -1.075906    14A     -1.031356    15A     -0.950060
      16A     -0.903443    17A     -0.833159    18A     -0.799895
      19A     -0.742945    20A     -0.687428    21A     -0.657621
      22A     -0.632172    23A     -0.629130    24A     -0.597459
      25A     -0.580666    26A     -0.567010    27A     -0.555269
      28A     -0.548017    29A     -0.542409    30A     -0.533506
      31A     -0.512206    32A     -0.502811    33A     -0.491485
      34A     -0.449919    35A     -0.434165    36A     -0.402190

  @DF-RHF Final Energy:  -439.10661600624371

   => Energetics <=

    Nuclear Repulsion Energy =            486.5052042572829691
    One-Electron Energy =               -1563.3967671474424606
    Two-Electron Energy =                 637.7849468839158362
    Total Energy =                       -439.1066160062437120
  Basis Set: (AUG-CC-PVTZ AUX)
    Blend: AUG-CC-PVTZ-RI
    Molecular point group: c1

    Geometry (in Angstrom), charge = 0, multiplicity = 1:

       Center              X                  Y                   Z               Mass
    ------------   -----------------  -----------------  -----------------  -----------------
         O           -2.896786827468    -0.346775515932    -0.257741220509    15.994914619570
         O           -0.582569827468    -1.512492515932     0.082039779491    15.994914619570
         N            0.664664172532     0.345771484068    -0.352874220509    14.003074004430
         C            1.952208172532    -0.305945515932    -0.131061220509    12.000000000000
         C           -1.787564827468     0.521413484068    -0.342680220509    12.000000000000
         C            2.308760172532    -0.310430515932     1.351219779491    12.000000000000
         C            3.007228172532     0.377601484068    -0.986078220509    12.000000000000
         C           -0.509190827468    -0.303694515932    -0.182560220509    12.000000000000
         C           -1.899086827468     1.593618484068     0.734891779491    12.000000000000
         H            1.818239172532    -1.338865515932    -0.464051220509     1.007825032230
         H            0.650837172532     1.353520484068    -0.464220220509     1.007825032230
         H           -1.772242027468     0.908547884068    -1.156448020509     1.007825032230
         H            2.408570172532     0.714306484068     1.722934779491     1.007825032230
         H            1.527646172532    -0.818844515932     1.920764779491     1.007825032230
         H            3.256083172532    -0.831313515932     1.520190779491     1.007825032230
         H            3.130453172532     1.424195484068    -0.684929220509     1.007825032230
         H            2.731585172532     0.348647484068    -2.042687220509     1.007825032230
         H            3.973887172532    -0.117587515932    -0.864779220509     1.007825032230
         H           -1.842067827468     1.126109484068     1.720669779491     1.007825032230
         H           -2.867067827468     2.089566484068     0.642876779491     1.007825032230
         H           -1.114056827468     2.352071484068     0.652942779491     1.007825032230
         H           -2.499021827468    -1.230928515932    -0.095234220509     1.007825032230

  Basis Set: AUG-CC-PVTZ
    Blend: AUG-CC-PVTZ
  Basis Set: (AUG-CC-PVTZ AUX)
    Blend: AUG-CC-PVTZ-JKFIT
	 Reference Energy          =    -439.1066160062437120 [Eh]
	 Singles Energy            =      -0.0000000000000000 [Eh]
	 Same-Spin Energy          =      -0.4458874887577622 [Eh]
	 Opposite-Spin Energy      =      -1.4627853785851292 [Eh]
	 Correlation Energy        =      -1.9086728673428914 [Eh]
	 Total Energy              =    -441.0152888735865986 [Eh]

	 ================> DF-SCS-MP2 Energies <==================
	-----------------------------------------------------------
	 SCS Same-Spin Scale       =       0.3333333333333333 [-]
	 SCS Opposite-Spin Scale   =       1.2000000000000000 [-]
	 SCS Same-Spin Energy      =      -0.1486291629192541 [Eh]
	 SCS Opposite-Spin Energy  =      -1.7553424543021550 [Eh]
	 SCS Correlation Energy    =      -1.9039716172214090 [Eh]
	 SCS Total Energy          =    -441.0105876234651419 [Eh]
	-----------------------------------------------------------

  Dipole Moment: [D]
     X:     3.6365      Y:     2.9699      Z:    -0.2857     Total:     4.7038

*** Psi4 exiting successfully. Buy a developer a beer!
