                               Psi4 1.3.2 release

  ==> Input File <==

--------------------------------------------------------------------------
#psi4
#
memory 32 gb

molecule  {
0 1
  O       -2.9136166    -0.3208607    -0.2184382
  O       -0.5825960    -1.5131530     0.0834280
  N        0.6646380     0.3451110    -0.3514860
  C        1.9521820    -0.3066060    -0.1296730
  C       -1.7875910     0.5207530    -0.3412920
  C        2.3087340    -0.3110910     1.3526080
  C        3.0072020     0.3769410    -0.9846900
  C       -0.5092170    -0.3043550    -0.1811720
  C       -1.9447574     1.5708030     0.7522874
  H        1.8182130    -1.3395260    -0.4626630
  H        0.6508110     1.3528600    -0.4628320
  H       -1.7688680     0.9937940    -1.3356380
  H        2.4085440     0.7136460     1.7243230
  H        1.5276200    -0.8195050     1.9221530
  H        3.2560570    -0.8319740     1.5215790
  H        3.1304270     1.4235350    -0.6835410
  H        2.7315590     0.3479870    -2.0412990
  H        3.9738610    -0.1182480    -0.8633910
  H       -1.8420940     1.1254490     1.7220580
  H       -2.8670940     2.0889060     0.6442650
  H       -1.1140830     2.3514110     0.6543310
  H       -2.4990480    -1.2315890    -0.0938460
units angstrom
no_reorient  #important for SAPT in psi4, default
symmetry c1  #important for SAPT in psi4, default
}

set PROPERTIES_ORIGIN ["COM"]
properties('MP2/aug-cc-pvtz', properties = ['dipole'])
--------------------------------------------------------------------------

    Molecular point group: c1
  Charge       = 0
  Multiplicity = 1
  Basis Set: AUG-CC-PVTZ
    Blend: AUG-CC-PVTZ
  Basis Set: (AUG-CC-PVTZ AUX)
    Blend: AUG-CC-PVTZ-JKFIT

    Orbital Energies [Eh]
    ---------------------

    Doubly Occupied:

       1A    -20.548946     2A    -20.534013     3A    -15.596420
       4A    -11.359770     5A    -11.296651     6A    -11.277651
       7A    -11.232564     8A    -11.229842     9A    -11.222512
      10A     -1.397014    11A     -1.343327    12A     -1.248595
      13A     -1.071747    14A     -1.021541    15A     -0.950122
      16A     -0.896061    17A     -0.821595    18A     -0.795296
      19A     -0.734168    20A     -0.678323    21A     -0.649754
      22A     -0.632510    23A     -0.629012    24A     -0.596721
      25A     -0.580926    26A     -0.568752    27A     -0.555188
      28A     -0.550532    29A     -0.536722    30A     -0.524834
      31A     -0.512033    32A     -0.503355    33A     -0.492012
      34A     -0.442876    35A     -0.436366    36A     -0.402072

  @DF-RHF Final Energy:  -439.13179045182710

   => Energetics <=

    Nuclear Repulsion Energy =            485.0047550588983540
    One-Electron Energy =               -1560.5334425154862856
    Two-Electron Energy =                 636.3968970047608309
    Total Energy =                       -439.1317904518271007
  Basis Set: (AUG-CC-PVTZ AUX)
    Blend: AUG-CC-PVTZ-RI
    Molecular point group: c1

    Geometry (in Angstrom), charge = 0, multiplicity = 1:

       Center              X                  Y                   Z               Mass
    ------------   -----------------  -----------------  -----------------  -----------------
         O           -2.907388204319    -0.322075109503    -0.224529447360    15.994914619570
         O           -0.576367604319    -1.514367409503     0.077336752640    15.994914619570
         N            0.670866395681     0.343896590497    -0.357577247360    14.003074004430
         C            1.958410395681    -0.307820409503    -0.135764247360    12.000000000000
         C           -1.781362604319     0.519538590497    -0.347383247360    12.000000000000
         C            2.314962395681    -0.312305409503     1.346516752640    12.000000000000
         C            3.013430395681     0.375726590497    -0.990781247360    12.000000000000
         C           -0.502988604319    -0.305569409503    -0.187263247360    12.000000000000
         C           -1.938529004319     1.569588590497     0.746196152640    12.000000000000
         H            1.824441395681    -1.340740409503    -0.468754247360     1.007825032230
         H            0.657039395681     1.351645590497    -0.468923247360     1.007825032230
         H           -1.762639604319     0.992579590497    -1.341729247360     1.007825032230
         H            2.414772395681     0.712431590497     1.718231752640     1.007825032230
         H            1.533848395681    -0.820719409503     1.916061752640     1.007825032230
         H            3.262285395681    -0.833188409503     1.515487752640     1.007825032230
         H            3.136655395681     1.422320590497    -0.689632247360     1.007825032230
         H            2.737787395681     0.346772590497    -2.047390247360     1.007825032230
         H            3.980089395681    -0.119462409503    -0.869482247360     1.007825032230
         H           -1.835865604319     1.124234590497     1.715966752640     1.007825032230
         H           -2.860865604319     2.087691590497     0.638173752640     1.007825032230
         H           -1.107854604319     2.350196590497     0.648239752640     1.007825032230
         H           -2.492819604319    -1.232803409503    -0.099937247360     1.007825032230

  Basis Set: AUG-CC-PVTZ
    Blend: AUG-CC-PVTZ
  Basis Set: (AUG-CC-PVTZ AUX)
    Blend: AUG-CC-PVTZ-JKFIT
	 Reference Energy          =    -439.1317904518271007 [Eh]
	 Singles Energy            =      -0.0000000000000000 [Eh]
	 Same-Spin Energy          =      -0.4464955604311597 [Eh]
	 Opposite-Spin Energy      =      -1.4647563201589193 [Eh]
	 Correlation Energy        =      -1.9112518805900791 [Eh]
	 Total Energy              =    -441.0430423324172011 [Eh]

	 ================> DF-SCS-MP2 Energies <==================
	-----------------------------------------------------------
	 SCS Same-Spin Scale       =       0.3333333333333333 [-]
	 SCS Opposite-Spin Scale   =       1.2000000000000000 [-]
	 SCS Same-Spin Energy      =      -0.1488318534770532 [Eh]
	 SCS Opposite-Spin Energy  =      -1.7577075841907031 [Eh]
	 SCS Correlation Energy    =      -1.9065394376677562 [Eh]
	 SCS Total Energy          =    -441.0383298894948325 [Eh]
	-----------------------------------------------------------

  Dipole Moment: [D]
     X:     3.6085      Y:     2.8216      Z:    -0.3033     Total:     4.5907

*** Psi4 exiting successfully. Buy a developer a beer!
