                               Psi4 1.3.2 release

  ==> Input File <==

--------------------------------------------------------------------------
#psi4
#
memory 32 gb

molecule  {
0 1
  O       -2.8968130    -0.3474360    -0.2563530
  O       -0.5825960    -1.5131530     0.0834280
  N        0.6553602     0.3231888    -0.3605787
  C        1.9521820    -0.3066060    -0.1296730
  C       -1.7875910     0.5207530    -0.3412920
  C        2.3087340    -0.3110910     1.3526080
  C        3.0072020     0.3769410    -0.9846900
  C       -0.5092170    -0.3043550    -0.1811720
  C       -1.8991130     1.5929580     0.7362800
  H        1.8001194    -1.3355296    -0.4672334
  H        0.6508110     1.3528600    -0.4628320
  H       -1.7688680     0.9937940    -1.3356380
  H        2.4085440     0.7136460     1.7243230
  H        1.5276200    -0.8195050     1.9221530
  H        3.2560570    -0.8319740     1.5215790
  H        3.1304270     1.4235350    -0.6835410
  H        2.7315590     0.3479870    -2.0412990
  H        3.9738610    -0.1182480    -0.8633910
  H       -1.8420940     1.1254490     1.7220580
  H       -2.8670940     2.0889060     0.6442650
  H       -1.1140830     2.3514110     0.6543310
  H       -2.4990480    -1.2315890    -0.0938460
units angstrom
no_reorient  #important for SAPT in psi4, default
symmetry c1  #important for SAPT in psi4, default
}

set PROPERTIES_ORIGIN ["COM"]
properties('MP2/aug-cc-pvtz', properties = ['dipole'])
--------------------------------------------------------------------------

    Molecular point group: c1
  Charge       = 0
  Multiplicity = 1
  Basis Set: AUG-CC-PVTZ
    Blend: AUG-CC-PVTZ
  Basis Set: (AUG-CC-PVTZ AUX)
    Blend: AUG-CC-PVTZ-JKFIT

    Orbital Energies [Eh]
    ---------------------

    Doubly Occupied:

       1A    -20.547284     2A    -20.529089     3A    -15.597672
       4A    -11.355350     5A    -11.296959     6A    -11.277876
       7A    -11.233348     8A    -11.230563     9A    -11.223288
      10A     -1.397034    11A     -1.345486    12A     -1.248973
      13A     -1.073662    14A     -1.023972    15A     -0.950600
      16A     -0.895452    17A     -0.823600    18A     -0.793031
      19A     -0.736749    20A     -0.677764    21A     -0.648147
      22A     -0.631030    23A     -0.629821    24A     -0.596992
      25A     -0.581446    26A     -0.567420    27A     -0.555717
      28A     -0.549373    29A     -0.539562    30A     -0.530584
      31A     -0.510348    32A     -0.502991    33A     -0.492426
      34A     -0.444444    35A     -0.433364    36A     -0.401689

  @DF-RHF Final Energy:  -439.13681716035245

   => Energetics <=

    Nuclear Repulsion Energy =            485.5860430411980815
    One-Electron Energy =               -1561.6995108966293628
    Two-Electron Energy =                 636.9766506950787743
    Total Energy =                       -439.1368171603525070
  Basis Set: (AUG-CC-PVTZ AUX)
    Blend: AUG-CC-PVTZ-RI
    Molecular point group: c1

    Geometry (in Angstrom), charge = 0, multiplicity = 1:

       Center              X                  Y                   Z               Mass
    ------------   -----------------  -----------------  -----------------  -----------------
         O           -2.895682845575    -0.345125015852    -0.255346590402    15.994914619570
         O           -0.581465845575    -1.510842015852     0.084434409598    15.994914619570
         N            0.656490354425     0.325499784148    -0.359572290402    14.003074004430
         C            1.953312154425    -0.304295015852    -0.128666590402    12.000000000000
         C           -1.786460845575     0.523063984148    -0.340285590402    12.000000000000
         C            2.309864154425    -0.308780015852     1.353614409598    12.000000000000
         C            3.008332154425     0.379251984148    -0.983683590402    12.000000000000
         C           -0.508086845575    -0.302044015852    -0.180165590402    12.000000000000
         C           -1.897982845575     1.595268984148     0.737286409598    12.000000000000
         H            1.801249554425    -1.333218615852    -0.466226990402     1.007825032230
         H            0.651941154425     1.355170984148    -0.461825590402     1.007825032230
         H           -1.767737845575     0.996104984148    -1.334631590402     1.007825032230
         H            2.409674154425     0.715956984148     1.725329409598     1.007825032230
         H            1.528750154425    -0.817194015852     1.923159409598     1.007825032230
         H            3.257187154425    -0.829663015852     1.522585409598     1.007825032230
         H            3.131557154425     1.425845984148    -0.682534590402     1.007825032230
         H            2.732689154425     0.350297984148    -2.040292590402     1.007825032230
         H            3.974991154425    -0.115937015852    -0.862384590402     1.007825032230
         H           -1.840963845575     1.127759984148     1.723064409598     1.007825032230
         H           -2.865963845575     2.091216984148     0.645271409598     1.007825032230
         H           -1.112952845575     2.353721984148     0.655337409598     1.007825032230
         H           -2.497917845575    -1.229278015852    -0.092839590402     1.007825032230

  Basis Set: AUG-CC-PVTZ
    Blend: AUG-CC-PVTZ
  Basis Set: (AUG-CC-PVTZ AUX)
    Blend: AUG-CC-PVTZ-JKFIT
	 Reference Energy          =    -439.1368171603524502 [Eh]
	 Singles Energy            =      -0.0000000000000000 [Eh]
	 Same-Spin Energy          =      -0.4461418215521676 [Eh]
	 Opposite-Spin Energy      =      -1.4637254928259193 [Eh]
	 Correlation Energy        =      -1.9098673143780869 [Eh]
	 Total Energy              =    -441.0466844747305117 [Eh]

	 ================> DF-SCS-MP2 Energies <==================
	-----------------------------------------------------------
	 SCS Same-Spin Scale       =       0.3333333333333333 [-]
	 SCS Opposite-Spin Scale   =       1.2000000000000000 [-]
	 SCS Same-Spin Energy      =      -0.1487139405173892 [Eh]
	 SCS Opposite-Spin Energy  =      -1.7564705913911032 [Eh]
	 SCS Correlation Energy    =      -1.9051845319084924 [Eh]
	 SCS Total Energy          =    -441.0420016922609534 [Eh]
	-----------------------------------------------------------

  Dipole Moment: [D]
     X:     3.6562      Y:     2.9731      Z:    -0.2146     Total:     4.7174

*** Psi4 exiting successfully. Buy a developer a beer!
