                               Psi4 1.4a3.dev225

  ==> Input File <==

--------------------------------------------------------------------------
#psi4
#
memory 32 gb

molecule  {
0 1
  O       -1.7446660    -1.3796590    -0.7880960
  O       -0.4296620     1.7569970     0.2600660
  N        0.4723820    -0.3330750    -0.0012650
  C        1.8394770     0.0732600     0.3013020
  C       -1.9099390    -0.0103690    -0.3967440
  C        2.4958720     0.7244850    -0.9128940
  C        2.6145980    -1.1365250     0.8043010
  C       -0.5396426     0.6072860    -0.0153721
  C       -2.8608870     0.1360220     0.7815810
  H        1.7638430     0.8203410     1.0982830
  H        0.2750420    -1.2730860    -0.3263580
  H       -2.2722210     0.5864250    -1.2458220
  H        2.5570320     0.0100450    -1.7401110
  H        1.9072700     1.5874400    -1.2316560
  H        3.5085800     1.0627310    -0.6705710
  H        2.6773940    -1.9046250     0.0252330
  H        2.1327900    -1.5715010     1.6841320
  H        3.6348850    -0.8497170     1.0733550
  H       -2.5011890    -0.4705790     1.6169940
  H       -3.8694610    -0.1962540     0.5126420
  H       -2.9055320     1.1820880     1.0905810
  H       -2.6295620    -1.7449530    -0.9570530
units angstrom
no_reorient  #important for SAPT in psi4, default
symmetry c1  #important for SAPT in psi4, default
}

set PROPERTIES_ORIGIN ["COM"]
properties('MP2/aug-cc-pvtz', properties = ['dipole'])
--------------------------------------------------------------------------

    Molecular point group: c1
  Charge       = 0
  Multiplicity = 1
  Basis Set: AUG-CC-PVTZ
    Blend: AUG-CC-PVTZ
  Basis Set: (AUG-CC-PVTZ AUX)
    Blend: AUG-CC-PVTZ-JKFIT

    Orbital Energies [Eh]
    ---------------------

    Doubly Occupied:

       1A    -20.579591     2A    -20.520297     3A    -15.567763
       4A    -11.342759     5A    -11.298998     6A    -11.260468
       7A    -11.227998     8A    -11.218950     9A    -11.207810
      10A     -1.402379    11A     -1.375840    12A     -1.221674
      13A     -1.052351    14A     -1.024730    15A     -0.935274
      16A     -0.891373    17A     -0.808178    18A     -0.773900
      19A     -0.709259    20A     -0.692127    21A     -0.644924
      22A     -0.640571    23A     -0.611631    24A     -0.607576
      25A     -0.580358    26A     -0.563150    27A     -0.551565
      28A     -0.540443    29A     -0.527271    30A     -0.524316
      31A     -0.520203    32A     -0.492234    33A     -0.479167
      34A     -0.459777    35A     -0.412471    36A     -0.381958

  @DF-RHF Final Energy:  -439.13708699952070

   => Energetics <=

    Nuclear Repulsion Energy =            485.9321314642274388
    One-Electron Energy =               -1562.8397732776036264
    Two-Electron Energy =                 637.7705548138554832
    Total Energy =                       -439.1370869995206476
  Basis Set: (AUG-CC-PVTZ AUX)
    Blend: AUG-CC-PVTZ-RI
    Molecular point group: c1

    Geometry (in Angstrom), charge = 0, multiplicity = 1:

       Center              X                  Y                   Z               Mass
    ------------   -----------------  -----------------  -----------------  -----------------
         O           -1.712801258098    -1.404969482141    -0.782142298237    15.994914619570
         O           -0.397797258098     1.731686517859     0.266019701763    15.994914619570
         N            0.504246741902    -0.358385482141     0.004688701763    14.003074004430
         C            1.871341741902     0.047949517859     0.307255701763    12.000000000000
         C           -1.878074258098    -0.035679482141    -0.390790298237    12.000000000000
         C            2.527736741902     0.699174517859    -0.906940298237    12.000000000000
         C            2.646462741902    -1.161835482141     0.810254701763    12.000000000000
         C           -0.507777858098     0.581975517859    -0.009418398237    12.000000000000
         C           -2.829022258098     0.110711517859     0.787534701763    12.000000000000
         H            1.795707741902     0.795030517859     1.104236701763     1.007825032230
         H            0.306906741902    -1.298396482141    -0.320404298237     1.007825032230
         H           -2.240356258098     0.561114517859    -1.239868298237     1.007825032230
         H            2.588896741902    -0.015265482141    -1.734157298237     1.007825032230
         H            1.939134741902     1.562129517859    -1.225702298237     1.007825032230
         H            3.540444741902     1.037420517859    -0.664617298237     1.007825032230
         H            2.709258741902    -1.929935482141     0.031186701763     1.007825032230
         H            2.164654741902    -1.596811482141     1.690085701763     1.007825032230
         H            3.666749741902    -0.875027482141     1.079308701763     1.007825032230
         H           -2.469324258098    -0.495889482141     1.622947701763     1.007825032230
         H           -3.837596258098    -0.221564482141     0.518595701763     1.007825032230
         H           -2.873667258098     1.156777517859     1.096534701763     1.007825032230
         H           -2.597697258098    -1.770263482141    -0.951099298237     1.007825032230

  Basis Set: AUG-CC-PVTZ
    Blend: AUG-CC-PVTZ
  Basis Set: (AUG-CC-PVTZ AUX)
    Blend: AUG-CC-PVTZ-JKFIT
	 Reference Energy          =    -439.1370869995207045 [Eh]
	 Singles Energy            =      -0.0000000000000000 [Eh]
	 Same-Spin Energy          =      -0.4445934210033274 [Eh]
	 Opposite-Spin Energy      =      -1.4617307897420857 [Eh]
	 Correlation Energy        =      -1.9063242107454130 [Eh]
	 Total Energy              =    -441.0434112102661288 [Eh]

	 ================> DF-SCS-MP2 Energies <==================
	-----------------------------------------------------------
	 SCS Same-Spin Scale       =       0.3333333333333333 [-]
	 SCS Opposite-Spin Scale   =       1.2000000000000000 [-]
	 SCS Same-Spin Energy      =      -0.1481978070011091 [Eh]
	 SCS Opposite-Spin Energy  =      -1.7540769476905027 [Eh]
	 SCS Correlation Energy    =      -1.9022747546916119 [Eh]
	 SCS Total Energy          =    -441.0393617542123366 [Eh]
	-----------------------------------------------------------

  Dipole Moment: [D]
     X:    -0.7779      Y:    -2.5345      Z:    -0.4142     Total:     2.6833

*** Psi4 exiting successfully. Buy a developer a beer!
