                               Psi4 1.3.2 release

  ==> Input File <==

--------------------------------------------------------------------------
#psi4
#
memory 32 gb

molecule  {
0 1
  O        0.1763910     2.6970700    -0.0085580
  C        0.2089260     1.4725840     0.0042240
  N        1.4659430     0.7906670    -0.0052000
  C        1.6696020    -0.5667920     0.0018180
  N        0.7040600    -1.4531590     0.0111340
  C       -0.5247500    -0.8567100    -0.0036900
  C       -0.8299769     0.4003604     0.0137453
  N       -2.2178770     0.6874110     0.0132550
  C       -2.7081380    -0.5423290     0.0003530
  N       -1.7302440    -1.5082620    -0.0074590
  N        2.9897270    -0.9822980    -0.0798890
  H        2.2638450     1.4140280    -0.1046570
  H       -3.7608750    -0.7937900    -0.0035550
  H       -1.8528420    -2.5141400    -0.0211820
  H        3.0628590    -1.9839740     0.0678780
  H        3.6422020    -0.4648880     0.5003130
units angstrom
no_reorient  #important for SAPT in psi4, default
symmetry c1  #important for SAPT in psi4, default
}

set PROPERTIES_ORIGIN ["COM"]
properties('MP2/aug-cc-pvtz', properties = ['dipole'])
--------------------------------------------------------------------------

    Molecular point group: c1
  Charge       = 0
  Multiplicity = 1
  Basis Set: AUG-CC-PVTZ
    Blend: AUG-CC-PVTZ
  Basis Set: (AUG-CC-PVTZ AUX)
    Blend: AUG-CC-PVTZ-JKFIT

    Orbital Energies [Eh]
    ---------------------

    Doubly Occupied:

       1A    -20.534988     2A    -15.630520     3A    -15.628847
       4A    -15.610904     5A    -15.569741     6A    -15.564559
       7A    -11.396735     8A    -11.376228     9A    -11.315321
      10A    -11.311664    11A    -11.246399    12A     -1.396798
      13A     -1.364956    14A     -1.335577    15A     -1.220734
      16A     -1.215720    17A     -1.169371    18A     -1.041065
      19A     -0.903704    20A     -0.882885    21A     -0.845389
      22A     -0.798574    23A     -0.736219    24A     -0.725308
      25A     -0.706236    26A     -0.676915    27A     -0.657535
      28A     -0.631635    29A     -0.620216    30A     -0.598246
      31A     -0.584177    32A     -0.547436    33A     -0.497238
      34A     -0.461574    35A     -0.445084    36A     -0.440933
      37A     -0.433437    38A     -0.407269    39A     -0.316259

  @DF-RHF Final Energy:  -539.57593084377663

   => Energetics <=

    Nuclear Repulsion Energy =            594.6084276173428407
    One-Electron Energy =               -1914.6759286740732477
    Two-Electron Energy =                 780.4915702129537749
    Total Energy =                       -539.5759308437766322
  Basis Set: (AUG-CC-PVTZ AUX)
    Blend: AUG-CC-PVTZ-RI
    Molecular point group: c1

    Geometry (in Angstrom), charge = 0, multiplicity = 1:

       Center              X                  Y                   Z               Mass
    ------------   -----------------  -----------------  -----------------  -----------------
         O            0.196536658734     2.676404804966    -0.005567681797    15.994914619570
         C            0.229071658734     1.451918804966     0.007214318203    12.000000000000
         N            1.486088658734     0.770001804966    -0.002209681797    14.003074004430
         C            1.689747658734    -0.587457195034     0.004808318203    12.000000000000
         N            0.724205658734    -1.473824195034     0.014124318203    14.003074004430
         C           -0.504604341266    -0.877375195034    -0.000699681797    12.000000000000
         C           -0.809831241266     0.379695204966     0.016735618203    12.000000000000
         N           -2.197731341266     0.666745804966     0.016245318203    14.003074004430
         C           -2.687992341266    -0.562994195034     0.003343318203    12.000000000000
         N           -1.710098341266    -1.528927195034    -0.004468681797    14.003074004430
         N            3.009872658734    -1.002963195034    -0.076898681797    14.003074004430
         H            2.283990658734     1.393362804966    -0.101666681797     1.007825032230
         H           -3.740729341266    -0.814455195034    -0.000564681797     1.007825032230
         H           -1.832696341266    -2.534805195034    -0.018191681797     1.007825032230
         H            3.083004658734    -2.004639195034     0.070868318203     1.007825032230
         H            3.662347658734    -0.485553195034     0.503303318203     1.007825032230

  Basis Set: AUG-CC-PVTZ
    Blend: AUG-CC-PVTZ
  Basis Set: (AUG-CC-PVTZ AUX)
    Blend: AUG-CC-PVTZ-JKFIT
	 Reference Energy          =    -539.5759308437766322 [Eh]
	 Singles Energy            =      -0.0000000000000000 [Eh]
	 Same-Spin Energy          =      -0.5715031932660245 [Eh]
	 Opposite-Spin Energy      =      -1.6623764869475242 [Eh]
	 Correlation Energy        =      -2.2338796802135485 [Eh]
	 Total Energy              =    -541.8098105239902225 [Eh]

	 ================> DF-SCS-MP2 Energies <==================
	-----------------------------------------------------------
	 SCS Same-Spin Scale       =       0.3333333333333333 [-]
	 SCS Opposite-Spin Scale   =       1.2000000000000000 [-]
	 SCS Same-Spin Energy      =      -0.1905010644220081 [Eh]
	 SCS Opposite-Spin Energy  =      -1.9948517843370288 [Eh]
	 SCS Correlation Energy    =      -2.1853528487590368 [Eh]
	 SCS Total Energy          =    -541.7612836925356987 [Eh]
	-----------------------------------------------------------

  Dipole Moment: [D]
     X:     2.7665      Y:    -5.3706      Z:     0.8426     Total:     6.0997

*** Psi4 exiting successfully. Buy a developer a beer!
