                               Psi4 1.3.2 release

  ==> Input File <==

--------------------------------------------------------------------------
#psi4
#
memory 32 gb

molecule  {
0 1
  O        0.1763910     2.6970700    -0.0085580
  C        0.2089260     1.4725840     0.0042240
  N        1.4659430     0.7906670    -0.0052000
  C        1.6696020    -0.5667920     0.0018180
  N        0.8017669    -1.5490682     0.0023252
  C       -0.5247500    -0.8567100    -0.0036900
  C       -0.8535700     0.4975280     0.0150930
  N       -2.2178770     0.6874110     0.0132550
  C       -2.7081380    -0.5423290     0.0003530
  N       -1.7302440    -1.5082620    -0.0074590
  N        2.9897270    -0.9822980    -0.0798890
  H        2.2638450     1.4140280    -0.1046570
  H       -3.7608750    -0.7937900    -0.0035550
  H       -1.8528420    -2.5141400    -0.0211820
  H        3.0628590    -1.9839740     0.0678780
  H        3.6422020    -0.4648880     0.5003130
units angstrom
no_reorient  #important for SAPT in psi4, default
symmetry c1  #important for SAPT in psi4, default
}

set PROPERTIES_ORIGIN ["COM"]
properties('MP2/aug-cc-pvtz', properties = ['dipole'])
--------------------------------------------------------------------------

    Molecular point group: c1
  Charge       = 0
  Multiplicity = 1
  Basis Set: AUG-CC-PVTZ
    Blend: AUG-CC-PVTZ
  Basis Set: (AUG-CC-PVTZ AUX)
    Blend: AUG-CC-PVTZ-JKFIT

    Orbital Energies [Eh]
    ---------------------

    Doubly Occupied:

       1A    -20.531944     2A    -15.641532     3A    -15.633636
       4A    -15.602877     5A    -15.585555     6A    -15.569745
       7A    -11.394192     8A    -11.373495     9A    -11.334993
      10A    -11.317668    11A    -11.259318    12A     -1.395118
      13A     -1.361440    14A     -1.334690    15A     -1.222250
      16A     -1.197972    17A     -1.176534    18A     -1.034857
      19A     -0.908869    20A     -0.871995    21A     -0.848335
      22A     -0.790485    23A     -0.741699    24A     -0.721931
      25A     -0.699075    26A     -0.671112    27A     -0.652380
      28A     -0.619368    29A     -0.613208    30A     -0.605189
      31A     -0.595635    32A     -0.547690    33A     -0.506335
      34A     -0.453575    35A     -0.448584    36A     -0.440763
      37A     -0.430219    38A     -0.413345    39A     -0.314462

  @DF-RHF Final Energy:  -539.56932790886651

   => Energetics <=

    Nuclear Repulsion Energy =            590.5718593604425450
    One-Electron Energy =               -1906.5582376508032212
    Two-Electron Energy =                 776.4170503814942776
    Total Energy =                       -539.5693279088665122
  Basis Set: (AUG-CC-PVTZ AUX)
    Blend: AUG-CC-PVTZ-RI
    Molecular point group: c1

    Geometry (in Angstrom), charge = 0, multiplicity = 1:

       Center              X                  Y                   Z               Mass
    ------------   -----------------  -----------------  -----------------  -----------------
         O            0.189353050715     2.677576689222    -0.004858126702    15.994914619570
         C            0.221888050715     1.453090689222     0.007923873298    12.000000000000
         N            1.478905050715     0.771173689222    -0.001500126702    14.003074004430
         C            1.682564050715    -0.586285310778     0.005517873298    12.000000000000
         N            0.814728950715    -1.568561510778     0.006025073298    14.003074004430
         C           -0.511787949285    -0.876203310778     0.000009873298    12.000000000000
         C           -0.840607949285     0.478034689222     0.018792873298    12.000000000000
         N           -2.204914949285     0.667917689222     0.016954873298    14.003074004430
         C           -2.695175949285    -0.561822310778     0.004052873298    12.000000000000
         N           -1.717281949285    -1.527755310778    -0.003759126702    14.003074004430
         N            3.002689050715    -1.001791310778    -0.076189126702    14.003074004430
         H            2.276807050715     1.394534689222    -0.100957126702     1.007825032230
         H           -3.747912949285    -0.813283310778     0.000144873298     1.007825032230
         H           -1.839879949285    -2.533633310778    -0.017482126702     1.007825032230
         H            3.075821050715    -2.003467310778     0.071577873298     1.007825032230
         H            3.655164050715    -0.484381310778     0.504012873298     1.007825032230

  Basis Set: AUG-CC-PVTZ
    Blend: AUG-CC-PVTZ
  Basis Set: (AUG-CC-PVTZ AUX)
    Blend: AUG-CC-PVTZ-JKFIT
	 Reference Energy          =    -539.5693279088665122 [Eh]
	 Singles Energy            =      -0.0000000000000000 [Eh]
	 Same-Spin Energy          =      -0.5729025346755219 [Eh]
	 Opposite-Spin Energy      =      -1.6663717295734652 [Eh]
	 Correlation Energy        =      -2.2392742642489871 [Eh]
	 Total Energy              =    -541.8086021731154460 [Eh]

	 ================> DF-SCS-MP2 Energies <==================
	-----------------------------------------------------------
	 SCS Same-Spin Scale       =       0.3333333333333333 [-]
	 SCS Opposite-Spin Scale   =       1.2000000000000000 [-]
	 SCS Same-Spin Energy      =      -0.1909675115585073 [Eh]
	 SCS Opposite-Spin Energy  =      -1.9996460754881582 [Eh]
	 SCS Correlation Energy    =      -2.1906135870466654 [Eh]
	 SCS Total Energy          =    -541.7599414959131536 [Eh]
	-----------------------------------------------------------

  Dipole Moment: [D]
     X:     2.2366      Y:    -5.2866      Z:     0.8544     Total:     5.8035

*** Psi4 exiting successfully. Buy a developer a beer!
