                               Psi4 1.3.2 release

  ==> Input File <==

--------------------------------------------------------------------------
#psi4
#
memory 32 gb

molecule  {
0 1
  O        0.1763910     2.6970700    -0.0085580
  C        0.2089260     1.4725840     0.0042240
  N        1.4659430     0.7906670    -0.0052000
  C        1.6696020    -0.5667920     0.0018180
  N        0.7040600    -1.4531590     0.0111340
  C       -0.5247500    -0.8567100    -0.0036900
  C       -0.8535700     0.4975280     0.0150930
  N       -2.2178770     0.6874110     0.0132550
  C       -2.7248471    -0.5595404     0.0000466
  N       -1.7302440    -1.5082620    -0.0074590
  N        2.9897270    -0.9822980    -0.0798890
  H        2.2638450     1.4140280    -0.1046570
  H       -3.7608750    -0.7937900    -0.0035550
  H       -1.8528420    -2.5141400    -0.0211820
  H        3.0628590    -1.9839740     0.0678780
  H        3.6422020    -0.4648880     0.5003130
units angstrom
no_reorient  #important for SAPT in psi4, default
symmetry c1  #important for SAPT in psi4, default
}

set PROPERTIES_ORIGIN ["COM"]
properties('MP2/aug-cc-pvtz', properties = ['dipole'])
--------------------------------------------------------------------------

    Molecular point group: c1
  Charge       = 0
  Multiplicity = 1
  Basis Set: AUG-CC-PVTZ
    Blend: AUG-CC-PVTZ
  Basis Set: (AUG-CC-PVTZ AUX)
    Blend: AUG-CC-PVTZ-JKFIT

    Orbital Energies [Eh]
    ---------------------

    Doubly Occupied:

       1A    -20.525040     2A    -15.637817     3A    -15.632182
       4A    -15.612327     5A    -15.573681     6A    -15.566804
       7A    -11.398497     8A    -11.368570     9A    -11.327317
      10A    -11.314918    11A    -11.251947    12A     -1.393521
      13A     -1.359456    14A     -1.334921    15A     -1.220887
      16A     -1.216848    17A     -1.174555    18A     -1.030944
      19A     -0.908463    20A     -0.884812    21A     -0.845532
      22A     -0.799790    23A     -0.739654    24A     -0.731153
      25A     -0.701413    26A     -0.672815    27A     -0.656378
      28A     -0.635438    29A     -0.614846    30A     -0.602473
      31A     -0.596238    32A     -0.548114    33A     -0.498901
      34A     -0.461774    35A     -0.443131    36A     -0.432592
      37A     -0.431919    38A     -0.411049    39A     -0.301395

  @DF-RHF Final Energy:  -539.58490446422468

   => Energetics <=

    Nuclear Repulsion Energy =            593.1440677479243959
    One-Electron Energy =               -1911.7417212517304961
    Two-Electron Energy =                 779.0127490395815357
    Total Energy =                       -539.5849044642246781
  Basis Set: (AUG-CC-PVTZ AUX)
    Blend: AUG-CC-PVTZ-RI
    Molecular point group: c1

    Geometry (in Angstrom), charge = 0, multiplicity = 1:

       Center              X                  Y                   Z               Mass
    ------------   -----------------  -----------------  -----------------  -----------------
         O            0.199738434899     2.670052748369    -0.005650407046    15.994914619570
         C            0.232273434899     1.445566748369     0.007131592954    12.000000000000
         N            1.489290434899     0.763649748369    -0.002292407046    14.003074004430
         C            1.692949434899    -0.593809251631     0.004725592954    12.000000000000
         N            0.727407434899    -1.480176251631     0.014041592954    14.003074004430
         C           -0.501402565101    -0.883727251631    -0.000782407046    12.000000000000
         C           -0.830222565101     0.470510748369     0.018000592954    12.000000000000
         N           -2.194529565101     0.660393748369     0.016162592954    14.003074004430
         C           -2.701499665101    -0.586557651631     0.002954192954    12.000000000000
         N           -1.706896565101    -1.535279251631    -0.004551407046    14.003074004430
         N            3.013074434899    -1.009315251631    -0.076981407046    14.003074004430
         H            2.287192434899     1.387010748369    -0.101749407046     1.007825032230
         H           -3.737527565101    -0.820807251631    -0.000647407046     1.007825032230
         H           -1.829494565101    -2.541157251631    -0.018274407046     1.007825032230
         H            3.086206434899    -2.010991251631     0.070785592954     1.007825032230
         H            3.665549434899    -0.491905251631     0.503220592954     1.007825032230

  Basis Set: AUG-CC-PVTZ
    Blend: AUG-CC-PVTZ
  Basis Set: (AUG-CC-PVTZ AUX)
    Blend: AUG-CC-PVTZ-JKFIT
	 Reference Energy          =    -539.5849044642246781 [Eh]
	 Singles Energy            =      -0.0000000000000000 [Eh]
	 Same-Spin Energy          =      -0.5735850108389217 [Eh]
	 Opposite-Spin Energy      =      -1.6643400461130740 [Eh]
	 Correlation Energy        =      -2.2379250569519957 [Eh]
	 Total Energy              =    -541.8228295211766863 [Eh]

	 ================> DF-SCS-MP2 Energies <==================
	-----------------------------------------------------------
	 SCS Same-Spin Scale       =       0.3333333333333333 [-]
	 SCS Opposite-Spin Scale   =       1.2000000000000000 [-]
	 SCS Same-Spin Energy      =      -0.1911950036129739 [Eh]
	 SCS Opposite-Spin Energy  =      -1.9972080553356886 [Eh]
	 SCS Correlation Energy    =      -2.1884030589486625 [Eh]
	 SCS Total Energy          =    -541.7733075231733437 [Eh]
	-----------------------------------------------------------

  Dipole Moment: [D]
     X:     2.6779      Y:    -5.6522      Z:     0.8438     Total:     6.3112

*** Psi4 exiting successfully. Buy a developer a beer!
