                               Psi4 1.3.2 release

  ==> Input File <==

--------------------------------------------------------------------------
#psi4
#
memory 32 gb

molecule  {
0 1
  O        0.1763910     2.6970700    -0.0085580
  C        0.2089260     1.4725840     0.0042240
  N        1.4659430     0.7906670    -0.0052000
  C        1.6696020    -0.5667920     0.0018180
  N        0.6737922    -1.4189761     0.0140523
  C       -0.5247500    -0.8567100    -0.0036900
  C       -0.8535700     0.4975280     0.0150930
  N       -2.2178770     0.6874110     0.0132550
  C       -2.7081380    -0.5423290     0.0003530
  N       -1.7302440    -1.5082620    -0.0074590
  N        2.9897270    -0.9822980    -0.0798890
  H        2.2638450     1.4140280    -0.1046570
  H       -3.7608750    -0.7937900    -0.0035550
  H       -1.8528420    -2.5141400    -0.0211820
  H        3.0628590    -1.9839740     0.0678780
  H        3.6422020    -0.4648880     0.5003130
units angstrom
no_reorient  #important for SAPT in psi4, default
symmetry c1  #important for SAPT in psi4, default
}

set PROPERTIES_ORIGIN ["COM"]
properties('MP2/aug-cc-pvtz', properties = ['dipole'])
--------------------------------------------------------------------------

    Molecular point group: c1
  Charge       = 0
  Multiplicity = 1
  Basis Set: AUG-CC-PVTZ
    Blend: AUG-CC-PVTZ
  Basis Set: (AUG-CC-PVTZ AUX)
    Blend: AUG-CC-PVTZ-JKFIT

    Orbital Energies [Eh]
    ---------------------

    Doubly Occupied:

       1A    -20.521604     2A    -15.633950     3A    -15.631701
       4A    -15.615789     5A    -15.569653     6A    -15.563543
       7A    -11.400701     8A    -11.365941     9A    -11.324152
      10A    -11.312999    11A    -11.248405    12A     -1.393843
      13A     -1.360905    14A     -1.336235    15A     -1.227698
      16A     -1.219963    17A     -1.177409    18A     -1.030174
      19A     -0.907433    20A     -0.890233    21A     -0.843621
      22A     -0.801731    23A     -0.739909    24A     -0.733778
      25A     -0.701681    26A     -0.673728    27A     -0.658246
      28A     -0.639540    29A     -0.613513    30A     -0.600011
      31A     -0.596063    32A     -0.548019    33A     -0.497070
      34A     -0.467153    35A     -0.440514    36A     -0.433316
      37A     -0.429568    38A     -0.411345    39A     -0.298641

  @DF-RHF Final Energy:  -539.58688265557555

   => Energetics <=

    Nuclear Repulsion Energy =            594.7703902230184667
    One-Electron Energy =               -1914.9949916710486377
    Two-Electron Energy =                 780.6377187924546206
    Total Energy =                       -539.5868826555755504
  Basis Set: (AUG-CC-PVTZ AUX)
    Blend: AUG-CC-PVTZ-RI
    Molecular point group: c1

    Geometry (in Angstrom), charge = 0, multiplicity = 1:

       Center              X                  Y                   Z               Mass
    ------------   -----------------  -----------------  -----------------  -----------------
         O            0.201216977871     2.665516467960    -0.005945290494    15.994914619570
         C            0.233751977871     1.441030467960     0.006836709506    12.000000000000
         N            1.490768977871     0.759113467960    -0.002587290494    14.003074004430
         C            1.694427977871    -0.598345532040     0.004430709506    12.000000000000
         N            0.698618177871    -1.450529632040     0.016665009506    14.003074004430
         C           -0.499924022129    -0.888263532040    -0.001077290494    12.000000000000
         C           -0.828744022129     0.465974467960     0.017705709506    12.000000000000
         N           -2.193051022129     0.655857467960     0.015867709506    14.003074004430
         C           -2.683312022129    -0.573882532040     0.002965709506    12.000000000000
         N           -1.705418022129    -1.539815532040    -0.004846290494    14.003074004430
         N            3.014552977871    -1.013851532040    -0.077276290494    14.003074004430
         H            2.288670977871     1.382474467960    -0.102044290494     1.007825032230
         H           -3.736049022129    -0.825343532040    -0.000942290494     1.007825032230
         H           -1.828016022129    -2.545693532040    -0.018569290494     1.007825032230
         H            3.087684977871    -2.015527532040     0.070490709506     1.007825032230
         H            3.667027977871    -0.496441532040     0.502925709506     1.007825032230

  Basis Set: AUG-CC-PVTZ
    Blend: AUG-CC-PVTZ
  Basis Set: (AUG-CC-PVTZ AUX)
    Blend: AUG-CC-PVTZ-JKFIT
	 Reference Energy          =    -539.5868826555755504 [Eh]
	 Singles Energy            =      -0.0000000000000000 [Eh]
	 Same-Spin Energy          =      -0.5733772247553381 [Eh]
	 Opposite-Spin Energy      =      -1.6626765270499242 [Eh]
	 Correlation Energy        =      -2.2360537518052626 [Eh]
	 Total Energy              =    -541.8229364073807801 [Eh]

	 ================> DF-SCS-MP2 Energies <==================
	-----------------------------------------------------------
	 SCS Same-Spin Scale       =       0.3333333333333333 [-]
	 SCS Opposite-Spin Scale   =       1.2000000000000000 [-]
	 SCS Same-Spin Energy      =      -0.1911257415851127 [Eh]
	 SCS Opposite-Spin Energy  =      -1.9952118324599089 [Eh]
	 SCS Correlation Energy    =      -2.1863375740450217 [Eh]
	 SCS Total Energy          =    -541.7732202296206196 [Eh]
	-----------------------------------------------------------

  Dipole Moment: [D]
     X:     2.8160      Y:    -5.7691      Z:     0.8407     Total:     6.4744

*** Psi4 exiting successfully. Buy a developer a beer!
