                               Psi4 1.3.2 release

  ==> Input File <==

--------------------------------------------------------------------------
#psi4
#
memory 32 gb

molecule  {
0 1
  O        0.1763910     2.6970700    -0.0085580
  C        0.1383171     1.5443205     0.0034507
  N        1.4659430     0.7906670    -0.0052000
  C        1.6696020    -0.5667920     0.0018180
  N        0.7040600    -1.4531590     0.0111340
  C       -0.5247500    -0.8567100    -0.0036900
  C       -0.8535700     0.4975280     0.0150930
  N       -2.2178770     0.6874110     0.0132550
  C       -2.7081380    -0.5423290     0.0003530
  N       -1.7302440    -1.5082620    -0.0074590
  N        2.9897270    -0.9822980    -0.0798890
  H        2.2638450     1.4140280    -0.1046570
  H       -3.7608750    -0.7937900    -0.0035550
  H       -1.8528420    -2.5141400    -0.0211820
  H        3.0628590    -1.9839740     0.0678780
  H        3.6422020    -0.4648880     0.5003130
units angstrom
no_reorient  #important for SAPT in psi4, default
symmetry c1  #important for SAPT in psi4, default
}

set PROPERTIES_ORIGIN ["COM"]
properties('MP2/aug-cc-pvtz', properties = ['dipole'])
--------------------------------------------------------------------------

    Molecular point group: c1
  Charge       = 0
  Multiplicity = 1
  Basis Set: AUG-CC-PVTZ
    Blend: AUG-CC-PVTZ
  Basis Set: (AUG-CC-PVTZ AUX)
    Blend: AUG-CC-PVTZ-JKFIT

    Orbital Energies [Eh]
    ---------------------

    Doubly Occupied:

       1A    -20.545555     2A    -15.634985     3A    -15.612407
       4A    -15.604621     5A    -15.564045     6A    -15.563474
       7A    -11.389306     8A    -11.371710     9A    -11.328021
      10A    -11.311636    11A    -11.249988    12A     -1.437657
      13A     -1.366288    14A     -1.329265    15A     -1.212351
      16A     -1.202059    17A     -1.173438    18A     -1.027525
      19A     -0.900747    20A     -0.868998    21A     -0.844202
      22A     -0.787926    23A     -0.727876    24A     -0.723459
      25A     -0.702023    26A     -0.673161    27A     -0.651491
      28A     -0.644633    29A     -0.629134    30A     -0.599225
      31A     -0.591941    32A     -0.568265    33A     -0.494761
      34A     -0.457881    35A     -0.448664    36A     -0.436196
      37A     -0.433256    38A     -0.408975    39A     -0.301231

  @DF-RHF Final Energy:  -539.58032440009367

   => Energetics <=

    Nuclear Repulsion Energy =            593.2001337094777682
    One-Electron Energy =               -1911.9241649203063389
    Two-Electron Energy =                 779.1437068107348978
    Total Energy =                       -539.5803244000936729
  Basis Set: (AUG-CC-PVTZ AUX)
    Blend: AUG-CC-PVTZ-RI
    Molecular point group: c1

    Geometry (in Angstrom), charge = 0, multiplicity = 1:

       Center              X                  Y                   Z               Mass
    ------------   -----------------  -----------------  -----------------  -----------------
         O            0.204020461560     2.662986353330    -0.005613314547    15.994914619570
         C            0.165946561560     1.510236853330     0.006395385453    12.000000000000
         N            1.493572461560     0.756583353330    -0.002255314547    14.003074004430
         C            1.697231461560    -0.600875646670     0.004762685453    12.000000000000
         N            0.731689461560    -1.487242646670     0.014078685453    14.003074004430
         C           -0.497120538440    -0.890793646670    -0.000745314547    12.000000000000
         C           -0.825940538440     0.463444353330     0.018037685453    12.000000000000
         N           -2.190247538440     0.653327353330     0.016199685453    14.003074004430
         C           -2.680508538440    -0.576412646670     0.003297685453    12.000000000000
         N           -1.702614538440    -1.542345646670    -0.004514314547    14.003074004430
         N            3.017356461560    -1.016381646670    -0.076944314547    14.003074004430
         H            2.291474461560     1.379944353330    -0.101712314547     1.007825032230
         H           -3.733245538440    -0.827873646670    -0.000610314547     1.007825032230
         H           -1.825212538440    -2.548223646670    -0.018237314547     1.007825032230
         H            3.090488461560    -2.018057646670     0.070822685453     1.007825032230
         H            3.669831461560    -0.498971646670     0.503257685453     1.007825032230

  Basis Set: AUG-CC-PVTZ
    Blend: AUG-CC-PVTZ
  Basis Set: (AUG-CC-PVTZ AUX)
    Blend: AUG-CC-PVTZ-JKFIT
	 Reference Energy          =    -539.5803244000936729 [Eh]
	 Singles Energy            =      -0.0000000000000000 [Eh]
	 Same-Spin Energy          =      -0.5719228332165783 [Eh]
	 Opposite-Spin Energy      =      -1.6612074747304530 [Eh]
	 Correlation Energy        =      -2.2331303079470315 [Eh]
	 Total Energy              =    -541.8134547080406946 [Eh]

	 ================> DF-SCS-MP2 Energies <==================
	-----------------------------------------------------------
	 SCS Same-Spin Scale       =       0.3333333333333333 [-]
	 SCS Opposite-Spin Scale   =       1.2000000000000000 [-]
	 SCS Same-Spin Energy      =      -0.1906409444055261 [Eh]
	 SCS Opposite-Spin Energy  =      -1.9934489696765436 [Eh]
	 SCS Correlation Energy    =      -2.1840899140820698 [Eh]
	 SCS Total Energy          =    -541.7644143141757240 [Eh]
	-----------------------------------------------------------

  Dipole Moment: [D]
     X:     2.2663      Y:    -4.7888      Z:     0.8368     Total:     5.3636

*** Psi4 exiting successfully. Buy a developer a beer!
