                               Psi4 1.3.2 release

  ==> Input File <==

--------------------------------------------------------------------------
#psi4
#
memory 32 gb

molecule  {
0 1
  O        0.1763910     2.6970700    -0.0085580
  C        0.2089260     1.4725840     0.0042240
  N        1.4659430     0.7906670    -0.0052000
  C        1.6696020    -0.5667920     0.0018180
  N        0.7040600    -1.4531590     0.0111340
  C       -0.5247500    -0.8567100    -0.0036900
  C       -0.8610270     0.4500322     0.0146252
  N       -2.2178770     0.6874110     0.0132550
  C       -2.7081380    -0.5423290     0.0003530
  N       -1.7302440    -1.5082620    -0.0074590
  N        2.9897270    -0.9822980    -0.0798890
  H        2.2638450     1.4140280    -0.1046570
  H       -3.7608750    -0.7937900    -0.0035550
  H       -1.8528420    -2.5141400    -0.0211820
  H        3.0628590    -1.9839740     0.0678780
  H        3.6422020    -0.4648880     0.5003130
units angstrom
no_reorient  #important for SAPT in psi4, default
symmetry c1  #important for SAPT in psi4, default
}

set PROPERTIES_ORIGIN ["COM"]
properties('MP2/aug-cc-pvtz', properties = ['dipole'])
--------------------------------------------------------------------------

    Molecular point group: c1
  Charge       = 0
  Multiplicity = 1
  Basis Set: AUG-CC-PVTZ
    Blend: AUG-CC-PVTZ
  Basis Set: (AUG-CC-PVTZ AUX)
    Blend: AUG-CC-PVTZ-JKFIT

    Orbital Energies [Eh]
    ---------------------

    Doubly Occupied:

       1A    -20.530097     2A    -15.632880     3A    -15.631561
       4A    -15.611535     5A    -15.571792     6A    -15.564344
       7A    -11.397423     8A    -11.372696     9A    -11.318904
      10A    -11.314186    11A    -11.249884    12A     -1.395051
      13A     -1.363761    14A     -1.336269    15A     -1.220412
      16A     -1.217697    17A     -1.176936    18A     -1.033094
      19A     -0.902729    20A     -0.883993    21A     -0.847140
      22A     -0.798632    23A     -0.738563    24A     -0.728167
      25A     -0.702303    26A     -0.674436    27A     -0.656492
      28A     -0.632396    29A     -0.617440    30A     -0.598810
      31A     -0.593554    32A     -0.547320    33A     -0.499501
      34A     -0.461983    35A     -0.445805    36A     -0.436421
      37A     -0.433080    38A     -0.411831    39A     -0.306749

  @DF-RHF Final Energy:  -539.58546236917130

   => Energetics <=

    Nuclear Repulsion Energy =            594.0377688595195877
    One-Electron Energy =               -1913.5347291701511949
    Two-Electron Energy =                 779.9114979414601976
    Total Energy =                       -539.5854623691712959
  Basis Set: (AUG-CC-PVTZ AUX)
    Blend: AUG-CC-PVTZ-RI
    Molecular point group: c1

    Geometry (in Angstrom), charge = 0, multiplicity = 1:

       Center              X                  Y                   Z               Mass
    ------------   -----------------  -----------------  -----------------  -----------------
         O            0.199003409187     2.672458668395    -0.005637584751    15.994914619570
         C            0.231538409187     1.447972668395     0.007144415249    12.000000000000
         N            1.488555409187     0.766055668395    -0.002279584751    14.003074004430
         C            1.692214409187    -0.591403331605     0.004738415249    12.000000000000
         N            0.726672409187    -1.477770331605     0.014054415249    14.003074004430
         C           -0.502137590813    -0.881321331605    -0.000769584751    12.000000000000
         C           -0.838414590813     0.425420868395     0.017545615249    12.000000000000
         N           -2.195264590813     0.662799668395     0.016175415249    14.003074004430
         C           -2.685525590813    -0.566940331605     0.003273415249    12.000000000000
         N           -1.707631590813    -1.532873331605    -0.004538584751    14.003074004430
         N            3.012339409187    -1.006909331605    -0.076968584751    14.003074004430
         H            2.286457409187     1.389416668395    -0.101736584751     1.007825032230
         H           -3.738262590813    -0.818401331605    -0.000634584751     1.007825032230
         H           -1.830229590813    -2.538751331605    -0.018261584751     1.007825032230
         H            3.085471409187    -2.008585331605     0.070798415249     1.007825032230
         H            3.664814409187    -0.489499331605     0.503233415249     1.007825032230

  Basis Set: AUG-CC-PVTZ
    Blend: AUG-CC-PVTZ
  Basis Set: (AUG-CC-PVTZ AUX)
    Blend: AUG-CC-PVTZ-JKFIT
	 Reference Energy          =    -539.5854623691712959 [Eh]
	 Singles Energy            =      -0.0000000000000000 [Eh]
	 Same-Spin Energy          =      -0.5724168603146400 [Eh]
	 Opposite-Spin Energy      =      -1.6626919583300632 [Eh]
	 Correlation Energy        =      -2.2351088186447035 [Eh]
	 Total Energy              =    -541.8205711878159718 [Eh]

	 ================> DF-SCS-MP2 Energies <==================
	-----------------------------------------------------------
	 SCS Same-Spin Scale       =       0.3333333333333333 [-]
	 SCS Opposite-Spin Scale   =       1.2000000000000000 [-]
	 SCS Same-Spin Energy      =      -0.1908056201048800 [Eh]
	 SCS Opposite-Spin Energy  =      -1.9952303499960757 [Eh]
	 SCS Correlation Energy    =      -2.1860359701009555 [Eh]
	 SCS Total Energy          =    -541.7714983392722843 [Eh]
	-----------------------------------------------------------

  Dipole Moment: [D]
     X:     2.7151      Y:    -5.4843      Z:     0.8436     Total:     6.1775

*** Psi4 exiting successfully. Buy a developer a beer!
