                               Psi4 1.3.2 release

  ==> Input File <==

--------------------------------------------------------------------------
#psi4
#
memory 32 gb

molecule  {
0 1
  O        0.1763910     2.6970700    -0.0085580
  C        0.2089260     1.4725840     0.0042240
  N        1.4659430     0.7906670    -0.0052000
  C        1.6696020    -0.5667920     0.0018180
  N        0.7040600    -1.4531590     0.0111340
  C       -0.5247500    -0.8567100    -0.0036900
  C       -0.8411984     0.6411708     0.0164806
  N       -2.2178770     0.6874110     0.0132550
  C       -2.7081380    -0.5423290     0.0003530
  N       -1.7302440    -1.5082620    -0.0074590
  N        2.9897270    -0.9822980    -0.0798890
  H        2.2638450     1.4140280    -0.1046570
  H       -3.7608750    -0.7937900    -0.0035550
  H       -1.8528420    -2.5141400    -0.0211820
  H        3.0628590    -1.9839740     0.0678780
  H        3.6422020    -0.4648880     0.5003130
units angstrom
no_reorient  #important for SAPT in psi4, default
symmetry c1  #important for SAPT in psi4, default
}

set PROPERTIES_ORIGIN ["COM"]
properties('MP2/aug-cc-pvtz', properties = ['dipole'])
--------------------------------------------------------------------------

    Molecular point group: c1
  Charge       = 0
  Multiplicity = 1
  Basis Set: AUG-CC-PVTZ
    Blend: AUG-CC-PVTZ
  Basis Set: (AUG-CC-PVTZ AUX)
    Blend: AUG-CC-PVTZ-JKFIT

    Orbital Energies [Eh]
    ---------------------

    Doubly Occupied:

       1A    -20.504060     2A    -15.645627     3A    -15.632479
       4A    -15.615541     5A    -15.579177     6A    -15.569404
       7A    -11.403096     8A    -11.350230     9A    -11.349840
      10A    -11.316905    11A    -11.256110    12A     -1.389266
      13A     -1.354353    14A     -1.334822    15A     -1.222226
      16A     -1.219551    17A     -1.181745    18A     -1.032880
      19A     -0.920798    20A     -0.887175    21A     -0.839285
      22A     -0.801502    23A     -0.744921    24A     -0.738735
      25A     -0.697235    26A     -0.667385    27A     -0.656207
      28A     -0.639814    29A     -0.616182    30A     -0.599490
      31A     -0.596017    32A     -0.550584    33A     -0.500826
      34A     -0.465528    35A     -0.433955    36A     -0.430823
      37A     -0.415609    38A     -0.413475    39A     -0.294132

  @DF-RHF Final Energy:  -539.55818286962710

   => Energetics <=

    Nuclear Repulsion Energy =            592.6217488669632303
    One-Electron Energy =               -1910.6258817017019283
    Two-Electron Energy =                 778.4459499651117085
    Total Energy =                       -539.5581828696271032
  Basis Set: (AUG-CC-PVTZ AUX)
    Blend: AUG-CC-PVTZ-RI
    Molecular point group: c1

    Geometry (in Angstrom), charge = 0, multiplicity = 1:

       Center              X                  Y                   Z               Mass
    ------------   -----------------  -----------------  -----------------  -----------------
         O            0.197428141860     2.657273814624    -0.005784985526    15.994914619570
         C            0.229963141860     1.432787814624     0.006997014474    12.000000000000
         N            1.486980141860     0.750870814624    -0.002426985526    14.003074004430
         C            1.690639141860    -0.606588185376     0.004591014474    12.000000000000
         N            0.725097141860    -1.492955185376     0.013907014474    14.003074004430
         C           -0.503712858140    -0.896506185376    -0.000916985526    12.000000000000
         C           -0.820161258140     0.601374614624     0.019253614474    12.000000000000
         N           -2.196839858140     0.647614814624     0.016028014474    14.003074004430
         C           -2.687100858140    -0.582125185376     0.003126014474    12.000000000000
         N           -1.709206858140    -1.548058185376    -0.004685985526    14.003074004430
         N            3.010764141860    -1.022094185376    -0.077115985526    14.003074004430
         H            2.284882141860     1.374231814624    -0.101883985526     1.007825032230
         H           -3.739837858140    -0.833586185376    -0.000781985526     1.007825032230
         H           -1.831804858140    -2.553936185376    -0.018408985526     1.007825032230
         H            3.083896141860    -2.023770185376     0.070651014474     1.007825032230
         H            3.663239141860    -0.504684185376     0.503086014474     1.007825032230

  Basis Set: AUG-CC-PVTZ
    Blend: AUG-CC-PVTZ
  Basis Set: (AUG-CC-PVTZ AUX)
    Blend: AUG-CC-PVTZ-JKFIT
	 Reference Energy          =    -539.5581828696271032 [Eh]
	 Singles Energy            =      -0.0000000000000000 [Eh]
	 Same-Spin Energy          =      -0.5750288568596538 [Eh]
	 Opposite-Spin Energy      =      -1.6654874884211026 [Eh]
	 Correlation Energy        =      -2.2405163452807564 [Eh]
	 Total Energy              =    -541.7986992149078560 [Eh]

	 ================> DF-SCS-MP2 Energies <==================
	-----------------------------------------------------------
	 SCS Same-Spin Scale       =       0.3333333333333333 [-]
	 SCS Opposite-Spin Scale   =       1.2000000000000000 [-]
	 SCS Same-Spin Energy      =      -0.1916762856198846 [Eh]
	 SCS Opposite-Spin Energy  =      -1.9985849861053231 [Eh]
	 SCS Correlation Energy    =      -2.1902612717252077 [Eh]
	 SCS Total Energy          =    -541.7484441413523655 [Eh]
	-----------------------------------------------------------

  Dipole Moment: [D]
     X:     2.5465      Y:    -6.0506      Z:     0.8449     Total:     6.6188

*** Psi4 exiting successfully. Buy a developer a beer!
