                               Psi4 1.3.2 release

  ==> Input File <==

--------------------------------------------------------------------------
#psi4
#
memory 32 gb

molecule  {
0 1
  O        0.1763910     2.6970700    -0.0085580
  C        0.2089260     1.4725840     0.0042240
  N        1.4659430     0.7906670    -0.0052000
  C        1.6696020    -0.5667920     0.0018180
  N        0.7040600    -1.4531590     0.0111340
  C       -0.5247500    -0.8567100    -0.0036900
  C       -0.8535700     0.4975280     0.0150930
  N       -2.2178770     0.6874110     0.0132550
  C       -2.6383753    -0.4764768     0.0015538
  N       -1.7302440    -1.5082620    -0.0074590
  N        2.9897270    -0.9822980    -0.0798890
  H        2.2638450     1.4140280    -0.1046570
  H       -3.7608750    -0.7937900    -0.0035550
  H       -1.8528420    -2.5141400    -0.0211820
  H        3.0628590    -1.9839740     0.0678780
  H        3.6422020    -0.4648880     0.5003130
units angstrom
no_reorient  #important for SAPT in psi4, default
symmetry c1  #important for SAPT in psi4, default
}

set PROPERTIES_ORIGIN ["COM"]
properties('MP2/aug-cc-pvtz', properties = ['dipole'])
--------------------------------------------------------------------------

    Molecular point group: c1
  Charge       = 0
  Multiplicity = 1
  Basis Set: AUG-CC-PVTZ
    Blend: AUG-CC-PVTZ
  Basis Set: (AUG-CC-PVTZ AUX)
    Blend: AUG-CC-PVTZ-JKFIT

    Orbital Energies [Eh]
    ---------------------

    Doubly Occupied:

       1A    -20.522587     2A    -15.631702     3A    -15.630942
       4A    -15.612955     5A    -15.573759     6A    -15.559341
       7A    -11.399463     8A    -11.366525     9A    -11.329383
      10A    -11.312179    11A    -11.250853    12A     -1.395914
      13A     -1.370095    14A     -1.339455    15A     -1.229109
      16A     -1.220778    17A     -1.191473    18A     -1.033318
      19A     -0.901750    20A     -0.887782    21A     -0.844158
      22A     -0.797438    23A     -0.744908    24A     -0.727483
      25A     -0.698795    26A     -0.676101    27A     -0.658553
      28A     -0.632491    29A     -0.614189    30A     -0.603657
      31A     -0.584326    32A     -0.547754    33A     -0.501571
      34A     -0.467839    35A     -0.443801    36A     -0.437197
      37A     -0.434219    38A     -0.416285    39A     -0.308847

  @DF-RHF Final Energy:  -539.57904604772978

   => Energetics <=

    Nuclear Repulsion Energy =            595.8399353157125233
    One-Electron Energy =               -1917.0400172685249345
    Two-Electron Energy =                 781.6210359050827492
    Total Energy =                       -539.5790460477297756
  Basis Set: (AUG-CC-PVTZ AUX)
    Blend: AUG-CC-PVTZ-RI
    Molecular point group: c1

    Geometry (in Angstrom), charge = 0, multiplicity = 1:

       Center              X                  Y                   Z               Mass
    ------------   -----------------  -----------------  -----------------  -----------------
         O            0.192868751652     2.663453826855    -0.005770145349    15.994914619570
         C            0.225403751652     1.438967826855     0.007011854651    12.000000000000
         N            1.482420751652     0.757050826855    -0.002412145349    14.003074004430
         C            1.686079751652    -0.600408173145     0.004605854651    12.000000000000
         N            0.720537751652    -1.486775173145     0.013921854651    14.003074004430
         C           -0.508272248348    -0.890326173145    -0.000902145349    12.000000000000
         C           -0.837092248348     0.463911826855     0.017880854651    12.000000000000
         N           -2.201399248348     0.653794826855     0.016042854651    14.003074004430
         C           -2.621897548348    -0.510092973145     0.004341654651    12.000000000000
         N           -1.713766248348    -1.541878173145    -0.004671145349    14.003074004430
         N            3.006204751652    -1.015914173145    -0.077101145349    14.003074004430
         H            2.280322751652     1.380411826855    -0.101869145349     1.007825032230
         H           -3.744397248348    -0.827406173145    -0.000767145349     1.007825032230
         H           -1.836364248348    -2.547756173145    -0.018394145349     1.007825032230
         H            3.079336751652    -2.017590173145     0.070665854651     1.007825032230
         H            3.658679751652    -0.498504173145     0.503100854651     1.007825032230

  Basis Set: AUG-CC-PVTZ
    Blend: AUG-CC-PVTZ
  Basis Set: (AUG-CC-PVTZ AUX)
    Blend: AUG-CC-PVTZ-JKFIT
	 Reference Energy          =    -539.5790460477297756 [Eh]
	 Singles Energy            =      -0.0000000000000000 [Eh]
	 Same-Spin Energy          =      -0.5712783645111721 [Eh]
	 Opposite-Spin Energy      =      -1.6597749255315564 [Eh]
	 Correlation Energy        =      -2.2310532900427287 [Eh]
	 Total Energy              =    -541.8100993377724990 [Eh]

	 ================> DF-SCS-MP2 Energies <==================
	-----------------------------------------------------------
	 SCS Same-Spin Scale       =       0.3333333333333333 [-]
	 SCS Opposite-Spin Scale   =       1.2000000000000000 [-]
	 SCS Same-Spin Energy      =      -0.1904261215037240 [Eh]
	 SCS Opposite-Spin Energy  =      -1.9917299106378676 [Eh]
	 SCS Correlation Energy    =      -2.1821560321415916 [Eh]
	 SCS Total Energy          =    -541.7612020798713957 [Eh]
	-----------------------------------------------------------

  Dipole Moment: [D]
     X:     2.7132      Y:    -5.5297      Z:     0.8454     Total:     6.2172

*** Psi4 exiting successfully. Buy a developer a beer!
