                               Psi4 1.3.2 release

  ==> Input File <==

--------------------------------------------------------------------------
#psi4
#
memory 32 gb

molecule  {
0 1
  O        0.1763910     2.6970700    -0.0085580
  C        0.2089260     1.4725840     0.0042240
  N        1.4659430     0.7906670    -0.0052000
  C        1.6696020    -0.5667920     0.0018180
  N        0.7040600    -1.4531590     0.0111340
  C       -0.5247500    -0.8567100    -0.0036900
  C       -0.9006361     0.4852259     0.0151157
  N       -2.2178770     0.6874110     0.0132550
  C       -2.7081380    -0.5423290     0.0003530
  N       -1.7302440    -1.5082620    -0.0074590
  N        2.9897270    -0.9822980    -0.0798890
  H        2.2638450     1.4140280    -0.1046570
  H       -3.7608750    -0.7937900    -0.0035550
  H       -1.8528420    -2.5141400    -0.0211820
  H        3.0628590    -1.9839740     0.0678780
  H        3.6422020    -0.4648880     0.5003130
units angstrom
no_reorient  #important for SAPT in psi4, default
symmetry c1  #important for SAPT in psi4, default
}

set PROPERTIES_ORIGIN ["COM"]
properties('MP2/aug-cc-pvtz', properties = ['dipole'])
--------------------------------------------------------------------------

    Molecular point group: c1
  Charge       = 0
  Multiplicity = 1
  Basis Set: AUG-CC-PVTZ
    Blend: AUG-CC-PVTZ
  Basis Set: (AUG-CC-PVTZ AUX)
    Blend: AUG-CC-PVTZ-JKFIT

    Orbital Energies [Eh]
    ---------------------

    Doubly Occupied:

       1A    -20.527438     2A    -15.635879     3A    -15.632676
       4A    -15.611824     5A    -15.573094     6A    -15.563476
       7A    -11.397565     8A    -11.371325     9A    -11.321796
      10A    -11.312519    11A    -11.253261    12A     -1.394144
      13A     -1.364305    14A     -1.337269    15A     -1.220717
      16A     -1.219908    17A     -1.184568    18A     -1.025675
      19A     -0.900530    20A     -0.884633    21A     -0.849958
      22A     -0.798463    23A     -0.740759    24A     -0.730287
      25A     -0.699108    26A     -0.670572    27A     -0.655799
      28A     -0.634642    29A     -0.615105    30A     -0.601164
      31A     -0.597805    32A     -0.547173    33A     -0.502028
      34A     -0.462915    35A     -0.447970    36A     -0.433719
      37A     -0.430100    38A     -0.416455    39A     -0.297738

  @DF-RHF Final Energy:  -539.58394704171337

   => Energetics <=

    Nuclear Repulsion Energy =            593.6085103011187130
    One-Electron Energy =               -1912.6561962385680999
    Two-Electron Energy =                 779.4637388957360145
    Total Energy =                       -539.5839470417133725
  Basis Set: (AUG-CC-PVTZ AUX)
    Blend: AUG-CC-PVTZ-RI
    Molecular point group: c1

    Geometry (in Angstrom), charge = 0, multiplicity = 1:

       Center              X                  Y                   Z               Mass
    ------------   -----------------  -----------------  -----------------  -----------------
         O            0.202150122574     2.669662732942    -0.005676552133    15.994914619570
         C            0.234685122574     1.445176732942     0.007105447867    12.000000000000
         N            1.491702122574     0.763259732942    -0.002318552133    14.003074004430
         C            1.695361122574    -0.594199267058     0.004699447867    12.000000000000
         N            0.729819122574    -1.480566267058     0.014015447867    14.003074004430
         C           -0.498990877426    -0.884117267058    -0.000808552133    12.000000000000
         C           -0.874876977426     0.457818632942     0.017997147867    12.000000000000
         N           -2.192117877426     0.660003732942     0.016136447867    14.003074004430
         C           -2.682378877426    -0.569736267058     0.003234447867    12.000000000000
         N           -1.704484877426    -1.535669267058    -0.004577552133    14.003074004430
         N            3.015486122574    -1.009705267058    -0.077007552133    14.003074004430
         H            2.289604122574     1.386620732942    -0.101775552133     1.007825032230
         H           -3.735115877426    -0.821197267058    -0.000673552133     1.007825032230
         H           -1.827082877426    -2.541547267058    -0.018300552133     1.007825032230
         H            3.088618122574    -2.011381267058     0.070759447867     1.007825032230
         H            3.667961122574    -0.492295267058     0.503194447867     1.007825032230

  Basis Set: AUG-CC-PVTZ
    Blend: AUG-CC-PVTZ
  Basis Set: (AUG-CC-PVTZ AUX)
    Blend: AUG-CC-PVTZ-JKFIT
	 Reference Energy          =    -539.5839470417133725 [Eh]
	 Singles Energy            =      -0.0000000000000000 [Eh]
	 Same-Spin Energy          =      -0.5734501735023456 [Eh]
	 Opposite-Spin Energy      =      -1.6633373415336361 [Eh]
	 Correlation Energy        =      -2.2367875150359815 [Eh]
	 Total Energy              =    -541.8207345567493576 [Eh]

	 ================> DF-SCS-MP2 Energies <==================
	-----------------------------------------------------------
	 SCS Same-Spin Scale       =       0.3333333333333333 [-]
	 SCS Opposite-Spin Scale   =       1.2000000000000000 [-]
	 SCS Same-Spin Energy      =      -0.1911500578341152 [Eh]
	 SCS Opposite-Spin Energy  =      -1.9960048098403633 [Eh]
	 SCS Correlation Energy    =      -2.1871548676744785 [Eh]
	 SCS Total Energy          =    -541.7711019093878804 [Eh]
	-----------------------------------------------------------

  Dipole Moment: [D]
     X:     2.6705      Y:    -5.5192      Z:     0.8448     Total:     6.1892

*** Psi4 exiting successfully. Buy a developer a beer!
