                               Psi4 1.3.2 release

  ==> Input File <==

--------------------------------------------------------------------------
#psi4
#
memory 32 gb

molecule  {
0 1
  O        0.1763910     2.6970700    -0.0085580
  C        0.2089260     1.4725840     0.0042240
  N        1.4659430     0.7906670    -0.0052000
  C        1.6696020    -0.5667920     0.0018180
  N        0.7241089    -1.4099173     0.0123846
  C       -0.5247500    -0.8567100    -0.0036900
  C       -0.8535700     0.4975280     0.0150930
  N       -2.2178770     0.6874110     0.0132550
  C       -2.7081380    -0.5423290     0.0003530
  N       -1.7302440    -1.5082620    -0.0074590
  N        2.9897270    -0.9822980    -0.0798890
  H        2.2638450     1.4140280    -0.1046570
  H       -3.7608750    -0.7937900    -0.0035550
  H       -1.8528420    -2.5141400    -0.0211820
  H        3.0628590    -1.9839740     0.0678780
  H        3.6422020    -0.4648880     0.5003130
units angstrom
no_reorient  #important for SAPT in psi4, default
symmetry c1  #important for SAPT in psi4, default
}

set PROPERTIES_ORIGIN ["COM"]
properties('MP2/aug-cc-pvtz', properties = ['dipole'])
--------------------------------------------------------------------------

    Molecular point group: c1
  Charge       = 0
  Multiplicity = 1
  Basis Set: AUG-CC-PVTZ
    Blend: AUG-CC-PVTZ
  Basis Set: (AUG-CC-PVTZ AUX)
    Blend: AUG-CC-PVTZ-JKFIT

    Orbital Energies [Eh]
    ---------------------

    Doubly Occupied:

       1A    -20.523824     2A    -15.639628     3A    -15.626600
       4A    -15.607909     5A    -15.568448     6A    -15.566664
       7A    -11.389223     8A    -11.367472     9A    -11.329146
      10A    -11.316006    11A    -11.252820    12A     -1.394733
      13A     -1.362450    14A     -1.339567    15A     -1.221021
      16A     -1.217808    17A     -1.181271    18A     -1.034835
      19A     -0.908550    20A     -0.883263    21A     -0.846527
      22A     -0.803205    23A     -0.738911    24A     -0.731589
      25A     -0.699215    26A     -0.672839    27A     -0.658463
      28A     -0.639457    29A     -0.614698    30A     -0.602139
      31A     -0.598115    32A     -0.548927    33A     -0.497041
      34A     -0.462335    35A     -0.441393    36A     -0.432592
      37A     -0.430882    38A     -0.413878    39A     -0.306294

  @DF-RHF Final Energy:  -539.58812691691480

   => Energetics <=

    Nuclear Repulsion Energy =            594.7698469147837841
    One-Electron Energy =               -1914.9764773011117995
    Two-Electron Energy =                 780.6185034694132128
    Total Energy =                       -539.5881269169148027
  Basis Set: (AUG-CC-PVTZ AUX)
    Blend: AUG-CC-PVTZ-RI
    Molecular point group: c1

    Geometry (in Angstrom), charge = 0, multiplicity = 1:

       Center              X                  Y                   Z               Mass
    ------------   -----------------  -----------------  -----------------  -----------------
         O            0.196552355383     2.664676669599    -0.005790685941    15.994914619570
         C            0.229087355383     1.440190669599     0.006991314059    12.000000000000
         N            1.486104355383     0.758273669599    -0.002432685941    14.003074004430
         C            1.689763355383    -0.599185330401     0.004585314059    12.000000000000
         N            0.744270255383    -1.442310630401     0.015151914059    14.003074004430
         C           -0.504588644617    -0.889103330401    -0.000922685941    12.000000000000
         C           -0.833408644617     0.465134669599     0.017860314059    12.000000000000
         N           -2.197715644617     0.655017669599     0.016022314059    14.003074004430
         C           -2.687976644617    -0.574722330401     0.003120314059    12.000000000000
         N           -1.710082644617    -1.540655330401    -0.004691685941    14.003074004430
         N            3.009888355383    -1.014691330401    -0.077121685941    14.003074004430
         H            2.284006355383     1.381634669599    -0.101889685941     1.007825032230
         H           -3.740713644617    -0.826183330401    -0.000787685941     1.007825032230
         H           -1.832680644617    -2.546533330401    -0.018414685941     1.007825032230
         H            3.083020355383    -2.016367330401     0.070645314059     1.007825032230
         H            3.662363355383    -0.497281330401     0.503080314059     1.007825032230

  Basis Set: AUG-CC-PVTZ
    Blend: AUG-CC-PVTZ
  Basis Set: (AUG-CC-PVTZ AUX)
    Blend: AUG-CC-PVTZ-JKFIT
	 Reference Energy          =    -539.5881269169148027 [Eh]
	 Singles Energy            =      -0.0000000000000000 [Eh]
	 Same-Spin Energy          =      -0.5725555059391625 [Eh]
	 Opposite-Spin Energy      =      -1.6619012111675817 [Eh]
	 Correlation Energy        =      -2.2344567171067444 [Eh]
	 Total Energy              =    -541.8225836340214983 [Eh]

	 ================> DF-SCS-MP2 Energies <==================
	-----------------------------------------------------------
	 SCS Same-Spin Scale       =       0.3333333333333333 [-]
	 SCS Opposite-Spin Scale   =       1.2000000000000000 [-]
	 SCS Same-Spin Energy      =      -0.1908518353130542 [Eh]
	 SCS Opposite-Spin Energy  =      -1.9942814534010980 [Eh]
	 SCS Correlation Energy    =      -2.1851332887141521 [Eh]
	 SCS Total Energy          =    -541.7732602056289579 [Eh]
	-----------------------------------------------------------

  Dipole Moment: [D]
     X:     2.4790      Y:    -5.7442      Z:     0.8474     Total:     6.3134

*** Psi4 exiting successfully. Buy a developer a beer!
