                               Psi4 1.4a3.dev225

  ==> Input File <==

--------------------------------------------------------------------------
#psi4
#
memory 32 gb

molecule  {
0 1
  O        0.1763800     2.6970850    -0.0086780
  C        0.2088860     1.4725900     0.0042210
  N        1.4659360     0.7906750    -0.0050880
  C        1.6696170    -0.5667500     0.0018210
  N        0.7040680    -1.4531450     0.0111020
  C       -0.5247290    -0.8567090    -0.0037110
  C       -0.8535850     0.4975420     0.0152200
  N       -2.1980859     0.6846276     0.0133594
  C       -2.7081200    -0.5423560     0.0003580
  N       -1.7302140    -1.5082770    -0.0075250
  N        2.9897250    -0.9823190    -0.0798750
  H        2.2637990     1.4140370    -0.1048620
  H       -3.7608500    -0.7938460    -0.0035590
  H       -1.8527810    -2.5141570    -0.0214260
  H        3.0628080    -1.9839860     0.0679760
  H        3.6422460    -0.4648460     0.5002060
units angstrom
no_reorient  #important for SAPT in psi4, default
symmetry c1  #important for SAPT in psi4, default
}

set PROPERTIES_ORIGIN ["COM"]
properties('MP2/aug-cc-pvtz', properties = ['dipole'])
--------------------------------------------------------------------------

    Molecular point group: c1
  Charge       = 0
  Multiplicity = 1
  Basis Set: AUG-CC-PVTZ
    Blend: AUG-CC-PVTZ
  Basis Set: (AUG-CC-PVTZ AUX)
    Blend: AUG-CC-PVTZ-JKFIT

    Orbital Energies [Eh]
    ---------------------

    Doubly Occupied:

       1A    -20.524899     2A    -15.636759     3A    -15.631784
       4A    -15.611934     5A    -15.573047     6A    -15.563698
       7A    -11.397909     8A    -11.368043     9A    -11.326151
      10A    -11.314146    11A    -11.250386    12A     -1.393890
      13A     -1.361709    14A     -1.336058    15A     -1.220510
      16A     -1.218327    17A     -1.180141    18A     -1.030478
      19A     -0.907088    20A     -0.884916    21A     -0.846999
      22A     -0.798850    23A     -0.740523    24A     -0.730306
      25A     -0.700436    26A     -0.673202    27A     -0.656526
      28A     -0.633701    29A     -0.615174    30A     -0.604292
      31A     -0.597127    32A     -0.548036    33A     -0.499511
      34A     -0.462198    35A     -0.443573    36A     -0.432388
      37A     -0.431516    38A     -0.413983    39A     -0.300774

  @DF-RHF Final Energy:  -539.58702162988311

   => Energetics <=

    Nuclear Repulsion Energy =            594.1542009896080572
    One-Electron Energy =               -1913.7604699290877761
    Two-Electron Energy =                 780.0192473095967216
    Total Energy =                       -539.5870216298831110
  Basis Set: (AUG-CC-PVTZ AUX)
    Blend: AUG-CC-PVTZ-RI
    Molecular point group: c1

    Geometry (in Angstrom), charge = 0, multiplicity = 1:

       Center              X                  Y                   Z               Mass
    ------------   -----------------  -----------------  -----------------  -----------------
         O            0.196563590420     2.668955514573    -0.005800051664    15.994914619570
         C            0.229069590420     1.444460514573     0.007098948336    12.000000000000
         N            1.486119590420     0.762545514573    -0.002210051664    14.003074004430
         C            1.689800590420    -0.594879485427     0.004698948336    12.000000000000
         N            0.724251590420    -1.481274485427     0.013979948336    14.003074004430
         C           -0.504545409580    -0.884838485427    -0.000833051664    12.000000000000
         C           -0.833401409580     0.469412514573     0.018097948336    12.000000000000
         N           -2.177902309580     0.656498114573     0.016237348336    14.003074004430
         C           -2.687936409580    -0.570485485427     0.003235948336    12.000000000000
         N           -1.710030409580    -1.536406485427    -0.004647051664    14.003074004430
         N            3.009908590420    -1.010448485427    -0.076997051664    14.003074004430
         H            2.283982590420     1.385907514573    -0.101984051664     1.007825032230
         H           -3.740666409580    -0.821975485427    -0.000681051664     1.007825032230
         H           -1.832597409580    -2.542286485427    -0.018548051664     1.007825032230
         H            3.082991590420    -2.012115485427     0.070853948336     1.007825032230
         H            3.662429590420    -0.492975485427     0.503083948336     1.007825032230

  Basis Set: AUG-CC-PVTZ
    Blend: AUG-CC-PVTZ
  Basis Set: (AUG-CC-PVTZ AUX)
    Blend: AUG-CC-PVTZ-JKFIT
	 Reference Energy          =    -539.5870216298831110 [Eh]
	 Singles Energy            =      -0.0000000000000000 [Eh]
	 Same-Spin Energy          =      -0.5733971212041995 [Eh]
	 Opposite-Spin Energy      =      -1.6633871778082874 [Eh]
	 Correlation Energy        =      -2.2367842990124869 [Eh]
	 Total Energy              =    -541.8238059288955810 [Eh]

	 ================> DF-SCS-MP2 Energies <==================
	-----------------------------------------------------------
	 SCS Same-Spin Scale       =       0.3333333333333333 [-]
	 SCS Opposite-Spin Scale   =       1.2000000000000000 [-]
	 SCS Same-Spin Energy      =      -0.1911323737347332 [Eh]
	 SCS Opposite-Spin Energy  =      -1.9960646133699447 [Eh]
	 SCS Correlation Energy    =      -2.1871969871046777 [Eh]
	 SCS Total Energy          =    -541.7742186169878096 [Eh]
	-----------------------------------------------------------

  Dipole Moment: [D]
     X:     2.6260      Y:    -5.6232      Z:     0.8437     Total:     6.2632

*** Psi4 exiting successfully. Buy a developer a beer!
