                               Psi4 1.3.2 release

  ==> Input File <==

--------------------------------------------------------------------------
#psi4
#
memory 32 gb

molecule  {
0 1
  O        0.1763910     2.6970700    -0.0085580
  C        0.2089260     1.4725840     0.0042240
  N        1.4659430     0.7906670    -0.0052000
  C        1.6696020    -0.5667920     0.0018180
  N        0.7040600    -1.4531590     0.0111340
  C       -0.5247500    -0.8567100    -0.0036900
  C       -0.8535700     0.4975280     0.0150930
  N       -2.2178770     0.6874110     0.0132550
  C       -2.7081380    -0.5423290     0.0003530
  N       -1.7302440    -1.5082620    -0.0074590
  N        2.7992851    -0.9223569    -0.0681019
  H        2.2638450     1.4140280    -0.1046570
  H       -3.7608750    -0.7937900    -0.0035550
  H       -1.8528420    -2.5141400    -0.0211820
  H        3.0628590    -1.9839740     0.0678780
  H        3.6422020    -0.4648880     0.5003130
units angstrom
no_reorient  #important for SAPT in psi4, default
symmetry c1  #important for SAPT in psi4, default
}

set PROPERTIES_ORIGIN ["COM"]
properties('MP2/aug-cc-pvtz', properties = ['dipole'])
--------------------------------------------------------------------------

    Molecular point group: c1
  Charge       = 0
  Multiplicity = 1
  Basis Set: AUG-CC-PVTZ
    Blend: AUG-CC-PVTZ
  Basis Set: (AUG-CC-PVTZ AUX)
    Blend: AUG-CC-PVTZ-JKFIT

    Orbital Energies [Eh]
    ---------------------

    Doubly Occupied:

       1A    -20.516550     2A    -15.631015     3A    -15.626315
       4A    -15.618043     5A    -15.556504     6A    -15.552482
       7A    -11.377231     8A    -11.358823     9A    -11.317831
      10A    -11.303845    11A    -11.237880    12A     -1.406609
      13A     -1.364216    14A     -1.348423    15A     -1.236640
      16A     -1.209795    17A     -1.168982    18A     -1.017410
      19A     -0.902218    20A     -0.887714    21A     -0.835682
      22A     -0.804674    23A     -0.765804    24A     -0.730337
      25A     -0.685584    26A     -0.671575    27A     -0.648261
      28A     -0.622393    29A     -0.607976    30A     -0.594877
      31A     -0.589537    32A     -0.552787    33A     -0.488887
      34A     -0.455763    35A     -0.434613    36A     -0.426237
      37A     -0.423285    38A     -0.403650    39A     -0.288468

  @DF-RHF Final Energy:  -539.52756883816267

   => Energetics <=

    Nuclear Repulsion Energy =            599.3020837554261107
    One-Electron Energy =               -1924.3214748128962128
    Two-Electron Energy =                 785.4918222193074371
    Total Energy =                       -539.5275688381626651
  Basis Set: (AUG-CC-PVTZ AUX)
    Blend: AUG-CC-PVTZ-RI
    Molecular point group: c1

    Geometry (in Angstrom), charge = 0, multiplicity = 1:

       Center              X                  Y                   Z               Mass
    ------------   -----------------  -----------------  -----------------  -----------------
         O            0.216065958604     2.663128547469    -0.006767474857    15.994914619570
         C            0.248600958604     1.438642547469     0.006014525143    12.000000000000
         N            1.505617958604     0.756725547469    -0.003409474857    14.003074004430
         C            1.709276958604    -0.600733452531     0.003608525143    12.000000000000
         N            0.743734958604    -1.487100452531     0.012924525143    14.003074004430
         C           -0.485075041396    -0.890651452531    -0.001899474857    12.000000000000
         C           -0.813895041396     0.463586547469     0.016883525143    12.000000000000
         N           -2.178202041396     0.653469547469     0.015045525143    14.003074004430
         C           -2.668463041396    -0.576270452531     0.002143525143    12.000000000000
         N           -1.690569041396    -1.542203452531    -0.005668474857    14.003074004430
         N            2.838960058604    -0.956298352531    -0.066311374857    14.003074004430
         H            2.303519958604     1.380086547469    -0.102866474857     1.007825032230
         H           -3.721200041396    -0.827731452531    -0.001764474857     1.007825032230
         H           -1.813167041396    -2.548081452531    -0.019391474857     1.007825032230
         H            3.102533958604    -2.017915452531     0.069668525143     1.007825032230
         H            3.681876958604    -0.498829452531     0.502103525143     1.007825032230

  Basis Set: AUG-CC-PVTZ
    Blend: AUG-CC-PVTZ
  Basis Set: (AUG-CC-PVTZ AUX)
    Blend: AUG-CC-PVTZ-JKFIT
	 Reference Energy          =    -539.5275688381626651 [Eh]
	 Singles Energy            =      -0.0000000000000000 [Eh]
	 Same-Spin Energy          =      -0.5747586848703973 [Eh]
	 Opposite-Spin Energy      =      -1.6643806675287256 [Eh]
	 Correlation Energy        =      -2.2391393523991230 [Eh]
	 Total Energy              =    -541.7667081905617579 [Eh]

	 ================> DF-SCS-MP2 Energies <==================
	-----------------------------------------------------------
	 SCS Same-Spin Scale       =       0.3333333333333333 [-]
	 SCS Opposite-Spin Scale   =       1.2000000000000000 [-]
	 SCS Same-Spin Energy      =      -0.1915862282901324 [Eh]
	 SCS Opposite-Spin Energy  =      -1.9972568010344707 [Eh]
	 SCS Correlation Energy    =      -2.1888430293246031 [Eh]
	 SCS Total Energy          =    -541.7164118674872952 [Eh]
	-----------------------------------------------------------

  Dipole Moment: [D]
     X:     4.3430      Y:    -6.0565      Z:     0.7473     Total:     7.4901

*** Psi4 exiting successfully. Buy a developer a beer!
