                               Psi4 1.4a3.dev225

  ==> Input File <==

--------------------------------------------------------------------------
#psi4
#
memory 32 gb

molecule  {
0 1
  O        0.1763800     2.6970850    -0.0086780
  C        0.2088860     1.4725900     0.0042210
  N        1.4659360     0.7906750    -0.0050880
  C        1.6696170    -0.5667500     0.0018210
  N        0.7040680    -1.4531450     0.0111020
  C       -0.5247290    -0.8567090    -0.0037110
  C       -0.8535850     0.4975420     0.0152200
  N       -2.1683722     0.6804930     0.0134005
  C       -2.7081200    -0.5423560     0.0003580
  N       -1.7302140    -1.5082770    -0.0075250
  N        2.9897250    -0.9823190    -0.0798750
  H        2.2637990     1.4140370    -0.1048620
  H       -3.7608500    -0.7938460    -0.0035590
  H       -1.8527810    -2.5141570    -0.0214260
  H        3.0628080    -1.9839860     0.0679760
  H        3.6422460    -0.4648460     0.5002060
units angstrom
no_reorient  #important for SAPT in psi4, default
symmetry c1  #important for SAPT in psi4, default
}

set PROPERTIES_ORIGIN ["COM"]
properties('MP2/aug-cc-pvtz', properties = ['dipole'])
--------------------------------------------------------------------------

    Molecular point group: c1
  Charge       = 0
  Multiplicity = 1
  Basis Set: AUG-CC-PVTZ
    Blend: AUG-CC-PVTZ
  Basis Set: (AUG-CC-PVTZ AUX)
    Blend: AUG-CC-PVTZ-JKFIT

    Orbital Energies [Eh]
    ---------------------

    Doubly Occupied:

       1A    -20.525703     2A    -15.637632     3A    -15.631465
       4A    -15.611241     5A    -15.572195     6A    -15.561223
       7A    -11.396831     8A    -11.368066     9A    -11.323912
      10A    -11.313821    11A    -11.248682    12A     -1.394485
      13A     -1.362977    14A     -1.336317    15A     -1.220176
      16A     -1.218429    17A     -1.183230    18A     -1.028956
      19A     -0.907462    20A     -0.884516    21A     -0.850062
      22A     -0.798328    23A     -0.740659    24A     -0.730219
      25A     -0.700045    26A     -0.673271    27A     -0.656835
      28A     -0.633556    29A     -0.616113    30A     -0.608541
      31A     -0.597449    32A     -0.548222    33A     -0.499141
      34A     -0.461688    35A     -0.444258    36A     -0.431976
      37A     -0.428840    38A     -0.416762    39A     -0.297382

  @DF-RHF Final Energy:  -539.58467061623060

   => Energetics <=

    Nuclear Repulsion Energy =            594.9152227105184920
    One-Electron Energy =               -1915.2784526750117493
    Two-Electron Energy =                 780.7785593482626609
    Total Energy =                       -539.5846706162305964
  Basis Set: (AUG-CC-PVTZ AUX)
    Blend: AUG-CC-PVTZ-RI
    Molecular point group: c1

    Geometry (in Angstrom), charge = 0, multiplicity = 1:

       Center              X                  Y                   Z               Mass
    ------------   -----------------  -----------------  -----------------  -----------------
         O            0.193808974294     2.669338813719    -0.005803861850    15.994914619570
         C            0.226314974294     1.444843813719     0.007095138150    12.000000000000
         N            1.483364974294     0.762928813719    -0.002213861850    14.003074004430
         C            1.687045974294    -0.594496186281     0.004695138150    12.000000000000
         N            0.721496974294    -1.480891186281     0.013976138150    14.003074004430
         C           -0.507300025706    -0.884455186281    -0.000836861850    12.000000000000
         C           -0.836156025706     0.469795813719     0.018094138150    12.000000000000
         N           -2.150943225706     0.652746813719     0.016274638150    14.003074004430
         C           -2.690691025706    -0.570102186281     0.003232138150    12.000000000000
         N           -1.712785025706    -1.536023186281    -0.004650861850    14.003074004430
         N            3.007153974294    -1.010065186281    -0.077000861850    14.003074004430
         H            2.281227974294     1.386290813719    -0.101987861850     1.007825032230
         H           -3.743421025706    -0.821592186281    -0.000684861850     1.007825032230
         H           -1.835352025706    -2.541903186281    -0.018551861850     1.007825032230
         H            3.080236974294    -2.011732186281     0.070850138150     1.007825032230
         H            3.659674974294    -0.492592186281     0.503080138150     1.007825032230

  Basis Set: AUG-CC-PVTZ
    Blend: AUG-CC-PVTZ
  Basis Set: (AUG-CC-PVTZ AUX)
    Blend: AUG-CC-PVTZ-JKFIT
	 Reference Energy          =    -539.5846706162305964 [Eh]
	 Singles Energy            =      -0.0000000000000000 [Eh]
	 Same-Spin Energy          =      -0.5739835761930636 [Eh]
	 Opposite-Spin Energy      =      -1.6637663398882392 [Eh]
	 Correlation Energy        =      -2.2377499160813028 [Eh]
	 Total Energy              =    -541.8224205323118667 [Eh]

	 ================> DF-SCS-MP2 Energies <==================
	-----------------------------------------------------------
	 SCS Same-Spin Scale       =       0.3333333333333333 [-]
	 SCS Opposite-Spin Scale   =       1.2000000000000000 [-]
	 SCS Same-Spin Energy      =      -0.1913278587310212 [Eh]
	 SCS Opposite-Spin Energy  =      -1.9965196078658869 [Eh]
	 SCS Correlation Energy    =      -2.1878474665969079 [Eh]
	 SCS Total Energy          =    -541.7725180828275597 [Eh]
	-----------------------------------------------------------

  Dipole Moment: [D]
     X:     2.5605      Y:    -5.6045      Z:     0.8443     Total:     6.2192

*** Psi4 exiting successfully. Buy a developer a beer!
