                               Psi4 1.3.2 release

  ==> Input File <==

--------------------------------------------------------------------------
#psi4
#
memory 32 gb

molecule  {
0 1
  O        0.1336746     2.6951890    -0.0085112
  C        0.2089260     1.4725840     0.0042240
  N        1.4659430     0.7906670    -0.0052000
  C        1.6696020    -0.5667920     0.0018180
  N        0.7040600    -1.4531590     0.0111340
  C       -0.5247500    -0.8567100    -0.0036900
  C       -0.8535700     0.4975280     0.0150930
  N       -2.2178770     0.6874110     0.0132550
  C       -2.7081380    -0.5423290     0.0003530
  N       -1.7302440    -1.5082620    -0.0074590
  N        2.9897270    -0.9822980    -0.0798890
  H        2.2638450     1.4140280    -0.1046570
  H       -3.7608750    -0.7937900    -0.0035550
  H       -1.8528420    -2.5141400    -0.0211820
  H        3.0628590    -1.9839740     0.0678780
  H        3.6422020    -0.4648880     0.5003130
units angstrom
no_reorient  #important for SAPT in psi4, default
symmetry c1  #important for SAPT in psi4, default
}

set PROPERTIES_ORIGIN ["COM"]
properties('MP2/aug-cc-pvtz', properties = ['dipole'])
--------------------------------------------------------------------------

    Molecular point group: c1
  Charge       = 0
  Multiplicity = 1
  Basis Set: AUG-CC-PVTZ
    Blend: AUG-CC-PVTZ
  Basis Set: (AUG-CC-PVTZ AUX)
    Blend: AUG-CC-PVTZ-JKFIT

    Orbital Energies [Eh]
    ---------------------

    Doubly Occupied:

       1A    -20.524723     2A    -15.635507     3A    -15.633831
       4A    -15.612810     5A    -15.573889     6A    -15.564509
       7A    -11.399243     8A    -11.367909     9A    -11.326342
      10A    -11.313630    11A    -11.250065    12A     -1.393062
      13A     -1.360212    14A     -1.336452    15A     -1.221972
      16A     -1.218563    17A     -1.177652    18A     -1.030542
      19A     -0.906509    20A     -0.885878    21A     -0.844220
      22A     -0.799377    23A     -0.740832    24A     -0.730346
      25A     -0.700660    26A     -0.673046    27A     -0.656368
      28A     -0.633896    29A     -0.614592    30A     -0.600720
      31A     -0.596396    32A     -0.547959    33A     -0.499584
      34A     -0.462758    35A     -0.443281    36A     -0.433585
      37A     -0.431856    38A     -0.411408    39A     -0.302159

  @DF-RHF Final Energy:  -539.58699247504319

   => Energetics <=

    Nuclear Repulsion Energy =            593.7060498448197450
    One-Electron Energy =               -1912.8733965558005821
    Two-Electron Energy =                 779.5803542359376479
    Total Energy =                       -539.5869924750431892
  Basis Set: (AUG-CC-PVTZ AUX)
    Blend: AUG-CC-PVTZ-RI
    Molecular point group: c1

    Geometry (in Angstrom), charge = 0, multiplicity = 1:

       Center              X                  Y                   Z               Mass
    ------------   -----------------  -----------------  -----------------  -----------------
         O            0.160217916110     2.667003585144    -0.005632904492    15.994914619570
         C            0.235469316110     1.444398585144     0.007102295508    12.000000000000
         N            1.492486316110     0.762481585144    -0.002321704492    14.003074004430
         C            1.696145316110    -0.594977414856     0.004696295508    12.000000000000
         N            0.730603316110    -1.481344414856     0.014012295508    14.003074004430
         C           -0.498206683890    -0.884895414856    -0.000811704492    12.000000000000
         C           -0.827026683890     0.469342585144     0.017971295508    12.000000000000
         N           -2.191333683890     0.659225585144     0.016133295508    14.003074004430
         C           -2.681594683890    -0.570514414856     0.003231295508    12.000000000000
         N           -1.703700683890    -1.536447414856    -0.004580704492    14.003074004430
         N            3.016270316110    -1.010483414856    -0.077010704492    14.003074004430
         H            2.290388316110     1.385842585144    -0.101778704492     1.007825032230
         H           -3.734331683890    -0.821975414856    -0.000676704492     1.007825032230
         H           -1.826298683890    -2.542325414856    -0.018303704492     1.007825032230
         H            3.089402316110    -2.012159414856     0.070756295508     1.007825032230
         H            3.668745316110    -0.493073414856     0.503191295508     1.007825032230

  Basis Set: AUG-CC-PVTZ
    Blend: AUG-CC-PVTZ
  Basis Set: (AUG-CC-PVTZ AUX)
    Blend: AUG-CC-PVTZ-JKFIT
	 Reference Energy          =    -539.5869924750431892 [Eh]
	 Singles Energy            =      -0.0000000000000000 [Eh]
	 Same-Spin Energy          =      -0.5731264768306068 [Eh]
	 Opposite-Spin Energy      =      -1.6634049483023969 [Eh]
	 Correlation Energy        =      -2.2365314251330037 [Eh]
	 Total Energy              =    -541.8235239001761556 [Eh]

	 ================> DF-SCS-MP2 Energies <==================
	-----------------------------------------------------------
	 SCS Same-Spin Scale       =       0.3333333333333333 [-]
	 SCS Opposite-Spin Scale   =       1.2000000000000000 [-]
	 SCS Same-Spin Energy      =      -0.1910421589435356 [Eh]
	 SCS Opposite-Spin Energy  =      -1.9960859379628761 [Eh]
	 SCS Correlation Energy    =      -2.1871280969064117 [Eh]
	 SCS Total Energy          =    -541.7741205719496520 [Eh]
	-----------------------------------------------------------

  Dipole Moment: [D]
     X:     2.7622      Y:    -5.6122      Z:     0.8439     Total:     6.3118

*** Psi4 exiting successfully. Buy a developer a beer!
