                               Psi4 1.3.2 release

  ==> Input File <==

--------------------------------------------------------------------------
#psi4
#
memory 32 gb

molecule  {
0 1
  O        0.1763910     2.6970700    -0.0085580
  C        0.2089260     1.4725840     0.0042240
  N        1.4659430     0.7906670    -0.0052000
  C        1.6696020    -0.5667920     0.0018180
  N        0.7040600    -1.4531590     0.0111340
  C       -0.5247500    -0.8567100    -0.0036900
  C       -0.9472442     0.4712888     0.0151155
  N       -2.2178770     0.6874110     0.0132550
  C       -2.7081380    -0.5423290     0.0003530
  N       -1.7302440    -1.5082620    -0.0074590
  N        2.9897270    -0.9822980    -0.0798890
  H        2.2638450     1.4140280    -0.1046570
  H       -3.7608750    -0.7937900    -0.0035550
  H       -1.8528420    -2.5141400    -0.0211820
  H        3.0628590    -1.9839740     0.0678780
  H        3.6422020    -0.4648880     0.5003130
units angstrom
no_reorient  #important for SAPT in psi4, default
symmetry c1  #important for SAPT in psi4, default
}

set PROPERTIES_ORIGIN ["COM"]
properties('MP2/aug-cc-pvtz', properties = ['dipole'])
--------------------------------------------------------------------------

    Molecular point group: c1
  Charge       = 0
  Multiplicity = 1
  Basis Set: AUG-CC-PVTZ
    Blend: AUG-CC-PVTZ
  Basis Set: (AUG-CC-PVTZ AUX)
    Blend: AUG-CC-PVTZ-JKFIT

    Orbital Energies [Eh]
    ---------------------

    Doubly Occupied:

       1A    -20.529906     2A    -15.635983     3A    -15.633008
       4A    -15.611216     5A    -15.572701     6A    -15.561730
       7A    -11.396479     8A    -11.373412     9A    -11.316420
      10A    -11.310983    11A    -11.255213    12A     -1.394986
      13A     -1.368942    14A     -1.338491    15A     -1.224968
      16A     -1.219043    17A     -1.189794    18A     -1.020445
      19A     -0.895680    20A     -0.882527    21A     -0.855883
      22A     -0.797667    23A     -0.741236    24A     -0.730029
      25A     -0.697903    26A     -0.668835    27A     -0.655564
      28A     -0.635843    29A     -0.615975    30A     -0.600864
      31A     -0.596395    32A     -0.546355    33A     -0.504863
      34A     -0.463746    35A     -0.452480    36A     -0.435483
      37A     -0.425474    38A     -0.419943    39A     -0.292729

  @DF-RHF Final Energy:  -539.57325118203278

   => Energetics <=

    Nuclear Repulsion Energy =            593.6342026212396377
    One-Electron Energy =               -1912.6765214338104215
    Two-Electron Energy =                 779.4690676305380066
    Total Energy =                       -539.5732511820327773
  Basis Set: (AUG-CC-PVTZ AUX)
    Blend: AUG-CC-PVTZ-RI
    Molecular point group: c1

    Geometry (in Angstrom), charge = 0, multiplicity = 1:

       Center              X                  Y                   Z               Mass
    ------------   -----------------  -----------------  -----------------  -----------------
         O            0.205852865939     2.670769954746    -0.005676536244    15.994914619570
         C            0.238387865939     1.446283954746     0.007105463756    12.000000000000
         N            1.495404865939     0.764366954746    -0.002318536244    14.003074004430
         C            1.699063865939    -0.593092045254     0.004699463756    12.000000000000
         N            0.733521865939    -1.479459045254     0.014015463756    14.003074004430
         C           -0.495288134061    -0.883010045254    -0.000808536244    12.000000000000
         C           -0.917782334061     0.444988754746     0.017996963756    12.000000000000
         N           -2.188415134061     0.661110954746     0.016136463756    14.003074004430
         C           -2.678676134061    -0.568629045254     0.003234463756    12.000000000000
         N           -1.700782134061    -1.534562045254    -0.004577536244    14.003074004430
         N            3.019188865939    -1.008598045254    -0.077007536244    14.003074004430
         H            2.293306865939     1.387727954746    -0.101775536244     1.007825032230
         H           -3.731413134061    -0.820090045254    -0.000673536244     1.007825032230
         H           -1.823380134061    -2.540440045254    -0.018300536244     1.007825032230
         H            3.092320865939    -2.010274045254     0.070759463756     1.007825032230
         H            3.671663865939    -0.491188045254     0.503194463756     1.007825032230

  Basis Set: AUG-CC-PVTZ
    Blend: AUG-CC-PVTZ
  Basis Set: (AUG-CC-PVTZ AUX)
    Blend: AUG-CC-PVTZ-JKFIT
	 Reference Energy          =    -539.5732511820327773 [Eh]
	 Singles Energy            =      -0.0000000000000000 [Eh]
	 Same-Spin Energy          =      -0.5740229072070053 [Eh]
	 Opposite-Spin Energy      =      -1.6638049375789645 [Eh]
	 Correlation Energy        =      -2.2378278447859699 [Eh]
	 Total Energy              =    -541.8110790268187884 [Eh]

	 ================> DF-SCS-MP2 Energies <==================
	-----------------------------------------------------------
	 SCS Same-Spin Scale       =       0.3333333333333333 [-]
	 SCS Opposite-Spin Scale   =       1.2000000000000000 [-]
	 SCS Same-Spin Energy      =      -0.1913409690690018 [Eh]
	 SCS Opposite-Spin Energy  =      -1.9965659250947574 [Eh]
	 SCS Correlation Energy    =      -2.1879068941637589 [Eh]
	 SCS Total Energy          =    -541.7611580761965797 [Eh]
	-----------------------------------------------------------

  Dipole Moment: [D]
     X:     2.6573      Y:    -5.4095      Z:     0.8457     Total:     6.0860

*** Psi4 exiting successfully. Buy a developer a beer!
