                               Psi4 1.4a3.dev225

  ==> Input File <==

--------------------------------------------------------------------------
#psi4
#
memory 32 gb

molecule  {
0 1
  O        0.1763800     2.6970850    -0.0086780
  C        0.2094167     1.4525982     0.0044316
  N        1.4659360     0.7906750    -0.0050880
  C        1.6696170    -0.5667500     0.0018210
  N        0.7040680    -1.4531450     0.0111020
  C       -0.5247290    -0.8567090    -0.0037110
  C       -0.8535850     0.4975420     0.0152200
  N       -2.2178950     0.6873840     0.0133320
  C       -2.7081200    -0.5423560     0.0003580
  N       -1.7302140    -1.5082770    -0.0075250
  N        2.9897250    -0.9823190    -0.0798750
  H        2.2637990     1.4140370    -0.1048620
  H       -3.7608500    -0.7938460    -0.0035590
  H       -1.8527810    -2.5141570    -0.0214260
  H        3.0628080    -1.9839860     0.0679760
  H        3.6422460    -0.4648460     0.5002060
units angstrom
no_reorient  #important for SAPT in psi4, default
symmetry c1  #important for SAPT in psi4, default
}

set PROPERTIES_ORIGIN ["COM"]
properties('MP2/aug-cc-pvtz', properties = ['dipole'])
--------------------------------------------------------------------------

    Molecular point group: c1
  Charge       = 0
  Multiplicity = 1
  Basis Set: AUG-CC-PVTZ
    Blend: AUG-CC-PVTZ
  Basis Set: (AUG-CC-PVTZ AUX)
    Blend: AUG-CC-PVTZ-JKFIT

    Orbital Energies [Eh]
    ---------------------

    Doubly Occupied:

       1A    -20.519192     2A    -15.637497     3A    -15.634457
       4A    -15.613594     5A    -15.575607     6A    -15.566505
       7A    -11.400005     8A    -11.366993     9A    -11.329516
      10A    -11.315926    11A    -11.251974    12A     -1.389690
      13A     -1.356621    14A     -1.333496    15A     -1.222135
      16A     -1.219669    17A     -1.179827    18A     -1.034599
      19A     -0.909981    20A     -0.887151    21A     -0.846268
      22A     -0.800871    23A     -0.743636    24A     -0.731628
      25A     -0.701170    26A     -0.673516    27A     -0.657894
      28A     -0.635178    29A     -0.607694    30A     -0.601303
      31A     -0.597963    32A     -0.543911    33A     -0.501194
      34A     -0.463332    35A     -0.441860    36A     -0.431593
      37A     -0.430646    38A     -0.413247    39A     -0.304341

  @DF-RHF Final Energy:  -539.58558506754150

   => Energetics <=

    Nuclear Repulsion Energy =            593.8082730480909959
    One-Electron Energy =               -1913.0443639412517314
    Two-Electron Energy =                 779.6505058256192342
    Total Energy =                       -539.5855850675415013
  Basis Set: (AUG-CC-PVTZ AUX)
    Blend: AUG-CC-PVTZ-RI
    Molecular point group: c1

    Geometry (in Angstrom), charge = 0, multiplicity = 1:

       Center              X                  Y                   Z               Mass
    ------------   -----------------  -----------------  -----------------  -----------------
         O            0.198357837042     2.670288214430    -0.005814242489    15.994914619570
         C            0.231394537042     1.425801414430     0.007295357511    12.000000000000
         N            1.487913837042     0.763878214430    -0.002224242489    14.003074004430
         C            1.691594837042    -0.593546785570     0.004684757511    12.000000000000
         N            0.726045837042    -1.479941785570     0.013965757511    14.003074004430
         C           -0.502751162958    -0.883505785570    -0.000847242489    12.000000000000
         C           -0.831607162958     0.470745214430     0.018083757511    12.000000000000
         N           -2.195917162958     0.660587214430     0.016195757511    14.003074004430
         C           -2.686142162958    -0.569152785570     0.003221757511    12.000000000000
         N           -1.708236162958    -1.535073785570    -0.004661242489    14.003074004430
         N            3.011702837042    -1.009115785570    -0.077011242489    14.003074004430
         H            2.285776837042     1.387240214430    -0.101998242489     1.007825032230
         H           -3.738872162958    -0.820642785570    -0.000695242489     1.007825032230
         H           -1.830803162958    -2.540953785570    -0.018562242489     1.007825032230
         H            3.084785837042    -2.010782785570     0.070839757511     1.007825032230
         H            3.664223837042    -0.491642785570     0.503069757511     1.007825032230

  Basis Set: AUG-CC-PVTZ
    Blend: AUG-CC-PVTZ
  Basis Set: (AUG-CC-PVTZ AUX)
    Blend: AUG-CC-PVTZ-JKFIT
	 Reference Energy          =    -539.5855850675415013 [Eh]
	 Singles Energy            =      -0.0000000000000000 [Eh]
	 Same-Spin Energy          =      -0.5734431955096699 [Eh]
	 Opposite-Spin Energy      =      -1.6639279280449673 [Eh]
	 Correlation Energy        =      -2.2373711235546372 [Eh]
	 Total Energy              =    -541.8229561910961820 [Eh]

	 ================> DF-SCS-MP2 Energies <==================
	-----------------------------------------------------------
	 SCS Same-Spin Scale       =       0.3333333333333333 [-]
	 SCS Opposite-Spin Scale   =       1.2000000000000000 [-]
	 SCS Same-Spin Energy      =      -0.1911477318365566 [Eh]
	 SCS Opposite-Spin Energy  =      -1.9967135136539607 [Eh]
	 SCS Correlation Energy    =      -2.1878612454905171 [Eh]
	 SCS Total Energy          =    -541.7734463130319682 [Eh]
	-----------------------------------------------------------

  Dipole Moment: [D]
     X:     2.6764      Y:    -5.8399      Z:     0.8444     Total:     6.4792

*** Psi4 exiting successfully. Buy a developer a beer!
