                               Psi4 1.4a3.dev225

  ==> Input File <==

--------------------------------------------------------------------------
#psi4
#
memory 32 gb

molecule  {
0 1
  O        0.1763800     2.6970850    -0.0086780
  C        0.2088860     1.4725900     0.0042210
  N        1.4659360     0.7906750    -0.0050880
  C        1.6696170    -0.5667500     0.0018210
  N        0.7040680    -1.4531450     0.0111020
  C       -0.5247290    -0.8567090    -0.0037110
  C       -0.8535850     0.4975420     0.0152200
  N       -2.2178950     0.6873840     0.0133320
  C       -2.7081200    -0.5423560     0.0003580
  N       -1.7302140    -1.5082770    -0.0075250
  N        2.9897250    -0.9823190    -0.0798750
  H        2.2637990     1.4140370    -0.1048620
  H       -3.7608500    -0.7938460    -0.0035590
  H       -1.8527810    -2.5141570    -0.0214260
  H        3.0642478    -2.0037203     0.0708889
  H        3.6422460    -0.4648460     0.5002060
units angstrom
no_reorient  #important for SAPT in psi4, default
symmetry c1  #important for SAPT in psi4, default
}

set PROPERTIES_ORIGIN ["COM"]
properties('MP2/aug-cc-pvtz', properties = ['dipole'])
--------------------------------------------------------------------------

    Molecular point group: c1
  Charge       = 0
  Multiplicity = 1
  Basis Set: AUG-CC-PVTZ
    Blend: AUG-CC-PVTZ
  Basis Set: (AUG-CC-PVTZ AUX)
    Blend: AUG-CC-PVTZ-JKFIT

    Orbital Energies [Eh]
    ---------------------

    Doubly Occupied:

       1A    -20.524364     2A    -15.636175     3A    -15.631953
       4A    -15.614084     5A    -15.573466     6A    -15.565259
       7A    -11.398517     8A    -11.367979     9A    -11.327514
      10A    -11.314256    11A    -11.251391    12A     -1.393444
      13A     -1.360886    14A     -1.335367    15A     -1.219090
      16A     -1.217682    17A     -1.178197    18A     -1.031006
      19A     -0.906664    20A     -0.884351    21A     -0.844931
      22A     -0.798822    23A     -0.740069    24A     -0.729671
      25A     -0.697987    26A     -0.671529    27A     -0.656001
      28A     -0.633702    29A     -0.614492    30A     -0.601384
      31A     -0.596530    32A     -0.547749    33A     -0.499722
      34A     -0.462202    35A     -0.443179    36A     -0.433059
      37A     -0.432556    38A     -0.412185    39A     -0.302821

  @DF-RHF Final Energy:  -539.58657697871138

   => Energetics <=

    Nuclear Repulsion Energy =            593.5474267018242926
    One-Electron Energy =               -1912.5675376481467538
    Two-Electron Energy =                 779.4335339676109697
    Total Energy =                       -539.5865769787113777
  Basis Set: (AUG-CC-PVTZ AUX)
    Blend: AUG-CC-PVTZ-RI
    Molecular point group: c1

    Geometry (in Angstrom), charge = 0, multiplicity = 1:

       Center              X                  Y                   Z               Mass
    ------------   -----------------  -----------------  -----------------  -----------------
         O            0.198390391512     2.668831652112    -0.005816946859    15.994914619570
         C            0.230896391512     1.444336652112     0.007082053141    12.000000000000
         N            1.487946391512     0.762421652112    -0.002226946859    14.003074004430
         C            1.691627391512    -0.595003347888     0.004682053141    12.000000000000
         N            0.726078391512    -1.481398347888     0.013963053141    14.003074004430
         C           -0.502718608488    -0.884962347888    -0.000849946859    12.000000000000
         C           -0.831574608488     0.469288652112     0.018081053141    12.000000000000
         N           -2.195884608488     0.659130652112     0.016193053141    14.003074004430
         C           -2.686109608488    -0.570609347888     0.003219053141    12.000000000000
         N           -1.708203608488    -1.536530347888    -0.004663946859    14.003074004430
         N            3.011735391512    -1.010572347888    -0.077013946859    14.003074004430
         H            2.285809391512     1.385783652112    -0.102000946859     1.007825032230
         H           -3.738839608488    -0.822099347888    -0.000697946859     1.007825032230
         H           -1.830770608488    -2.542410347888    -0.018564946859     1.007825032230
         H            3.086258191512    -2.031973647888     0.073749953141     1.007825032230
         H            3.664256391512    -0.493099347888     0.503067053141     1.007825032230

  Basis Set: AUG-CC-PVTZ
    Blend: AUG-CC-PVTZ
  Basis Set: (AUG-CC-PVTZ AUX)
    Blend: AUG-CC-PVTZ-JKFIT
	 Reference Energy          =    -539.5865769787113777 [Eh]
	 Singles Energy            =      -0.0000000000000000 [Eh]
	 Same-Spin Energy          =      -0.5731568119738025 [Eh]
	 Opposite-Spin Energy      =      -1.6635383172424862 [Eh]
	 Correlation Energy        =      -2.2366951292162889 [Eh]
	 Total Energy              =    -541.8232721079276644 [Eh]

	 ================> DF-SCS-MP2 Energies <==================
	-----------------------------------------------------------
	 SCS Same-Spin Scale       =       0.3333333333333333 [-]
	 SCS Opposite-Spin Scale   =       1.2000000000000000 [-]
	 SCS Same-Spin Energy      =      -0.1910522706579342 [Eh]
	 SCS Opposite-Spin Energy  =      -1.9962459806909834 [Eh]
	 SCS Correlation Energy    =      -2.1872982513489174 [Eh]
	 SCS Total Energy          =    -541.7738752300602982 [Eh]
	-----------------------------------------------------------

  Dipole Moment: [D]
     X:     2.6741      Y:    -5.6533      Z:     0.8440     Total:     6.3105

*** Psi4 exiting successfully. Buy a developer a beer!
