                               Psi4 1.3.2 release

  ==> Input File <==

--------------------------------------------------------------------------
#psi4
#
memory 32 gb

molecule  {
0 1
  O        0.1763910     2.6970700    -0.0085580
  C        0.2089260     1.4725840     0.0042240
  N        1.6417371     0.6953008    -0.0065179
  C        1.6696020    -0.5667920     0.0018180
  N        0.7040600    -1.4531590     0.0111340
  C       -0.5247500    -0.8567100    -0.0036900
  C       -0.8535700     0.4975280     0.0150930
  N       -2.2178770     0.6874110     0.0132550
  C       -2.7081380    -0.5423290     0.0003530
  N       -1.7302440    -1.5082620    -0.0074590
  N        2.9897270    -0.9822980    -0.0798890
  H        2.2638450     1.4140280    -0.1046570
  H       -3.7608750    -0.7937900    -0.0035550
  H       -1.8528420    -2.5141400    -0.0211820
  H        3.0628590    -1.9839740     0.0678780
  H        3.6422020    -0.4648880     0.5003130
units angstrom
no_reorient  #important for SAPT in psi4, default
symmetry c1  #important for SAPT in psi4, default
}

set PROPERTIES_ORIGIN ["COM"]
properties('MP2/aug-cc-pvtz', properties = ['dipole'])
--------------------------------------------------------------------------

    Molecular point group: c1
  Charge       = 0
  Multiplicity = 1
  Basis Set: AUG-CC-PVTZ
    Blend: AUG-CC-PVTZ
  Basis Set: (AUG-CC-PVTZ AUX)
    Blend: AUG-CC-PVTZ-JKFIT

    Orbital Energies [Eh]
    ---------------------

    Doubly Occupied:

       1A    -20.549918     2A    -15.637443     3A    -15.621322
       4A    -15.592718     5A    -15.568631     6A    -15.563869
       7A    -11.389387     8A    -11.382782     9A    -11.333281
      10A    -11.317445    11A    -11.255698    12A     -1.397803
      13A     -1.368632    14A     -1.350957    15A     -1.223127
      16A     -1.199842    17A     -1.182074    18A     -1.030954
      19A     -0.906497    20A     -0.892700    21A     -0.847979
      22A     -0.807546    23A     -0.742213    24A     -0.725538
      25A     -0.699431    26A     -0.668773    27A     -0.653574
      28A     -0.629951    29A     -0.615602    30A     -0.601285
      31A     -0.597670    32A     -0.548041    33A     -0.500722
      34A     -0.455736    35A     -0.447011    36A     -0.440090
      37A     -0.433705    38A     -0.415288    39A     -0.302978

  @DF-RHF Final Energy:  -539.54559633010592

   => Energetics <=

    Nuclear Repulsion Energy =            592.1844875604093659
    One-Electron Energy =               -1909.6637420644347003
    Two-Electron Energy =                 777.9336581739195253
    Total Energy =                       -539.5455963301059228
  Basis Set: (AUG-CC-PVTZ AUX)
    Blend: AUG-CC-PVTZ-RI
    Molecular point group: c1

    Geometry (in Angstrom), charge = 0, multiplicity = 1:

       Center              X                  Y                   Z               Mass
    ------------   -----------------  -----------------  -----------------  -----------------
         O            0.182113956952     2.677526350269    -0.005552572494    15.994914619570
         C            0.214648956952     1.453040350269     0.007229427506    12.000000000000
         N            1.647460056952     0.675757150269    -0.003512472494    14.003074004430
         C            1.675324956952    -0.586335649731     0.004823427506    12.000000000000
         N            0.709782956952    -1.472702649731     0.014139427506    14.003074004430
         C           -0.519027043048    -0.876253649731    -0.000684572494    12.000000000000
         C           -0.847847043048     0.477984350269     0.018098427506    12.000000000000
         N           -2.212154043048     0.667867350269     0.016260427506    14.003074004430
         C           -2.702415043048    -0.561872649731     0.003358427506    12.000000000000
         N           -1.724521043048    -1.527805649731    -0.004453572494    14.003074004430
         N            2.995449956952    -1.001841649731    -0.076883572494    14.003074004430
         H            2.269567956952     1.394484350269    -0.101651572494     1.007825032230
         H           -3.755152043048    -0.813333649731    -0.000549572494     1.007825032230
         H           -1.847119043048    -2.533683649731    -0.018176572494     1.007825032230
         H            3.068581956952    -2.003517649731     0.070883427506     1.007825032230
         H            3.647924956952    -0.484431649731     0.503318427506     1.007825032230

  Basis Set: AUG-CC-PVTZ
    Blend: AUG-CC-PVTZ
  Basis Set: (AUG-CC-PVTZ AUX)
    Blend: AUG-CC-PVTZ-JKFIT
	 Reference Energy          =    -539.5455963301059228 [Eh]
	 Singles Energy            =      -0.0000000000000000 [Eh]
	 Same-Spin Energy          =      -0.5741876023768747 [Eh]
	 Opposite-Spin Energy      =      -1.6665379462573604 [Eh]
	 Correlation Energy        =      -2.2407255486342352 [Eh]
	 Total Energy              =    -541.7863218787401820 [Eh]

	 ================> DF-SCS-MP2 Energies <==================
	-----------------------------------------------------------
	 SCS Same-Spin Scale       =       0.3333333333333333 [-]
	 SCS Opposite-Spin Scale   =       1.2000000000000000 [-]
	 SCS Same-Spin Energy      =      -0.1913958674589582 [Eh]
	 SCS Opposite-Spin Energy  =      -1.9998455355088325 [Eh]
	 SCS Correlation Energy    =      -2.1912414029677909 [Eh]
	 SCS Total Energy          =    -541.7368377330736848 [Eh]
	-----------------------------------------------------------

  Dipole Moment: [D]
     X:     1.9934      Y:    -4.7363      Z:     0.8314     Total:     5.2055

*** Psi4 exiting successfully. Buy a developer a beer!
