                               Psi4 1.3.2 release

  ==> Input File <==

--------------------------------------------------------------------------
#psi4
#
memory 32 gb

molecule  {
0 1
  O        0.1763910     2.6970700    -0.0085580
  C        0.2089260     1.4725840     0.0042240
  N        1.4538512     0.7688323    -0.0050562
  C        1.6696020    -0.5667920     0.0018180
  N        0.7040600    -1.4531590     0.0111340
  C       -0.5247500    -0.8567100    -0.0036900
  C       -0.8535700     0.4975280     0.0150930
  N       -2.2178770     0.6874110     0.0132550
  C       -2.7081380    -0.5423290     0.0003530
  N       -1.7302440    -1.5082620    -0.0074590
  N        2.9897270    -0.9822980    -0.0798890
  H        2.2638450     1.4140280    -0.1046570
  H       -3.7608750    -0.7937900    -0.0035550
  H       -1.8528420    -2.5141400    -0.0211820
  H        3.0628590    -1.9839740     0.0678780
  H        3.6422020    -0.4648880     0.5003130
units angstrom
no_reorient  #important for SAPT in psi4, default
symmetry c1  #important for SAPT in psi4, default
}

set PROPERTIES_ORIGIN ["COM"]
properties('MP2/aug-cc-pvtz', properties = ['dipole'])
--------------------------------------------------------------------------

    Molecular point group: c1
  Charge       = 0
  Multiplicity = 1
  Basis Set: AUG-CC-PVTZ
    Blend: AUG-CC-PVTZ
  Basis Set: (AUG-CC-PVTZ AUX)
    Blend: AUG-CC-PVTZ-JKFIT

    Orbital Energies [Eh]
    ---------------------

    Doubly Occupied:

       1A    -20.526148     2A    -15.635646     3A    -15.634176
       4A    -15.611966     5A    -15.571591     6A    -15.564736
       7A    -11.396386     8A    -11.369127     9A    -11.327057
      10A    -11.314124    11A    -11.250859    12A     -1.395180
      13A     -1.361012    14A     -1.338126    15A     -1.221903
      16A     -1.217427    17A     -1.177518    18A     -1.032070
      19A     -0.907865    20A     -0.886022    21A     -0.844591
      22A     -0.799827    23A     -0.736325    24A     -0.730682
      25A     -0.700219    26A     -0.674026    27A     -0.657615
      28A     -0.631780    29A     -0.616092    30A     -0.600524
      31A     -0.597123    32A     -0.547953    33A     -0.498618
      34A     -0.462769    35A     -0.444102    36A     -0.433471
      37A     -0.432863    38A     -0.411625    39A     -0.302561

  @DF-RHF Final Energy:  -539.58615971936536

   => Energetics <=

    Nuclear Repulsion Energy =            594.1344186276373875
    One-Electron Energy =               -1913.7177506064344925
    Two-Electron Energy =                 779.9971722594317498
    Total Energy =                       -539.5861597193653552
  Basis Set: (AUG-CC-PVTZ AUX)
    Blend: AUG-CC-PVTZ-RI
    Molecular point group: c1

    Geometry (in Angstrom), charge = 0, multiplicity = 1:

       Center              X                  Y                   Z               Mass
    ------------   -----------------  -----------------  -----------------  -----------------
         O            0.199531967162     2.670709593835    -0.005688079765    15.994914619570
         C            0.232066967162     1.446223593835     0.007093920235    12.000000000000
         N            1.476992167162     0.742471893835    -0.002186279765    14.003074004430
         C            1.692742967162    -0.593152406165     0.004687920235    12.000000000000
         N            0.727200967162    -1.479519406165     0.014003920235    14.003074004430
         C           -0.501609032838    -0.883070406165    -0.000820079765    12.000000000000
         C           -0.830429032838     0.471167593835     0.017962920235    12.000000000000
         N           -2.194736032838     0.661050593835     0.016124920235    14.003074004430
         C           -2.684997032838    -0.568689406165     0.003222920235    12.000000000000
         N           -1.707103032838    -1.534622406165    -0.004589079765    14.003074004430
         N            3.012867967162    -1.008658406165    -0.077019079765    14.003074004430
         H            2.286985967162     1.387667593835    -0.101787079765     1.007825032230
         H           -3.737734032838    -0.820150406165    -0.000685079765     1.007825032230
         H           -1.829701032838    -2.540500406165    -0.018312079765     1.007825032230
         H            3.085999967162    -2.010334406165     0.070747920235     1.007825032230
         H            3.665342967162    -0.491248406165     0.503182920235     1.007825032230

  Basis Set: AUG-CC-PVTZ
    Blend: AUG-CC-PVTZ
  Basis Set: (AUG-CC-PVTZ AUX)
    Blend: AUG-CC-PVTZ-JKFIT
	 Reference Energy          =    -539.5861597193653552 [Eh]
	 Singles Energy            =      -0.0000000000000000 [Eh]
	 Same-Spin Energy          =      -0.5733963941559594 [Eh]
	 Opposite-Spin Energy      =      -1.6635550383480529 [Eh]
	 Correlation Energy        =      -2.2369514325040125 [Eh]
	 Total Energy              =    -541.8231111518693979 [Eh]

	 ================> DF-SCS-MP2 Energies <==================
	-----------------------------------------------------------
	 SCS Same-Spin Scale       =       0.3333333333333333 [-]
	 SCS Opposite-Spin Scale   =       1.2000000000000000 [-]
	 SCS Same-Spin Energy      =      -0.1911321313853198 [Eh]
	 SCS Opposite-Spin Energy  =      -1.9962660460176633 [Eh]
	 SCS Correlation Energy    =      -2.1873981774029829 [Eh]
	 SCS Total Energy          =    -541.7735578967683523 [Eh]
	-----------------------------------------------------------

  Dipole Moment: [D]
     X:     2.6849      Y:    -5.5621      Z:     0.8473     Total:     6.2341

*** Psi4 exiting successfully. Buy a developer a beer!
