                               Psi4 1.4a3.dev225

  ==> Input File <==

--------------------------------------------------------------------------
#psi4
#
memory 32 gb

molecule  {
0 1
  O        0.1763800     2.6970850    -0.0086780
  C        0.2088860     1.4725900     0.0042210
  N        1.4659360     0.7906750    -0.0050880
  C        1.6696170    -0.5667500     0.0018210
  N        0.6893352    -1.4666700     0.0112436
  C       -0.5247290    -0.8567090    -0.0037110
  C       -0.8535850     0.4975420     0.0152200
  N       -2.2178950     0.6873840     0.0133320
  C       -2.7081200    -0.5423560     0.0003580
  N       -1.7302140    -1.5082770    -0.0075250
  N        2.9897250    -0.9823190    -0.0798750
  H        2.2637990     1.4140370    -0.1048620
  H       -3.7608500    -0.7938460    -0.0035590
  H       -1.8527810    -2.5141570    -0.0214260
  H        3.0628080    -1.9839860     0.0679760
  H        3.6422460    -0.4648460     0.5002060
units angstrom
no_reorient  #important for SAPT in psi4, default
symmetry c1  #important for SAPT in psi4, default
}

set PROPERTIES_ORIGIN ["COM"]
properties('MP2/aug-cc-pvtz', properties = ['dipole'])
--------------------------------------------------------------------------

    Molecular point group: c1
  Charge       = 0
  Multiplicity = 1
  Basis Set: AUG-CC-PVTZ
    Blend: AUG-CC-PVTZ
  Basis Set: (AUG-CC-PVTZ AUX)
    Blend: AUG-CC-PVTZ-JKFIT

    Orbital Energies [Eh]
    ---------------------

    Doubly Occupied:

       1A    -20.524203     2A    -15.634328     3A    -15.634283
       4A    -15.614949     5A    -15.575143     6A    -15.564408
       7A    -11.402970     8A    -11.367910     9A    -11.326391
      10A    -11.313353    11A    -11.250373    12A     -1.393236
      13A     -1.360290    14A     -1.334600    15A     -1.222338
      16A     -1.218232    17A     -1.176704    18A     -1.029679
      19A     -0.906133    20A     -0.887084    21A     -0.844044
      22A     -0.797847    23A     -0.740923    24A     -0.730381
      25A     -0.701484    26A     -0.673461    27A     -0.655775
      28A     -0.632157    29A     -0.614419    30A     -0.600901
      31A     -0.595987    32A     -0.547540    33A     -0.500597
      34A     -0.463413    35A     -0.443470    36A     -0.433632
      37A     -0.432634    38A     -0.411366    39A     -0.300727

  @DF-RHF Final Energy:  -539.58598587905158

   => Energetics <=

    Nuclear Repulsion Energy =            593.3562355140800264
    One-Electron Energy =               -1912.1697207214326681
    Two-Electron Energy =                 779.2274993283010645
    Total Energy =                       -539.5859858790515773
  Basis Set: (AUG-CC-PVTZ AUX)
    Blend: AUG-CC-PVTZ-RI
    Molecular point group: c1

    Geometry (in Angstrom), charge = 0, multiplicity = 1:

       Center              X                  Y                   Z               Mass
    ------------   -----------------  -----------------  -----------------  -----------------
         O            0.199765806056     2.669953820378    -0.005810638604    15.994914619570
         C            0.232271806056     1.445458820378     0.007088361396    12.000000000000
         N            1.489321806056     0.763543820378    -0.002220638604    14.003074004430
         C            1.693002806056    -0.593881179622     0.004688361396    12.000000000000
         N            0.712721006056    -1.493801179622     0.014110961396    14.003074004430
         C           -0.501343193944    -0.883840179622    -0.000843638604    12.000000000000
         C           -0.830199193944     0.470410820378     0.018087361396    12.000000000000
         N           -2.194509193944     0.660252820378     0.016199361396    14.003074004430
         C           -2.684734193944    -0.569487179622     0.003225361396    12.000000000000
         N           -1.706828193944    -1.535408179622    -0.004657638604    14.003074004430
         N            3.013110806056    -1.009450179622    -0.077007638604    14.003074004430
         H            2.287184806056     1.386905820378    -0.101994638604     1.007825032230
         H           -3.737464193944    -0.820977179622    -0.000691638604     1.007825032230
         H           -1.829395193944    -2.541288179622    -0.018558638604     1.007825032230
         H            3.086193806056    -2.011117179622     0.070843361396     1.007825032230
         H            3.665631806056    -0.491977179622     0.503073361396     1.007825032230

  Basis Set: AUG-CC-PVTZ
    Blend: AUG-CC-PVTZ
  Basis Set: (AUG-CC-PVTZ AUX)
    Blend: AUG-CC-PVTZ-JKFIT
	 Reference Energy          =    -539.5859858790515773 [Eh]
	 Singles Energy            =      -0.0000000000000000 [Eh]
	 Same-Spin Energy          =      -0.5733120783512436 [Eh]
	 Opposite-Spin Energy      =      -1.6637213409421687 [Eh]
	 Correlation Energy        =      -2.2370334192934123 [Eh]
	 Total Energy              =    -541.8230192983450024 [Eh]

	 ================> DF-SCS-MP2 Energies <==================
	-----------------------------------------------------------
	 SCS Same-Spin Scale       =       0.3333333333333333 [-]
	 SCS Opposite-Spin Scale   =       1.2000000000000000 [-]
	 SCS Same-Spin Energy      =      -0.1911040261170812 [Eh]
	 SCS Opposite-Spin Energy  =      -1.9964656091306023 [Eh]
	 SCS Correlation Energy    =      -2.1875696352476837 [Eh]
	 SCS Total Energy          =    -541.7735555142992325 [Eh]
	-----------------------------------------------------------

  Dipole Moment: [D]
     X:     2.7775      Y:    -5.6112      Z:     0.8412     Total:     6.3173

*** Psi4 exiting successfully. Buy a developer a beer!
