                               Psi4 1.3.2 release

  ==> Input File <==

--------------------------------------------------------------------------
#psi4
#
memory 32 gb

molecule  {
0 1
  O        0.1763910     2.6970700    -0.0085580
  C        0.2089260     1.4725840     0.0042240
  N        1.4659430     0.7906670    -0.0052000
  C        1.6696020    -0.5667920     0.0018180
  N        0.7040600    -1.4531590     0.0111340
  C       -0.4347929    -0.9003740    -0.0026048
  C       -0.8535700     0.4975280     0.0150930
  N       -2.2178770     0.6874110     0.0132550
  C       -2.7081380    -0.5423290     0.0003530
  N       -1.7302440    -1.5082620    -0.0074590
  N        2.9897270    -0.9822980    -0.0798890
  H        2.2638450     1.4140280    -0.1046570
  H       -3.7608750    -0.7937900    -0.0035550
  H       -1.8528420    -2.5141400    -0.0211820
  H        3.0628590    -1.9839740     0.0678780
  H        3.6422020    -0.4648880     0.5003130
units angstrom
no_reorient  #important for SAPT in psi4, default
symmetry c1  #important for SAPT in psi4, default
}

set PROPERTIES_ORIGIN ["COM"]
properties('MP2/aug-cc-pvtz', properties = ['dipole'])
--------------------------------------------------------------------------

    Molecular point group: c1
  Charge       = 0
  Multiplicity = 1
  Basis Set: AUG-CC-PVTZ
    Blend: AUG-CC-PVTZ
  Basis Set: (AUG-CC-PVTZ AUX)
    Blend: AUG-CC-PVTZ-JKFIT

    Orbital Energies [Eh]
    ---------------------

    Doubly Occupied:

       1A    -20.516746     2A    -15.638015     3A    -15.629562
       4A    -15.619032     5A    -15.577769     6A    -15.562688
       7A    -11.408779     8A    -11.361687     9A    -11.334988
      10A    -11.313098    11A    -11.253463    12A     -1.396499
      13A     -1.357809    14A     -1.330038    15A     -1.246920
      16A     -1.224877    17A     -1.169775    18A     -1.021991
      19A     -0.910608    20A     -0.894189    21A     -0.834718
      22A     -0.803738    23A     -0.741272    24A     -0.732859
      25A     -0.699872    26A     -0.671923    27A     -0.659617
      28A     -0.637751    29A     -0.608248    30A     -0.596760
      31A     -0.588929    32A     -0.550373    33A     -0.504575
      34A     -0.477452    35A     -0.441857    36A     -0.438338
      37A     -0.424941    38A     -0.406906    39A     -0.288269

  @DF-RHF Final Energy:  -539.56772172819797

   => Energetics <=

    Nuclear Repulsion Energy =            593.4262455218675996
    One-Electron Energy =               -1912.2340736465434929
    Two-Electron Energy =                 779.2401063964778132
    Total Energy =                       -539.5677217281979665
  Basis Set: (AUG-CC-PVTZ AUX)
    Blend: AUG-CC-PVTZ-RI
    Molecular point group: c1

    Geometry (in Angstrom), charge = 0, multiplicity = 1:

       Center              X                  Y                   Z               Mass
    ------------   -----------------  -----------------  -----------------  -----------------
         O            0.191264423635     2.672154254097    -0.005760961599    15.994914619570
         C            0.223799423635     1.447668254097     0.007021038401    12.000000000000
         N            1.480816423635     0.765751254097    -0.002402961599    14.003074004430
         C            1.684475423635    -0.591707745903     0.004615038401    12.000000000000
         N            0.718933423635    -1.478074745903     0.013931038401    14.003074004430
         C           -0.419919476365    -0.925289745903     0.000192238401    12.000000000000
         C           -0.838696576365     0.472612254097     0.017890038401    12.000000000000
         N           -2.203003576365     0.662495254097     0.016052038401    14.003074004430
         C           -2.693264576365    -0.567244745903     0.003150038401    12.000000000000
         N           -1.715370576365    -1.533177745903    -0.004661961599    14.003074004430
         N            3.004600423635    -1.007213745903    -0.077091961599    14.003074004430
         H            2.278718423635     1.389112254097    -0.101859961599     1.007825032230
         H           -3.746001576365    -0.818705745903    -0.000757961599     1.007825032230
         H           -1.837968576365    -2.539055745903    -0.018384961599     1.007825032230
         H            3.077732423635    -2.008889745903     0.070675038401     1.007825032230
         H            3.657075423635    -0.489803745903     0.503110038401     1.007825032230

  Basis Set: AUG-CC-PVTZ
    Blend: AUG-CC-PVTZ
  Basis Set: (AUG-CC-PVTZ AUX)
    Blend: AUG-CC-PVTZ-JKFIT
	 Reference Energy          =    -539.5677217281979665 [Eh]
	 Singles Energy            =      -0.0000000000000000 [Eh]
	 Same-Spin Energy          =      -0.5752668656079217 [Eh]
	 Opposite-Spin Energy      =      -1.6650296372438329 [Eh]
	 Correlation Energy        =      -2.2402965028517547 [Eh]
	 Total Energy              =    -541.8080182310496866 [Eh]

	 ================> DF-SCS-MP2 Energies <==================
	-----------------------------------------------------------
	 SCS Same-Spin Scale       =       0.3333333333333333 [-]
	 SCS Opposite-Spin Scale   =       1.2000000000000000 [-]
	 SCS Same-Spin Energy      =      -0.1917556218693072 [Eh]
	 SCS Opposite-Spin Energy  =      -1.9980355646925994 [Eh]
	 SCS Correlation Energy    =      -2.1897911865619064 [Eh]
	 SCS Total Energy          =    -541.7575129147599000 [Eh]
	-----------------------------------------------------------

  Dipole Moment: [D]
     X:     3.0719      Y:    -5.7921      Z:     0.8471     Total:     6.6108

*** Psi4 exiting successfully. Buy a developer a beer!
