                               Psi4 1.3.2 release

  ==> Input File <==

--------------------------------------------------------------------------
#psi4
#
memory 32 gb

molecule  {
0 1
  O        0.1763910     2.6970700    -0.0085580
  C        0.2089260     1.4725840     0.0042240
  N        1.6086324     0.8044205    -0.0149216
  C        1.6696020    -0.5667920     0.0018180
  N        0.7040600    -1.4531590     0.0111340
  C       -0.5247500    -0.8567100    -0.0036900
  C       -0.8535700     0.4975280     0.0150930
  N       -2.2178770     0.6874110     0.0132550
  C       -2.7081380    -0.5423290     0.0003530
  N       -1.7302440    -1.5082620    -0.0074590
  N        2.9897270    -0.9822980    -0.0798890
  H        2.2638450     1.4140280    -0.1046570
  H       -3.7608750    -0.7937900    -0.0035550
  H       -1.8528420    -2.5141400    -0.0211820
  H        3.0628590    -1.9839740     0.0678780
  H        3.6422020    -0.4648880     0.5003130
units angstrom
no_reorient  #important for SAPT in psi4, default
symmetry c1  #important for SAPT in psi4, default
}

set PROPERTIES_ORIGIN ["COM"]
properties('MP2/aug-cc-pvtz', properties = ['dipole'])
--------------------------------------------------------------------------

    Molecular point group: c1
  Charge       = 0
  Multiplicity = 1
  Basis Set: AUG-CC-PVTZ
    Blend: AUG-CC-PVTZ
  Basis Set: (AUG-CC-PVTZ AUX)
    Blend: AUG-CC-PVTZ-JKFIT

    Orbital Energies [Eh]
    ---------------------

    Doubly Occupied:

       1A    -20.535115     2A    -15.639148     3A    -15.617426
       4A    -15.603030     5A    -15.574987     6A    -15.569229
       7A    -11.398635     8A    -11.378882     9A    -11.332933
      10A    -11.317021    11A    -11.256157    12A     -1.390243
      13A     -1.364476    14A     -1.336100    15A     -1.224093
      16A     -1.206868    17A     -1.183018    18A     -1.030801
      19A     -0.912663    20A     -0.877799    21A     -0.848566
      22A     -0.805223    23A     -0.752909    24A     -0.726203
      25A     -0.699390    26A     -0.668248    27A     -0.651256
      28A     -0.633771    29A     -0.613005    30A     -0.606993
      31A     -0.594259    32A     -0.545207    33A     -0.504350
      34A     -0.459218    35A     -0.444342    36A     -0.435905
      37A     -0.435053    38A     -0.415854    39A     -0.304603

  @DF-RHF Final Energy:  -539.55927819919441

   => Energetics <=

    Nuclear Repulsion Energy =            591.1377306705589945
    One-Electron Energy =               -1907.6080637367363124
    Two-Electron Energy =                 776.9110548669829086
    Total Energy =                       -539.5592781991944094
  Basis Set: (AUG-CC-PVTZ AUX)
    Blend: AUG-CC-PVTZ-RI
    Molecular point group: c1

    Geometry (in Angstrom), charge = 0, multiplicity = 1:

       Center              X                  Y                   Z               Mass
    ------------   -----------------  -----------------  -----------------  -----------------
         O            0.185182936597     2.667410380690    -0.004773505346    15.994914619570
         C            0.217717936597     1.442924380690     0.008008494654    12.000000000000
         N            1.617424336597     0.774760880690    -0.011137105346    14.003074004430
         C            1.678393936597    -0.596451619310     0.005602494654    12.000000000000
         N            0.712851936597    -1.482818619310     0.014918494654    14.003074004430
         C           -0.515958063403    -0.886369619310     0.000094494654    12.000000000000
         C           -0.844778063403     0.467868380690     0.018877494654    12.000000000000
         N           -2.209085063403     0.657751380690     0.017039494654    14.003074004430
         C           -2.699346063403    -0.571988619310     0.004137494654    12.000000000000
         N           -1.721452063403    -1.537921619310    -0.003674505346    14.003074004430
         N            2.998518936597    -1.011957619310    -0.076104505346    14.003074004430
         H            2.272636936597     1.384368380690    -0.100872505346     1.007825032230
         H           -3.752083063403    -0.823449619310     0.000229494654     1.007825032230
         H           -1.844050063403    -2.543799619310    -0.017397505346     1.007825032230
         H            3.071650936597    -2.013633619310     0.071662494654     1.007825032230
         H            3.650993936597    -0.494547619310     0.504097494654     1.007825032230

  Basis Set: AUG-CC-PVTZ
    Blend: AUG-CC-PVTZ
  Basis Set: (AUG-CC-PVTZ AUX)
    Blend: AUG-CC-PVTZ-JKFIT
	 Reference Energy          =    -539.5592781991944094 [Eh]
	 Singles Energy            =      -0.0000000000000000 [Eh]
	 Same-Spin Energy          =      -0.5724531046914613 [Eh]
	 Opposite-Spin Energy      =      -1.6642646733975770 [Eh]
	 Correlation Energy        =      -2.2367177780890382 [Eh]
	 Total Energy              =    -541.7959959772834964 [Eh]

	 ================> DF-SCS-MP2 Energies <==================
	-----------------------------------------------------------
	 SCS Same-Spin Scale       =       0.3333333333333333 [-]
	 SCS Opposite-Spin Scale   =       1.2000000000000000 [-]
	 SCS Same-Spin Energy      =      -0.1908177015638204 [Eh]
	 SCS Opposite-Spin Energy  =      -1.9971176080770923 [Eh]
	 SCS Correlation Energy    =      -2.1879353096409129 [Eh]
	 SCS Total Energy          =    -541.7472135088353298 [Eh]
	-----------------------------------------------------------

  Dipole Moment: [D]
     X:     2.1723      Y:    -5.3735      Z:     0.8354     Total:     5.8559

*** Psi4 exiting successfully. Buy a developer a beer!
