                               Psi4 1.3.2 release

  ==> Input File <==

--------------------------------------------------------------------------
#psi4
#
memory 32 gb

molecule  {
0 1
  O        0.1336784     2.6951947    -0.0079674
  C        0.2089260     1.4725840     0.0042240
  N        1.4659430     0.7906670    -0.0052000
  C        1.6696020    -0.5667920     0.0018180
  N        0.7040600    -1.4531590     0.0111340
  C       -0.5247500    -0.8567100    -0.0036900
  C       -0.8535700     0.4975280     0.0150930
  N       -2.2178770     0.6874110     0.0132550
  C       -2.7081380    -0.5423290     0.0003530
  N       -1.7302440    -1.5082620    -0.0074590
  N        2.9897270    -0.9822980    -0.0798890
  H        2.2638450     1.4140280    -0.1046570
  H       -3.7608750    -0.7937900    -0.0035550
  H       -1.8528420    -2.5141400    -0.0211820
  H        3.0628590    -1.9839740     0.0678780
  H        3.6422020    -0.4648880     0.5003130
units angstrom
no_reorient  #important for SAPT in psi4, default
symmetry c1  #important for SAPT in psi4, default
}

set PROPERTIES_ORIGIN ["COM"]
properties('MP2/aug-cc-pvtz', properties = ['dipole'])
--------------------------------------------------------------------------

    Molecular point group: c1
  Charge       = 0
  Multiplicity = 1
  Basis Set: AUG-CC-PVTZ
    Blend: AUG-CC-PVTZ
  Basis Set: (AUG-CC-PVTZ AUX)
    Blend: AUG-CC-PVTZ-JKFIT

    Orbital Energies [Eh]
    ---------------------

    Doubly Occupied:

       1A    -20.524723     2A    -15.635507     3A    -15.633831
       4A    -15.612810     5A    -15.573889     6A    -15.564509
       7A    -11.399243     8A    -11.367909     9A    -11.326343
      10A    -11.313630    11A    -11.250065    12A     -1.393061
      13A     -1.360212    14A     -1.336452    15A     -1.221972
      16A     -1.218563    17A     -1.177652    18A     -1.030542
      19A     -0.906509    20A     -0.885878    21A     -0.844221
      22A     -0.799377    23A     -0.740832    24A     -0.730346
      25A     -0.700660    26A     -0.673046    27A     -0.656367
      28A     -0.633896    29A     -0.614592    30A     -0.600722
      31A     -0.596394    32A     -0.547958    33A     -0.499585
      34A     -0.462758    35A     -0.443281    36A     -0.433585
      37A     -0.431856    38A     -0.411408    39A     -0.302159

  @DF-RHF Final Energy:  -539.58699263192727

   => Energetics <=

    Nuclear Repulsion Energy =            593.7059704769760629
    One-Electron Energy =               -1912.8732372266567836
    Two-Electron Energy =                 779.5802741177534472
    Total Energy =                       -539.5869926319272736
  Basis Set: (AUG-CC-PVTZ AUX)
    Blend: AUG-CC-PVTZ-RI
    Molecular point group: c1

    Geometry (in Angstrom), charge = 0, multiplicity = 1:

       Center              X                  Y                   Z               Mass
    ------------   -----------------  -----------------  -----------------  -----------------
         O            0.160221313721     2.667008681560    -0.005146688528    15.994914619570
         C            0.235468913721     1.444397981560     0.007044711472    12.000000000000
         N            1.492485913721     0.762480981560    -0.002379288528    14.003074004430
         C            1.696144913721    -0.594978018440     0.004638711472    12.000000000000
         N            0.730602913721    -1.481345018440     0.013954711472    14.003074004430
         C           -0.498207086279    -0.884896018440    -0.000869288528    12.000000000000
         C           -0.827027086279     0.469341981560     0.017913711472    12.000000000000
         N           -2.191334086279     0.659224981560     0.016075711472    14.003074004430
         C           -2.681595086279    -0.570515018440     0.003173711472    12.000000000000
         N           -1.703701086279    -1.536448018440    -0.004638288528    14.003074004430
         N            3.016269913721    -1.010484018440    -0.077068288528    14.003074004430
         H            2.290387913721     1.385841981560    -0.101836288528     1.007825032230
         H           -3.734332086279    -0.821976018440    -0.000734288528     1.007825032230
         H           -1.826299086279    -2.542326018440    -0.018361288528     1.007825032230
         H            3.089401913721    -2.012160018440     0.070698711472     1.007825032230
         H            3.668744913721    -0.493074018440     0.503133711472     1.007825032230

  Basis Set: AUG-CC-PVTZ
    Blend: AUG-CC-PVTZ
  Basis Set: (AUG-CC-PVTZ AUX)
    Blend: AUG-CC-PVTZ-JKFIT
	 Reference Energy          =    -539.5869926319272736 [Eh]
	 Singles Energy            =      -0.0000000000000000 [Eh]
	 Same-Spin Energy          =      -0.5731264381653036 [Eh]
	 Opposite-Spin Energy      =      -1.6634049794618466 [Eh]
	 Correlation Energy        =      -2.2365314176271500 [Eh]
	 Total Energy              =    -541.8235240495544076 [Eh]

	 ================> DF-SCS-MP2 Energies <==================
	-----------------------------------------------------------
	 SCS Same-Spin Scale       =       0.3333333333333333 [-]
	 SCS Opposite-Spin Scale   =       1.2000000000000000 [-]
	 SCS Same-Spin Energy      =      -0.1910421460551012 [Eh]
	 SCS Opposite-Spin Energy  =      -1.9960859753542159 [Eh]
	 SCS Correlation Energy    =      -2.1871281214093172 [Eh]
	 SCS Total Energy          =    -541.7741207533365468 [Eh]
	-----------------------------------------------------------

  Dipole Moment: [D]
     X:     2.7622      Y:    -5.6122      Z:     0.8430     Total:     6.3117

*** Psi4 exiting successfully. Buy a developer a beer!
