                               Psi4 1.3.2 release

  ==> Input File <==

--------------------------------------------------------------------------
#psi4
#
memory 32 gb

molecule  {
0 1
  O        0.1763910     2.6970700    -0.0085580
  C        0.2089260     1.4725840     0.0042240
  N        1.4659430     0.7906670    -0.0052000
  C        1.6696020    -0.5667920     0.0018180
  N        0.7040600    -1.4531590     0.0111340
  C       -0.5247500    -0.8567100    -0.0036900
  C       -0.8535700     0.4975280     0.0150930
  N       -2.2178770     0.6874110     0.0132550
  C       -2.7081380    -0.5423290     0.0003530
  N       -1.7302440    -1.5082620    -0.0074590
  N        2.9897270    -0.9822980    -0.0798890
  H        2.2638450     1.4140280    -0.1046570
  H       -3.7608750    -0.7937900    -0.0035550
  H       -1.8528420    -2.5141400    -0.0211820
  H        2.9858404    -1.9946449    -0.0045448
  H        3.6422020    -0.4648880     0.5003130
units angstrom
no_reorient  #important for SAPT in psi4, default
symmetry c1  #important for SAPT in psi4, default
}

set PROPERTIES_ORIGIN ["COM"]
properties('MP2/aug-cc-pvtz', properties = ['dipole'])
--------------------------------------------------------------------------

    Molecular point group: c1
  Charge       = 0
  Multiplicity = 1
  Basis Set: AUG-CC-PVTZ
    Blend: AUG-CC-PVTZ
  Basis Set: (AUG-CC-PVTZ AUX)
    Blend: AUG-CC-PVTZ-JKFIT

    Orbital Energies [Eh]
    ---------------------

    Doubly Occupied:

       1A    -20.524300     2A    -15.636342     3A    -15.631402
       4A    -15.611938     5A    -15.573830     6A    -15.565363
       7A    -11.397658     8A    -11.367778     9A    -11.327783
      10A    -11.314319    11A    -11.251461    12A     -1.393497
      13A     -1.361028    14A     -1.336143    15A     -1.220764
      16A     -1.218196    17A     -1.178308    18A     -1.030911
      19A     -0.907055    20A     -0.883095    21A     -0.845097
      22A     -0.801493    23A     -0.740363    24A     -0.727154
      25A     -0.704995    26A     -0.673987    27A     -0.656011
      28A     -0.633295    29A     -0.614658    30A     -0.601396
      31A     -0.596554    32A     -0.547494    33A     -0.500204
      34A     -0.461517    35A     -0.443280    36A     -0.433073
      37A     -0.432545    38A     -0.412319    39A     -0.302930

  @DF-RHF Final Energy:  -539.58631715670595

   => Energetics <=

    Nuclear Repulsion Energy =            593.8057923918868255
    One-Electron Energy =               -1913.0651491005166918
    Two-Electron Energy =                 779.6730395519239210
    Total Energy =                       -539.5863171567059453
  Basis Set: (AUG-CC-PVTZ AUX)
    Blend: AUG-CC-PVTZ-RI
    Molecular point group: c1

    Geometry (in Angstrom), charge = 0, multiplicity = 1:

       Center              X                  Y                   Z               Mass
    ------------   -----------------  -----------------  -----------------  -----------------
         O            0.198924873779     2.668756600306    -0.005191532623    15.994914619570
         C            0.231459873779     1.444270600306     0.007590467377    12.000000000000
         N            1.488476873779     0.762353600306    -0.001833532623    14.003074004430
         C            1.692135873779    -0.595105399694     0.005184467377    12.000000000000
         N            0.726593873779    -1.481472399694     0.014500467377    14.003074004430
         C           -0.502216126221    -0.885023399694    -0.000323532623    12.000000000000
         C           -0.831036126221     0.469214600306     0.018459467377    12.000000000000
         N           -2.195343126221     0.659097600306     0.016621467377    14.003074004430
         C           -2.685604126221    -0.570642399694     0.003719467377    12.000000000000
         N           -1.707710126221    -1.536575399694    -0.004092532623    14.003074004430
         N            3.012260873779    -1.010611399694    -0.076522532623    14.003074004430
         H            2.286378873779     1.385714600306    -0.101290532623     1.007825032230
         H           -3.738341126221    -0.822103399694    -0.000188532623     1.007825032230
         H           -1.830308126221    -2.542453399694    -0.017815532623     1.007825032230
         H            3.008374273779    -2.022958299694    -0.001178332623     1.007825032230
         H            3.664735873779    -0.493201399694     0.503679467377     1.007825032230

  Basis Set: AUG-CC-PVTZ
    Blend: AUG-CC-PVTZ
  Basis Set: (AUG-CC-PVTZ AUX)
    Blend: AUG-CC-PVTZ-JKFIT
	 Reference Energy          =    -539.5863171567059453 [Eh]
	 Singles Energy            =      -0.0000000000000000 [Eh]
	 Same-Spin Energy          =      -0.5731683241439112 [Eh]
	 Opposite-Spin Energy      =      -1.6633333316179337 [Eh]
	 Correlation Energy        =      -2.2365016557618449 [Eh]
	 Total Energy              =    -541.8228188124677445 [Eh]

	 ================> DF-SCS-MP2 Energies <==================
	-----------------------------------------------------------
	 SCS Same-Spin Scale       =       0.3333333333333333 [-]
	 SCS Opposite-Spin Scale   =       1.2000000000000000 [-]
	 SCS Same-Spin Energy      =      -0.1910561080479704 [Eh]
	 SCS Opposite-Spin Energy  =      -1.9959999979415204 [Eh]
	 SCS Correlation Energy    =      -2.1870561059894906 [Eh]
	 SCS Total Energy          =    -541.7733732626954861 [Eh]
	-----------------------------------------------------------

  Dipole Moment: [D]
     X:     2.6387      Y:    -5.6386      Z:     0.7661     Total:     6.2725

*** Psi4 exiting successfully. Buy a developer a beer!
