                               Psi4 1.3.2 release

  ==> Input File <==

--------------------------------------------------------------------------
#psi4
#
memory 32 gb

molecule  {
0 1
  O        0.1763910     2.6970700    -0.0085580
  C        0.2089260     1.4725840     0.0042240
  N        1.4659430     0.7906670    -0.0052000
  C        1.7165735    -0.5589264    -0.0034209
  N        0.7040600    -1.4531590     0.0111340
  C       -0.5247500    -0.8567100    -0.0036900
  C       -0.8535700     0.4975280     0.0150930
  N       -2.2178770     0.6874110     0.0132550
  C       -2.7081380    -0.5423290     0.0003530
  N       -1.7302440    -1.5082620    -0.0074590
  N        2.9897270    -0.9822980    -0.0798890
  H        2.2638450     1.4140280    -0.1046570
  H       -3.7608750    -0.7937900    -0.0035550
  H       -1.8528420    -2.5141400    -0.0211820
  H        3.0628590    -1.9839740     0.0678780
  H        3.6422020    -0.4648880     0.5003130
units angstrom
no_reorient  #important for SAPT in psi4, default
symmetry c1  #important for SAPT in psi4, default
}

set PROPERTIES_ORIGIN ["COM"]
properties('MP2/aug-cc-pvtz', properties = ['dipole'])
--------------------------------------------------------------------------

    Molecular point group: c1
  Charge       = 0
  Multiplicity = 1
  Basis Set: AUG-CC-PVTZ
    Blend: AUG-CC-PVTZ
  Basis Set: (AUG-CC-PVTZ AUX)
    Blend: AUG-CC-PVTZ-JKFIT

    Orbital Energies [Eh]
    ---------------------

    Doubly Occupied:

       1A    -20.523291     2A    -15.632946     3A    -15.632893
       4A    -15.620438     5A    -15.569798     6A    -15.562521
       7A    -11.402436     8A    -11.367634     9A    -11.324699
      10A    -11.311600    11A    -11.247454    12A     -1.392097
      13A     -1.357870    14A     -1.339151    15A     -1.233291
      16A     -1.209122    17A     -1.173042    18A     -1.027807
      19A     -0.905267    20A     -0.886965    21A     -0.841739
      22A     -0.798668    23A     -0.742692    24A     -0.736733
      25A     -0.705454    26A     -0.673202    27A     -0.654602
      28A     -0.631953    29A     -0.612929    30A     -0.599545
      31A     -0.596260    32A     -0.549480    33A     -0.493141
      34A     -0.463569    35A     -0.441678    36A     -0.431413
      37A     -0.429365    38A     -0.409173    39A     -0.296976

  @DF-RHF Final Energy:  -539.58298334984886

   => Energetics <=

    Nuclear Repulsion Energy =            593.1587597597484773
    One-Electron Energy =               -1911.8256960174715005
    Two-Electron Energy =                 779.0839529078742771
    Total Energy =                       -539.5829833498488597
  Basis Set: (AUG-CC-PVTZ AUX)
    Blend: AUG-CC-PVTZ-RI
    Molecular point group: c1

    Geometry (in Angstrom), charge = 0, multiplicity = 1:

       Center              X                  Y                   Z               Mass
    ------------   -----------------  -----------------  -----------------  -----------------
         O            0.194679380375     2.668060526086    -0.005258548513    15.994914619570
         C            0.227214380375     1.443574526086     0.007523451487    12.000000000000
         N            1.484231380375     0.761657526086    -0.001900548513    14.003074004430
         C            1.734861880375    -0.587935873914    -0.000121448513    12.000000000000
         N            0.722348380375    -1.482168473914     0.014433451487    14.003074004430
         C           -0.506461619625    -0.885719473914    -0.000390548513    12.000000000000
         C           -0.835281619625     0.468518526086     0.018392451487    12.000000000000
         N           -2.199588619625     0.658401526086     0.016554451487    14.003074004430
         C           -2.689849619625    -0.571338473914     0.003652451487    12.000000000000
         N           -1.711955619625    -1.537271473914    -0.004159548513    14.003074004430
         N            3.008015380375    -1.011307473914    -0.076589548513    14.003074004430
         H            2.282133380375     1.385018526086    -0.101357548513     1.007825032230
         H           -3.742586619625    -0.822799473914    -0.000255548513     1.007825032230
         H           -1.834553619625    -2.543149473914    -0.017882548513     1.007825032230
         H            3.081147380375    -2.012983473914     0.071177451487     1.007825032230
         H            3.660490380375    -0.493897473914     0.503612451487     1.007825032230

  Basis Set: AUG-CC-PVTZ
    Blend: AUG-CC-PVTZ
  Basis Set: (AUG-CC-PVTZ AUX)
    Blend: AUG-CC-PVTZ-JKFIT
	 Reference Energy          =    -539.5829833498488597 [Eh]
	 Singles Energy            =      -0.0000000000000000 [Eh]
	 Same-Spin Energy          =      -0.5735680872002678 [Eh]
	 Opposite-Spin Energy      =      -1.6637105943304840 [Eh]
	 Correlation Energy        =      -2.2372786815307517 [Eh]
	 Total Energy              =    -541.8202620313795705 [Eh]

	 ================> DF-SCS-MP2 Energies <==================
	-----------------------------------------------------------
	 SCS Same-Spin Scale       =       0.3333333333333333 [-]
	 SCS Opposite-Spin Scale   =       1.2000000000000000 [-]
	 SCS Same-Spin Energy      =      -0.1911893624000892 [Eh]
	 SCS Opposite-Spin Energy  =      -1.9964527131965806 [Eh]
	 SCS Correlation Energy    =      -2.1876420755966697 [Eh]
	 SCS Total Energy          =    -541.7706254254454734 [Eh]
	-----------------------------------------------------------

  Dipole Moment: [D]
     X:     3.1046      Y:    -5.6574      Z:     0.8288     Total:     6.5063

*** Psi4 exiting successfully. Buy a developer a beer!
