                               Psi4 1.3.2 release

  ==> Input File <==

--------------------------------------------------------------------------
#psi4
#
memory 32 gb

molecule  {
0 1
  O        0.1763910     2.6970700    -0.0085580
  C        0.2423098     1.4349116     0.0046307
  N        1.4659430     0.7906670    -0.0052000
  C        1.6696020    -0.5667920     0.0018180
  N        0.7040600    -1.4531590     0.0111340
  C       -0.5247500    -0.8567100    -0.0036900
  C       -0.8535700     0.4975280     0.0150930
  N       -2.2178770     0.6874110     0.0132550
  C       -2.7081380    -0.5423290     0.0003530
  N       -1.7302440    -1.5082620    -0.0074590
  N        2.9897270    -0.9822980    -0.0798890
  H        2.2638450     1.4140280    -0.1046570
  H       -3.7608750    -0.7937900    -0.0035550
  H       -1.8528420    -2.5141400    -0.0211820
  H        3.0628590    -1.9839740     0.0678780
  H        3.6422020    -0.4648880     0.5003130
units angstrom
no_reorient  #important for SAPT in psi4, default
symmetry c1  #important for SAPT in psi4, default
}

set PROPERTIES_ORIGIN ["COM"]
properties('MP2/aug-cc-pvtz', properties = ['dipole'])
--------------------------------------------------------------------------

    Molecular point group: c1
  Charge       = 0
  Multiplicity = 1
  Basis Set: AUG-CC-PVTZ
    Blend: AUG-CC-PVTZ
  Basis Set: (AUG-CC-PVTZ AUX)
    Blend: AUG-CC-PVTZ-JKFIT

    Orbital Energies [Eh]
    ---------------------

    Doubly Occupied:

       1A    -20.513981     2A    -15.640126     3A    -15.637109
       4A    -15.615864     5A    -15.578524     6A    -15.566606
       7A    -11.402587     8A    -11.365987     9A    -11.327744
      10A    -11.316011    11A    -11.253337    12A     -1.391262
      13A     -1.354063    14A     -1.328432    15A     -1.227954
      16A     -1.222019    17A     -1.180038    18A     -1.033593
      19A     -0.911816    20A     -0.893300    21A     -0.845639
      22A     -0.804467    23A     -0.749082    24A     -0.732610
      25A     -0.702243    26A     -0.672694    27A     -0.660532
      28A     -0.636809    29A     -0.607475    30A     -0.600400
      31A     -0.592971    32A     -0.542199    33A     -0.502408
      34A     -0.464140    35A     -0.441385    36A     -0.429276
      37A     -0.426734    38A     -0.412857    39A     -0.303923

  @DF-RHF Final Energy:  -539.58219859716178

   => Energetics <=

    Nuclear Repulsion Energy =            593.9621064533597519
    One-Electron Energy =               -1913.3122197103084545
    Two-Electron Energy =                 779.7679146597868112
    Total Energy =                       -539.5821985971617778
  Basis Set: (AUG-CC-PVTZ AUX)
    Blend: AUG-CC-PVTZ-RI
    Molecular point group: c1

    Geometry (in Angstrom), charge = 0, multiplicity = 1:

       Center              X                  Y                   Z               Mass
    ------------   -----------------  -----------------  -----------------  -----------------
         O            0.195758844374     2.671678256210    -0.005707058707    15.994914619570
         C            0.261677644374     1.409519856210     0.007481641293    12.000000000000
         N            1.485310844374     0.765275256210    -0.002349058707    14.003074004430
         C            1.688969844374    -0.592183743790     0.004668941293    12.000000000000
         N            0.723427844374    -1.478550743790     0.013984941293    14.003074004430
         C           -0.505382155626    -0.882101743790    -0.000839058707    12.000000000000
         C           -0.834202155626     0.472136256210     0.017943941293    12.000000000000
         N           -2.198509155626     0.662019256210     0.016105941293    14.003074004430
         C           -2.688770155626    -0.567720743790     0.003203941293    12.000000000000
         N           -1.710876155626    -1.533653743790    -0.004608058707    14.003074004430
         N            3.009094844374    -1.007689743790    -0.077038058707    14.003074004430
         H            2.283212844374     1.388636256210    -0.101806058707     1.007825032230
         H           -3.741507155626    -0.819181743790    -0.000704058707     1.007825032230
         H           -1.833474155626    -2.539531743790    -0.018331058707     1.007825032230
         H            3.082226844374    -2.009365743790     0.070728941293     1.007825032230
         H            3.661569844374    -0.490279743790     0.503163941293     1.007825032230

  Basis Set: AUG-CC-PVTZ
    Blend: AUG-CC-PVTZ
  Basis Set: (AUG-CC-PVTZ AUX)
    Blend: AUG-CC-PVTZ-JKFIT
	 Reference Energy          =    -539.5821985971617778 [Eh]
	 Singles Energy            =      -0.0000000000000000 [Eh]
	 Same-Spin Energy          =      -0.5738131094814451 [Eh]
	 Opposite-Spin Energy      =      -1.6645341807251388 [Eh]
	 Correlation Energy        =      -2.2383472902065842 [Eh]
	 Total Energy              =    -541.8205458873683256 [Eh]

	 ================> DF-SCS-MP2 Energies <==================
	-----------------------------------------------------------
	 SCS Same-Spin Scale       =       0.3333333333333333 [-]
	 SCS Opposite-Spin Scale   =       1.2000000000000000 [-]
	 SCS Same-Spin Energy      =      -0.1912710364938150 [Eh]
	 SCS Opposite-Spin Energy  =      -1.9974410168701664 [Eh]
	 SCS Correlation Energy    =      -2.1887120533639814 [Eh]
	 SCS Total Energy          =    -541.7709106505257068 [Eh]
	-----------------------------------------------------------

  Dipole Moment: [D]
     X:     2.8325      Y:    -6.0392      Z:     0.8473     Total:     6.7240

*** Psi4 exiting successfully. Buy a developer a beer!
