                               Psi4 1.3.2 release

  ==> Input File <==

--------------------------------------------------------------------------
#psi4
#
memory 32 gb

molecule  {
0 1
  O        0.1763910     2.6970700    -0.0085580
  C        0.2089260     1.4725840     0.0042240
  N        1.4422830     0.7869065    -0.0050762
  C        1.6696020    -0.5667920     0.0018180
  N        0.7040600    -1.4531590     0.0111340
  C       -0.5247500    -0.8567100    -0.0036900
  C       -0.8535700     0.4975280     0.0150930
  N       -2.2178770     0.6874110     0.0132550
  C       -2.7081380    -0.5423290     0.0003530
  N       -1.7302440    -1.5082620    -0.0074590
  N        2.9897270    -0.9822980    -0.0798890
  H        2.2638450     1.4140280    -0.1046570
  H       -3.7608750    -0.7937900    -0.0035550
  H       -1.8528420    -2.5141400    -0.0211820
  H        3.0628590    -1.9839740     0.0678780
  H        3.6422020    -0.4648880     0.5003130
units angstrom
no_reorient  #important for SAPT in psi4, default
symmetry c1  #important for SAPT in psi4, default
}

set PROPERTIES_ORIGIN ["COM"]
properties('MP2/aug-cc-pvtz', properties = ['dipole'])
--------------------------------------------------------------------------

    Molecular point group: c1
  Charge       = 0
  Multiplicity = 1
  Basis Set: AUG-CC-PVTZ
    Blend: AUG-CC-PVTZ
  Basis Set: (AUG-CC-PVTZ AUX)
    Blend: AUG-CC-PVTZ-JKFIT

    Orbital Energies [Eh]
    ---------------------

    Doubly Occupied:

       1A    -20.522651     2A    -15.635808     3A    -15.634221
       4A    -15.613933     5A    -15.573603     6A    -15.564699
       7A    -11.398970     8A    -11.366130     9A    -11.326708
      10A    -11.313934    11A    -11.250813    12A     -1.394588
      13A     -1.360445    14A     -1.335908    15A     -1.223540
      16A     -1.217723    17A     -1.177563    18A     -1.031761
      19A     -0.907933    20A     -0.886052    21A     -0.844517
      22A     -0.799591    23A     -0.736048    24A     -0.731215
      25A     -0.701219    26A     -0.673825    27A     -0.657465
      28A     -0.633469    29A     -0.614501    30A     -0.600168
      31A     -0.596741    32A     -0.548650    33A     -0.499006
      34A     -0.463187    35A     -0.442865    36A     -0.432527
      37A     -0.431886    38A     -0.411657    39A     -0.302761

  @DF-RHF Final Energy:  -539.58638586007783

   => Energetics <=

    Nuclear Repulsion Energy =            594.1074531210301757
    One-Electron Energy =               -1913.6711163056058922
    Two-Electron Energy =                 779.9772773244978907
    Total Energy =                       -539.5863858600778258
  Basis Set: (AUG-CC-PVTZ AUX)
    Blend: AUG-CC-PVTZ-RI
    Molecular point group: c1

    Geometry (in Angstrom), charge = 0, multiplicity = 1:

       Center              X                  Y                   Z               Mass
    ------------   -----------------  -----------------  -----------------  -----------------
         O            0.200604400089     2.669034020521    -0.005686225660    15.994914619570
         C            0.233139400089     1.444548020521     0.007095774340    12.000000000000
         N            1.466496400089     0.758870520521    -0.002204425660    14.003074004430
         C            1.693815400089    -0.594827979479     0.004689774340    12.000000000000
         N            0.728273400089    -1.481194979479     0.014005774340    14.003074004430
         C           -0.500536599911    -0.884745979479    -0.000818225660    12.000000000000
         C           -0.829356599911     0.469492020521     0.017964774340    12.000000000000
         N           -2.193663599911     0.659375020521     0.016126774340    14.003074004430
         C           -2.683924599911    -0.570364979479     0.003224774340    12.000000000000
         N           -1.706030599911    -1.536297979479    -0.004587225660    14.003074004430
         N            3.013940400089    -1.010333979479    -0.077017225660    14.003074004430
         H            2.288058400089     1.385992020521    -0.101785225660     1.007825032230
         H           -3.736661599911    -0.821825979479    -0.000683225660     1.007825032230
         H           -1.828628599911    -2.542175979479    -0.018310225660     1.007825032230
         H            3.087072400089    -2.012009979479     0.070749774340     1.007825032230
         H            3.666415400089    -0.492923979479     0.503184774340     1.007825032230

  Basis Set: AUG-CC-PVTZ
    Blend: AUG-CC-PVTZ
  Basis Set: (AUG-CC-PVTZ AUX)
    Blend: AUG-CC-PVTZ-JKFIT
	 Reference Energy          =    -539.5863858600778258 [Eh]
	 Singles Energy            =      -0.0000000000000000 [Eh]
	 Same-Spin Energy          =      -0.5733291641561183 [Eh]
	 Opposite-Spin Energy      =      -1.6634778789867180 [Eh]
	 Correlation Energy        =      -2.2368070431428362 [Eh]
	 Total Energy              =    -541.8231929032206153 [Eh]

	 ================> DF-SCS-MP2 Energies <==================
	-----------------------------------------------------------
	 SCS Same-Spin Scale       =       0.3333333333333333 [-]
	 SCS Opposite-Spin Scale   =       1.2000000000000000 [-]
	 SCS Same-Spin Energy      =      -0.1911097213853728 [Eh]
	 SCS Opposite-Spin Energy  =      -1.9961734547840615 [Eh]
	 SCS Correlation Energy    =      -2.1872831761694345 [Eh]
	 SCS Total Energy          =    -541.7736690362472700 [Eh]
	-----------------------------------------------------------

  Dipole Moment: [D]
     X:     2.7415      Y:    -5.6818      Z:     0.8472     Total:     6.3653

*** Psi4 exiting successfully. Buy a developer a beer!
