                               Psi4 1.4a3.dev225

  ==> Input File <==

--------------------------------------------------------------------------
#psi4
#
memory 32 gb

molecule  {
0 1
  O        0.1763800     2.6970850    -0.0086780
  C        0.2088860     1.4725900     0.0042210
  N        1.4659360     0.7906750    -0.0050880
  C        1.6666493    -0.5469717     0.0017203
  N        0.7040680    -1.4531450     0.0111020
  C       -0.5247290    -0.8567090    -0.0037110
  C       -0.8535850     0.4975420     0.0152200
  N       -2.2178950     0.6873840     0.0133320
  C       -2.7081200    -0.5423560     0.0003580
  N       -1.7302140    -1.5082770    -0.0075250
  N        2.9897250    -0.9823190    -0.0798750
  H        2.2637990     1.4140370    -0.1048620
  H       -3.7608500    -0.7938460    -0.0035590
  H       -1.8527810    -2.5141570    -0.0214260
  H        3.0628080    -1.9839860     0.0679760
  H        3.6422460    -0.4648460     0.5002060
units angstrom
no_reorient  #important for SAPT in psi4, default
symmetry c1  #important for SAPT in psi4, default
}

set PROPERTIES_ORIGIN ["COM"]
properties('MP2/aug-cc-pvtz', properties = ['dipole'])
--------------------------------------------------------------------------

    Molecular point group: c1
  Charge       = 0
  Multiplicity = 1
  Basis Set: AUG-CC-PVTZ
    Blend: AUG-CC-PVTZ
  Basis Set: (AUG-CC-PVTZ AUX)
    Blend: AUG-CC-PVTZ-JKFIT

    Orbital Energies [Eh]
    ---------------------

    Doubly Occupied:

       1A    -20.525504     2A    -15.635638     3A    -15.635214
       4A    -15.611579     5A    -15.573192     6A    -15.565125
       7A    -11.398955     8A    -11.369241     9A    -11.327368
      10A    -11.314232    11A    -11.251113    12A     -1.395664
      13A     -1.360894    14A     -1.336636    15A     -1.222562
      16A     -1.215990    17A     -1.177957    18A     -1.031096
      19A     -0.908233    20A     -0.887406    21A     -0.844815
      22A     -0.798928    23A     -0.743864    24A     -0.727739
      25A     -0.700269    26A     -0.674588    27A     -0.657318
      28A     -0.630440    29A     -0.615330    30A     -0.601981
      31A     -0.597415    32A     -0.546822    33A     -0.500182
      34A     -0.461670    35A     -0.444421    36A     -0.434653
      37A     -0.433222    38A     -0.412204    39A     -0.301876

  @DF-RHF Final Energy:  -539.58696148620697

   => Energetics <=

    Nuclear Repulsion Energy =            593.7755689384885045
    One-Electron Energy =               -1912.9823828329431308
    Two-Electron Energy =                 779.6198524082476524
    Total Energy =                       -539.5869614862069739
  Basis Set: (AUG-CC-PVTZ AUX)
    Blend: AUG-CC-PVTZ-RI
    Molecular point group: c1

    Geometry (in Angstrom), charge = 0, multiplicity = 1:

       Center              X                  Y                   Z               Mass
    ------------   -----------------  -----------------  -----------------  -----------------
         O            0.198635764642     2.667128710525    -0.005789511508    15.994914619570
         C            0.231141764642     1.442633710525     0.007109488492    12.000000000000
         N            1.488191764642     0.760718710525    -0.002199511508    14.003074004430
         C            1.688905064642    -0.576927989475     0.004608788492    12.000000000000
         N            0.726323764642    -1.483101289475     0.013990488492    14.003074004430
         C           -0.502473235358    -0.886665289475    -0.000822511508    12.000000000000
         C           -0.831329235358     0.467585710525     0.018108488492    12.000000000000
         N           -2.195639235358     0.657427710525     0.016220488492    14.003074004430
         C           -2.685864235358    -0.572312289475     0.003246488492    12.000000000000
         N           -1.707958235358    -1.538233289475    -0.004636511508    14.003074004430
         N            3.011980764642    -1.012275289475    -0.076986511508    14.003074004430
         H            2.286054764642     1.384080710525    -0.101973511508     1.007825032230
         H           -3.738594235358    -0.823802289475    -0.000670511508     1.007825032230
         H           -1.830525235358    -2.544113289475    -0.018537511508     1.007825032230
         H            3.085063764642    -2.013942289475     0.070864488492     1.007825032230
         H            3.664501764642    -0.494802289475     0.503094488492     1.007825032230

  Basis Set: AUG-CC-PVTZ
    Blend: AUG-CC-PVTZ
  Basis Set: (AUG-CC-PVTZ AUX)
    Blend: AUG-CC-PVTZ-JKFIT
	 Reference Energy          =    -539.5869614862069739 [Eh]
	 Singles Energy            =      -0.0000000000000000 [Eh]
	 Same-Spin Energy          =      -0.5731098128386499 [Eh]
	 Opposite-Spin Energy      =      -1.6632990000164529 [Eh]
	 Correlation Energy        =      -2.2364088128551027 [Eh]
	 Total Energy              =    -541.8233702990620486 [Eh]

	 ================> DF-SCS-MP2 Energies <==================
	-----------------------------------------------------------
	 SCS Same-Spin Scale       =       0.3333333333333333 [-]
	 SCS Opposite-Spin Scale   =       1.2000000000000000 [-]
	 SCS Same-Spin Energy      =      -0.1910366042795500 [Eh]
	 SCS Opposite-Spin Energy  =      -1.9959588000197435 [Eh]
	 SCS Correlation Energy    =      -2.1869954042992936 [Eh]
	 SCS Total Energy          =    -541.7739568905062697 [Eh]
	-----------------------------------------------------------

  Dipole Moment: [D]
     X:     2.6496      Y:    -5.5371      Z:     0.8429     Total:     6.1960

*** Psi4 exiting successfully. Buy a developer a beer!
