                               Psi4 1.3.2 release

  ==> Input File <==

--------------------------------------------------------------------------
#psi4
#
memory 32 gb

molecule  {
0 1
  O        0.1763910     2.6970700    -0.0085580
  C        0.2089260     1.4725840     0.0042240
  N        1.4659430     0.7906670    -0.0052000
  C        1.6696020    -0.5667920     0.0018180
  N        0.7040600    -1.4531590     0.0111340
  C       -0.5247500    -0.8567100    -0.0036900
  C       -0.8535700     0.4975280     0.0150930
  N       -2.2178770     0.6874110     0.0132550
  C       -2.6711072    -0.4494432     0.0013275
  N       -1.7302440    -1.5082620    -0.0074590
  N        2.9897270    -0.9822980    -0.0798890
  H        2.2638450     1.4140280    -0.1046570
  H       -3.7608750    -0.7937900    -0.0035550
  H       -1.8528420    -2.5141400    -0.0211820
  H        3.0628590    -1.9839740     0.0678780
  H        3.6422020    -0.4648880     0.5003130
units angstrom
no_reorient  #important for SAPT in psi4, default
symmetry c1  #important for SAPT in psi4, default
}

set PROPERTIES_ORIGIN ["COM"]
properties('MP2/aug-cc-pvtz', properties = ['dipole'])
--------------------------------------------------------------------------

    Molecular point group: c1
  Charge       = 0
  Multiplicity = 1
  Basis Set: AUG-CC-PVTZ
    Blend: AUG-CC-PVTZ
  Basis Set: (AUG-CC-PVTZ AUX)
    Blend: AUG-CC-PVTZ-JKFIT

    Orbital Energies [Eh]
    ---------------------

    Doubly Occupied:

       1A    -20.521856     2A    -15.631533     3A    -15.626215
       4A    -15.613414     5A    -15.573550     6A    -15.560829
       7A    -11.400236     8A    -11.366239     9A    -11.330409
      10A    -11.312046    11A    -11.250000    12A     -1.394120
      13A     -1.364955    14A     -1.338974    15A     -1.230296
      16A     -1.220723    17A     -1.186906    18A     -1.034275
      19A     -0.898207    20A     -0.888867    21A     -0.838585
      22A     -0.797822    23A     -0.743426    24A     -0.728869
      25A     -0.697602    26A     -0.673392    27A     -0.656654
      28A     -0.631490    29A     -0.614223    30A     -0.601081
      31A     -0.594059    32A     -0.547496    33A     -0.500096
      34A     -0.469462    35A     -0.443060    36A     -0.438380
      37A     -0.433358    38A     -0.413044    39A     -0.310673

  @DF-RHF Final Energy:  -539.58016742370069

   => Energetics <=

    Nuclear Repulsion Energy =            595.1818623056868773
    One-Electron Energy =               -1915.7712107204149561
    Two-Electron Energy =                 781.0091809910275060
    Total Energy =                       -539.5801674237006864
  Basis Set: (AUG-CC-PVTZ AUX)
    Blend: AUG-CC-PVTZ-RI
    Molecular point group: c1

    Geometry (in Angstrom), charge = 0, multiplicity = 1:

       Center              X                  Y                   Z               Mass
    ------------   -----------------  -----------------  -----------------  -----------------
         O            0.195469111365     2.661306164044    -0.005752167125    15.994914619570
         C            0.228004111365     1.436820164044     0.007029832875    12.000000000000
         N            1.485021111365     0.754903164044    -0.002394167125    14.003074004430
         C            1.688680111365    -0.602555835956     0.004623832875    12.000000000000
         N            0.723138111365    -1.488922835956     0.013939832875    14.003074004430
         C           -0.505671888635    -0.892473835956    -0.000884167125    12.000000000000
         C           -0.834491888635     0.461764164044     0.017898832875    12.000000000000
         N           -2.198798888635     0.651647164044     0.016060832875    14.003074004430
         C           -2.652029088635    -0.485207035956     0.004133332875    12.000000000000
         N           -1.711165888635    -1.544025835956    -0.004653167125    14.003074004430
         N            3.008805111365    -1.018061835956    -0.077083167125    14.003074004430
         H            2.282923111365     1.378264164044    -0.101851167125     1.007825032230
         H           -3.741796888635    -0.829553835956    -0.000749167125     1.007825032230
         H           -1.833763888635    -2.549903835956    -0.018376167125     1.007825032230
         H            3.081937111365    -2.019737835956     0.070683832875     1.007825032230
         H            3.661280111365    -0.500651835956     0.503118832875     1.007825032230

  Basis Set: AUG-CC-PVTZ
    Blend: AUG-CC-PVTZ
  Basis Set: (AUG-CC-PVTZ AUX)
    Blend: AUG-CC-PVTZ-JKFIT
	 Reference Energy          =    -539.5801674237006864 [Eh]
	 Singles Energy            =      -0.0000000000000000 [Eh]
	 Same-Spin Energy          =      -0.5706325239460878 [Eh]
	 Opposite-Spin Energy      =      -1.6589986916298245 [Eh]
	 Correlation Energy        =      -2.2296312155759122 [Eh]
	 Total Energy              =    -541.8097986392765506 [Eh]

	 ================> DF-SCS-MP2 Energies <==================
	-----------------------------------------------------------
	 SCS Same-Spin Scale       =       0.3333333333333333 [-]
	 SCS Opposite-Spin Scale   =       1.2000000000000000 [-]
	 SCS Same-Spin Energy      =      -0.1902108413153626 [Eh]
	 SCS Opposite-Spin Energy  =      -1.9907984299557893 [Eh]
	 SCS Correlation Energy    =      -2.1810092712711517 [Eh]
	 SCS Total Energy          =    -541.7611766949718231 [Eh]
	-----------------------------------------------------------

  Dipole Moment: [D]
     X:     2.6465      Y:    -5.4293      Z:     0.8454     Total:     6.0989

*** Psi4 exiting successfully. Buy a developer a beer!
