                               Psi4 1.3.2 release

  ==> Input File <==

--------------------------------------------------------------------------
#psi4
#
memory 32 gb

molecule  {
0 1
  O        0.1763910     2.6970700    -0.0085580
  C        0.2089260     1.4725840     0.0042240
  N        1.4659430     0.7906670    -0.0052000
  C        1.6696020    -0.5667920     0.0018180
  N        0.7040600    -1.4531590     0.0111340
  C       -0.5247500    -0.8567100    -0.0036900
  C       -0.8063838     0.3031927     0.0123976
  N       -2.2178770     0.6874110     0.0132550
  C       -2.7081380    -0.5423290     0.0003530
  N       -1.7302440    -1.5082620    -0.0074590
  N        2.9897270    -0.9822980    -0.0798890
  H        2.2638450     1.4140280    -0.1046570
  H       -3.7608750    -0.7937900    -0.0035550
  H       -1.8528420    -2.5141400    -0.0211820
  H        3.0628590    -1.9839740     0.0678780
  H        3.6422020    -0.4648880     0.5003130
units angstrom
no_reorient  #important for SAPT in psi4, default
symmetry c1  #important for SAPT in psi4, default
}

set PROPERTIES_ORIGIN ["COM"]
properties('MP2/aug-cc-pvtz', properties = ['dipole'])
--------------------------------------------------------------------------

    Molecular point group: c1
  Charge       = 0
  Multiplicity = 1
  Basis Set: AUG-CC-PVTZ
    Blend: AUG-CC-PVTZ
  Basis Set: (AUG-CC-PVTZ AUX)
    Blend: AUG-CC-PVTZ-JKFIT

    Orbital Energies [Eh]
    ---------------------

    Doubly Occupied:

       1A    -20.544569     2A    -15.629069     3A    -15.621386
       4A    -15.609708     5A    -15.565864     6A    -15.564124
       7A    -11.395243     8A    -11.383748     9A    -11.316630
      10A    -11.293031    11A    -11.240787    12A     -1.400322
      13A     -1.369982    14A     -1.335376    15A     -1.220623
      16A     -1.213884    17A     -1.159611    18A     -1.055993
      19A     -0.903785    20A     -0.878477    21A     -0.843500
      22A     -0.798640    23A     -0.733029    24A     -0.720734
      25A     -0.710330    26A     -0.677846    27A     -0.660301
      28A     -0.635562    29A     -0.619607    30A     -0.599265
      31A     -0.566962    32A     -0.547388    33A     -0.494449
      34A     -0.462256    35A     -0.451372    36A     -0.437666
      37A     -0.434736    38A     -0.401584    39A     -0.331086

  @DF-RHF Final Energy:  -539.52736461376082

   => Energetics <=

    Nuclear Repulsion Energy =            595.7159185370859404
    One-Electron Energy =               -1916.8295179140075106
    Two-Electron Energy =                 781.5862347631608600
    Total Energy =                       -539.5273646137608239
  Basis Set: (AUG-CC-PVTZ AUX)
    Blend: AUG-CC-PVTZ-RI
    Molecular point group: c1

    Geometry (in Angstrom), charge = 0, multiplicity = 1:

       Center              X                  Y                   Z               Mass
    ------------   -----------------  -----------------  -----------------  -----------------
         O            0.194662323704     2.684124215465    -0.005460614844    15.994914619570
         C            0.227197323704     1.459638215465     0.007321385156    12.000000000000
         N            1.484214323704     0.777721215465    -0.002102614844    14.003074004430
         C            1.687873323704    -0.579737784535     0.004915385156    12.000000000000
         N            0.722331323704    -1.466104784535     0.014231385156    14.003074004430
         C           -0.506478676296    -0.869655784535    -0.000592614844    12.000000000000
         C           -0.788112476296     0.290246915465     0.015494985156    12.000000000000
         N           -2.199605676296     0.674465215465     0.016352385156    14.003074004430
         C           -2.689866676296    -0.555274784535     0.003450385156    12.000000000000
         N           -1.711972676296    -1.521207784535    -0.004361614844    14.003074004430
         N            3.007998323704    -0.995243784535    -0.076791614844    14.003074004430
         H            2.282116323704     1.401082215465    -0.101559614844     1.007825032230
         H           -3.742603676296    -0.806735784535    -0.000457614844     1.007825032230
         H           -1.834570676296    -2.527085784535    -0.018084614844     1.007825032230
         H            3.081130323704    -1.996919784535     0.070975385156     1.007825032230
         H            3.660473323704    -0.477833784535     0.503410385156     1.007825032230

  Basis Set: AUG-CC-PVTZ
    Blend: AUG-CC-PVTZ
  Basis Set: (AUG-CC-PVTZ AUX)
    Blend: AUG-CC-PVTZ-JKFIT
	 Reference Energy          =    -539.5273646137608239 [Eh]
	 Singles Energy            =      -0.0000000000000000 [Eh]
	 Same-Spin Energy          =      -0.5705104442510256 [Eh]
	 Opposite-Spin Energy      =      -1.6626522817295870 [Eh]
	 Correlation Energy        =      -2.2331627259806126 [Eh]
	 Total Energy              =    -541.7605273397414294 [Eh]

	 ================> DF-SCS-MP2 Energies <==================
	-----------------------------------------------------------
	 SCS Same-Spin Scale       =       0.3333333333333333 [-]
	 SCS Opposite-Spin Scale   =       1.2000000000000000 [-]
	 SCS Same-Spin Energy      =      -0.1901701480836752 [Eh]
	 SCS Opposite-Spin Energy  =      -1.9951827380755043 [Eh]
	 SCS Correlation Energy    =      -2.1853528861591793 [Eh]
	 SCS Total Energy          =    -541.7127174999200179 [Eh]
	-----------------------------------------------------------

  Dipole Moment: [D]
     X:     2.8626      Y:    -5.0706      Z:     0.8412     Total:     5.8833

*** Psi4 exiting successfully. Buy a developer a beer!
