                               Psi4 1.3.2 release

  ==> Input File <==

--------------------------------------------------------------------------
#psi4
#
memory 32 gb

molecule  {
0 1
  O        0.1763910     2.6970700    -0.0085580
  C        0.2062700     1.5725433     0.0031806
  N        1.4659430     0.7906670    -0.0052000
  C        1.6696020    -0.5667920     0.0018180
  N        0.7040600    -1.4531590     0.0111340
  C       -0.5247500    -0.8567100    -0.0036900
  C       -0.8535700     0.4975280     0.0150930
  N       -2.2178770     0.6874110     0.0132550
  C       -2.7081380    -0.5423290     0.0003530
  N       -1.7302440    -1.5082620    -0.0074590
  N        2.9897270    -0.9822980    -0.0798890
  H        2.2638450     1.4140280    -0.1046570
  H       -3.7608750    -0.7937900    -0.0035550
  H       -1.8528420    -2.5141400    -0.0211820
  H        3.0628590    -1.9839740     0.0678780
  H        3.6422020    -0.4648880     0.5003130
units angstrom
no_reorient  #important for SAPT in psi4, default
symmetry c1  #important for SAPT in psi4, default
}

set PROPERTIES_ORIGIN ["COM"]
properties('MP2/aug-cc-pvtz', properties = ['dipole'])
--------------------------------------------------------------------------

    Molecular point group: c1
  Charge       = 0
  Multiplicity = 1
  Basis Set: AUG-CC-PVTZ
    Blend: AUG-CC-PVTZ
  Basis Set: (AUG-CC-PVTZ AUX)
    Blend: AUG-CC-PVTZ-JKFIT

    Orbital Energies [Eh]
    ---------------------

    Doubly Occupied:

       1A    -20.550365     2A    -15.630103     3A    -15.618030
       4A    -15.605831     5A    -15.563519     6A    -15.559460
       7A    -11.390956     8A    -11.370759     9A    -11.318460
      10A    -11.306688    11A    -11.248718    12A     -1.461844
      13A     -1.363021    14A     -1.330438    15A     -1.211377
      16A     -1.209162    17A     -1.170515    18A     -1.015887
      19A     -0.889973    20A     -0.875610    21A     -0.838668
      22A     -0.791205    23A     -0.727161    24A     -0.723740
      25A     -0.702580    26A     -0.675427    27A     -0.652327
      28A     -0.650690    29A     -0.628663    30A     -0.598829
      31A     -0.595798    32A     -0.573889    33A     -0.492612
      34A     -0.458825    35A     -0.449997    36A     -0.436017
      37A     -0.430121    38A     -0.405737    39A     -0.295405

  @DF-RHF Final Energy:  -539.57507512312657

   => Energetics <=

    Nuclear Repulsion Energy =            593.0939229375201194
    One-Electron Energy =               -1911.7011752215412344
    Two-Electron Energy =                 779.0321771608945483
    Total Energy =                       -539.5750751231265667
  Basis Set: (AUG-CC-PVTZ AUX)
    Blend: AUG-CC-PVTZ-RI
    Molecular point group: c1

    Geometry (in Angstrom), charge = 0, multiplicity = 1:

       Center              X                  Y                   Z               Mass
    ------------   -----------------  -----------------  -----------------  -----------------
         O            0.198621997567     2.660744215473    -0.005591856668    15.994914619570
         C            0.228500997567     1.536217515473     0.006146743332    12.000000000000
         N            1.488173997567     0.754341215473    -0.002233856668    14.003074004430
         C            1.691832997567    -0.603117784527     0.004784143332    12.000000000000
         N            0.726290997567    -1.489484784527     0.014100143332    14.003074004430
         C           -0.502519002433    -0.893035784527    -0.000723856668    12.000000000000
         C           -0.831339002433     0.461202215473     0.018059143332    12.000000000000
         N           -2.195646002433     0.651085215473     0.016221143332    14.003074004430
         C           -2.685907002433    -0.578654784527     0.003319143332    12.000000000000
         N           -1.708013002433    -1.544587784527    -0.004492856668    14.003074004430
         N            3.011957997567    -1.018623784527    -0.076922856668    14.003074004430
         H            2.286075997567     1.377702215473    -0.101690856668     1.007825032230
         H           -3.738644002433    -0.830115784527    -0.000588856668     1.007825032230
         H           -1.830611002433    -2.550465784527    -0.018215856668     1.007825032230
         H            3.085089997567    -2.020299784527     0.070844143332     1.007825032230
         H            3.664432997567    -0.501213784527     0.503279143332     1.007825032230

  Basis Set: AUG-CC-PVTZ
    Blend: AUG-CC-PVTZ
  Basis Set: (AUG-CC-PVTZ AUX)
    Blend: AUG-CC-PVTZ-JKFIT
	 Reference Energy          =    -539.5750751231265667 [Eh]
	 Singles Energy            =      -0.0000000000000000 [Eh]
	 Same-Spin Energy          =      -0.5710661340898020 [Eh]
	 Opposite-Spin Energy      =      -1.6596755838885948 [Eh]
	 Correlation Energy        =      -2.2307417179783968 [Eh]
	 Total Energy              =    -541.8058168411049564 [Eh]

	 ================> DF-SCS-MP2 Energies <==================
	-----------------------------------------------------------
	 SCS Same-Spin Scale       =       0.3333333333333333 [-]
	 SCS Opposite-Spin Scale   =       1.2000000000000000 [-]
	 SCS Same-Spin Energy      =      -0.1903553780299340 [Eh]
	 SCS Opposite-Spin Energy  =      -1.9916107006663137 [Eh]
	 SCS Correlation Energy    =      -2.1819660786962478 [Eh]
	 SCS Total Energy          =    -541.7570412018228581 [Eh]
	-----------------------------------------------------------

  Dipole Moment: [D]
     X:     2.6080      Y:    -4.5217      Z:     0.8379     Total:     5.2867

*** Psi4 exiting successfully. Buy a developer a beer!
