                               Psi4 1.3.2 release

  ==> Input File <==

--------------------------------------------------------------------------
#psi4
#
memory 32 gb

molecule  {
0 1
  O        0.1763910     2.6970700    -0.0085580
  C        0.2089260     1.4725840     0.0042240
  N        1.4659430     0.7906670    -0.0052000
  C        1.6696020    -0.5667920     0.0018180
  N        0.7196374    -1.4698480     0.0096704
  C       -0.5247500    -0.8567100    -0.0036900
  C       -0.8535700     0.4975280     0.0150930
  N       -2.2178770     0.6874110     0.0132550
  C       -2.7081380    -0.5423290     0.0003530
  N       -1.7302440    -1.5082620    -0.0074590
  N        2.9897270    -0.9822980    -0.0798890
  H        2.2638450     1.4140280    -0.1046570
  H       -3.7608750    -0.7937900    -0.0035550
  H       -1.8528420    -2.5141400    -0.0211820
  H        3.0628590    -1.9839740     0.0678780
  H        3.6422020    -0.4648880     0.5003130
units angstrom
no_reorient  #important for SAPT in psi4, default
symmetry c1  #important for SAPT in psi4, default
}

set PROPERTIES_ORIGIN ["COM"]
properties('MP2/aug-cc-pvtz', properties = ['dipole'])
--------------------------------------------------------------------------

    Molecular point group: c1
  Charge       = 0
  Multiplicity = 1
  Basis Set: AUG-CC-PVTZ
    Blend: AUG-CC-PVTZ
  Basis Set: (AUG-CC-PVTZ AUX)
    Blend: AUG-CC-PVTZ-JKFIT

    Orbital Energies [Eh]
    ---------------------

    Doubly Occupied:

       1A    -20.525768     2A    -15.637287     3A    -15.632190
       4A    -15.610718     5A    -15.575597     6A    -15.566153
       7A    -11.397664     8A    -11.369023     9A    -11.329145
      10A    -11.314952    11A    -11.252938    12A     -1.393630
      13A     -1.361028    14A     -1.335660    15A     -1.220648
      16A     -1.214503    17A     -1.178538    18A     -1.031983
      19A     -0.906989    20A     -0.882694    21A     -0.845640
      22A     -0.797812    23A     -0.740648    24A     -0.728655
      25A     -0.700312    26A     -0.672871    27A     -0.655540
      28A     -0.630715    29A     -0.615215    30A     -0.602152
      31A     -0.596883    32A     -0.547892    33A     -0.501104
      34A     -0.460495    35A     -0.444520    36A     -0.434656
      37A     -0.432310    38A     -0.412607    39A     -0.304999

  @DF-RHF Final Energy:  -539.58648669365380

   => Energetics <=

    Nuclear Repulsion Energy =            593.1130734764448107
    One-Electron Energy =               -1911.6748547893703289
    Two-Electron Energy =                 778.9752946192718355
    Total Energy =                       -539.5864866936537965
  Basis Set: (AUG-CC-PVTZ AUX)
    Blend: AUG-CC-PVTZ-RI
    Molecular point group: c1

    Geometry (in Angstrom), charge = 0, multiplicity = 1:

       Center              X                  Y                   Z               Mass
    ------------   -----------------  -----------------  -----------------  -----------------
         O            0.196966886929     2.670232560406    -0.005539065339    15.994914619570
         C            0.229501886929     1.445746560406     0.007242934661    12.000000000000
         N            1.486518886929     0.763829560406    -0.002181065339    14.003074004430
         C            1.690177886929    -0.593629439594     0.004836934661    12.000000000000
         N            0.740213286929    -1.496685439594     0.012689334661    14.003074004430
         C           -0.504174113071    -0.883547439594    -0.000671065339    12.000000000000
         C           -0.832994113071     0.470690560406     0.018111934661    12.000000000000
         N           -2.197301113071     0.660573560406     0.016273934661    14.003074004430
         C           -2.687562113071    -0.569166439594     0.003371934661    12.000000000000
         N           -1.709668113071    -1.535099439594    -0.004440065339    14.003074004430
         N            3.010302886929    -1.009135439594    -0.076870065339    14.003074004430
         H            2.284420886929     1.387190560406    -0.101638065339     1.007825032230
         H           -3.740299113071    -0.820627439594    -0.000536065339     1.007825032230
         H           -1.832266113071    -2.540977439594    -0.018163065339     1.007825032230
         H            3.083434886929    -2.010811439594     0.070896934661     1.007825032230
         H            3.662777886929    -0.491725439594     0.503331934661     1.007825032230

  Basis Set: AUG-CC-PVTZ
    Blend: AUG-CC-PVTZ
  Basis Set: (AUG-CC-PVTZ AUX)
    Blend: AUG-CC-PVTZ-JKFIT
	 Reference Energy          =    -539.5864866936537965 [Eh]
	 Singles Energy            =      -0.0000000000000000 [Eh]
	 Same-Spin Energy          =      -0.5729201803144379 [Eh]
	 Opposite-Spin Energy      =      -1.6635685252886274 [Eh]
	 Correlation Energy        =      -2.2364887056030653 [Eh]
	 Total Energy              =    -541.8229753992568476 [Eh]

	 ================> DF-SCS-MP2 Energies <==================
	-----------------------------------------------------------
	 SCS Same-Spin Scale       =       0.3333333333333333 [-]
	 SCS Opposite-Spin Scale   =       1.2000000000000000 [-]
	 SCS Same-Spin Energy      =      -0.1909733934381460 [Eh]
	 SCS Opposite-Spin Energy  =      -1.9962822303463528 [Eh]
	 SCS Correlation Energy    =      -2.1872556237844987 [Eh]
	 SCS Total Energy          =    -541.7737423174382911 [Eh]
	-----------------------------------------------------------

  Dipole Moment: [D]
     X:     2.5947      Y:    -5.5708      Z:     0.8457     Total:     6.2033

*** Psi4 exiting successfully. Buy a developer a beer!
