                               Psi4 1.3.2 release

  ==> Input File <==

--------------------------------------------------------------------------
#psi4
#
memory 32 gb

molecule  {
0 1
  O        0.1763910     2.6970700    -0.0085580
  C        0.2089260     1.4725840     0.0042240
  N        1.4659430     0.7906670    -0.0052000
  C        1.6399286    -0.3690082     0.0007955
  N        0.7040600    -1.4531590     0.0111340
  C       -0.5247500    -0.8567100    -0.0036900
  C       -0.8535700     0.4975280     0.0150930
  N       -2.2178770     0.6874110     0.0132550
  C       -2.7081380    -0.5423290     0.0003530
  N       -1.7302440    -1.5082620    -0.0074590
  N        2.9897270    -0.9822980    -0.0798890
  H        2.2638450     1.4140280    -0.1046570
  H       -3.7608750    -0.7937900    -0.0035550
  H       -1.8528420    -2.5141400    -0.0211820
  H        3.0628590    -1.9839740     0.0678780
  H        3.6422020    -0.4648880     0.5003130
units angstrom
no_reorient  #important for SAPT in psi4, default
symmetry c1  #important for SAPT in psi4, default
}

set PROPERTIES_ORIGIN ["COM"]
properties('MP2/aug-cc-pvtz', properties = ['dipole'])
--------------------------------------------------------------------------

    Molecular point group: c1
  Charge       = 0
  Multiplicity = 1
  Basis Set: AUG-CC-PVTZ
    Blend: AUG-CC-PVTZ
  Basis Set: (AUG-CC-PVTZ AUX)
    Blend: AUG-CC-PVTZ-JKFIT

    Orbital Energies [Eh]
    ---------------------

    Doubly Occupied:

       1A    -20.536052     2A    -15.661624     3A    -15.629716
       4A    -15.603683     5A    -15.568216     6A    -15.563287
       7A    -11.397036     8A    -11.379725     9A    -11.325516
      10A    -11.313755    11A    -11.248052    12A     -1.436581
      13A     -1.365960    14A     -1.356157    15A     -1.222848
      16A     -1.191961    17A     -1.171830    18A     -1.031256
      19A     -0.935510    20A     -0.905167    21A     -0.842528
      22A     -0.793483    23A     -0.771784    24A     -0.710016
      25A     -0.697167    26A     -0.684743    27A     -0.675593
      28A     -0.621650    29A     -0.612266    30A     -0.603723
      31A     -0.583997    32A     -0.538688    33A     -0.500512
      34A     -0.459492    35A     -0.451972    36A     -0.443491
      37A     -0.431858    38A     -0.411668    39A     -0.292195

  @DF-RHF Final Energy:  -539.52304482559350

   => Energetics <=

    Nuclear Repulsion Energy =            595.2048605041646852
    One-Electron Energy =               -1915.5142950130089048
    Two-Electron Energy =                 780.7863896832508317
    Total Energy =                       -539.5230448255935016
  Basis Set: (AUG-CC-PVTZ AUX)
    Blend: AUG-CC-PVTZ-RI
    Molecular point group: c1

    Geometry (in Angstrom), charge = 0, multiplicity = 1:

       Center              X                  Y                   Z               Mass
    ------------   -----------------  -----------------  -----------------  -----------------
         O            0.200768373382     2.652972626021    -0.005593517052    15.994914619570
         C            0.233303373382     1.428486626021     0.007188482948    12.000000000000
         N            1.490320373382     0.746569626021    -0.002235517052    14.003074004430
         C            1.664305973382    -0.413105573979     0.003759982948    12.000000000000
         N            0.728437373382    -1.497256373979     0.014098482948    14.003074004430
         C           -0.500372626618    -0.900807373979    -0.000725517052    12.000000000000
         C           -0.829192626618     0.453430626021     0.018057482948    12.000000000000
         N           -2.193499626618     0.643313626021     0.016219482948    14.003074004430
         C           -2.683760626618    -0.586426373979     0.003317482948    12.000000000000
         N           -1.705866626618    -1.552359373979    -0.004494517052    14.003074004430
         N            3.014104373382    -1.026395373979    -0.076924517052    14.003074004430
         H            2.288222373382     1.369930626021    -0.101692517052     1.007825032230
         H           -3.736497626618    -0.837887373979    -0.000590517052     1.007825032230
         H           -1.828464626618    -2.558237373979    -0.018217517052     1.007825032230
         H            3.087236373382    -2.028071373979     0.070842482948     1.007825032230
         H            3.666579373382    -0.508985373979     0.503277482948     1.007825032230

  Basis Set: AUG-CC-PVTZ
    Blend: AUG-CC-PVTZ
  Basis Set: (AUG-CC-PVTZ AUX)
    Blend: AUG-CC-PVTZ-JKFIT
	 Reference Energy          =    -539.5230448255935016 [Eh]
	 Singles Energy            =      -0.0000000000000000 [Eh]
	 Same-Spin Energy          =      -0.5739159841774302 [Eh]
	 Opposite-Spin Energy      =      -1.6656018780137054 [Eh]
	 Correlation Energy        =      -2.2395178621911356 [Eh]
	 Total Energy              =    -541.7625626877846798 [Eh]

	 ================> DF-SCS-MP2 Energies <==================
	-----------------------------------------------------------
	 SCS Same-Spin Scale       =       0.3333333333333333 [-]
	 SCS Opposite-Spin Scale   =       1.2000000000000000 [-]
	 SCS Same-Spin Energy      =      -0.1913053280591434 [Eh]
	 SCS Opposite-Spin Energy  =      -1.9987222536164464 [Eh]
	 SCS Correlation Energy    =      -2.1900275816755896 [Eh]
	 SCS Total Energy          =    -541.7130724072691237 [Eh]
	-----------------------------------------------------------

  Dipole Moment: [D]
     X:     2.5704      Y:    -4.7026      Z:     0.8428     Total:     5.4251

*** Psi4 exiting successfully. Buy a developer a beer!
