                               Psi4 1.3.2 release

  ==> Input File <==

--------------------------------------------------------------------------
#psi4
#
memory 32 gb

molecule  {
0 1
  O        0.1763910     2.6970700    -0.0085580
  C        0.2089260     1.4725840     0.0042240
  N        1.4659430     0.7906670    -0.0052000
  C        1.6696020    -0.5667920     0.0018180
  N        0.7040600    -1.4531590     0.0111340
  C       -0.5247500    -0.8567100    -0.0036900
  C       -0.7582938     0.5171694     0.0149790
  N       -2.2178770     0.6874110     0.0132550
  C       -2.7081380    -0.5423290     0.0003530
  N       -1.7302440    -1.5082620    -0.0074590
  N        2.9897270    -0.9822980    -0.0798890
  H        2.2638450     1.4140280    -0.1046570
  H       -3.7608750    -0.7937900    -0.0035550
  H       -1.8528420    -2.5141400    -0.0211820
  H        3.0628590    -1.9839740     0.0678780
  H        3.6422020    -0.4648880     0.5003130
units angstrom
no_reorient  #important for SAPT in psi4, default
symmetry c1  #important for SAPT in psi4, default
}

set PROPERTIES_ORIGIN ["COM"]
properties('MP2/aug-cc-pvtz', properties = ['dipole'])
--------------------------------------------------------------------------

    Molecular point group: c1
  Charge       = 0
  Multiplicity = 1
  Basis Set: AUG-CC-PVTZ
    Blend: AUG-CC-PVTZ
  Basis Set: (AUG-CC-PVTZ AUX)
    Blend: AUG-CC-PVTZ-JKFIT

    Orbital Energies [Eh]
    ---------------------

    Doubly Occupied:

       1A    -20.517217     2A    -15.638103     3A    -15.630002
       4A    -15.613434     5A    -15.575103     6A    -15.568663
       7A    -11.400581     8A    -11.358727     9A    -11.340055
      10A    -11.318180    11A    -11.248416    12A     -1.392979
      13A     -1.356928    14A     -1.333383    15A     -1.222968
      16A     -1.216995    17A     -1.165341    18A     -1.043955
      19A     -0.921120    20A     -0.884670    21A     -0.838197
      22A     -0.800376    23A     -0.739712    24A     -0.730480
      25A     -0.705814    26A     -0.679258    27A     -0.658300
      28A     -0.634002    29A     -0.615378    30A     -0.596498
      31A     -0.591285    32A     -0.549669    33A     -0.496835
      34A     -0.462756    35A     -0.437228    36A     -0.432135
      37A     -0.430222    38A     -0.403722    39A     -0.313485

  @DF-RHF Final Energy:  -539.57491807485439

   => Energetics <=

    Nuclear Repulsion Energy =            593.9544544435684656
    One-Electron Energy =               -1913.3343943534482605
    Two-Electron Energy =                 779.8050218350253999
    Total Energy =                       -539.5749180748543949
  Basis Set: (AUG-CC-PVTZ AUX)
    Blend: AUG-CC-PVTZ-RI
    Molecular point group: c1

    Geometry (in Angstrom), charge = 0, multiplicity = 1:

       Center              X                  Y                   Z               Mass
    ------------   -----------------  -----------------  -----------------  -----------------
         O            0.190841851974     2.667125007039    -0.005665692110    15.994914619570
         C            0.223376851974     1.442639007039     0.007116307890    12.000000000000
         N            1.480393851974     0.760722007039    -0.002307692110    14.003074004430
         C            1.684052851974    -0.596736992961     0.004710307890    12.000000000000
         N            0.718510851974    -1.483103992961     0.014026307890    14.003074004430
         C           -0.510299148026    -0.886654992961    -0.000797692110    12.000000000000
         C           -0.743842948026     0.487224407039     0.017871307890    12.000000000000
         N           -2.203426148026     0.657466007039     0.016147307890    14.003074004430
         C           -2.693687148026    -0.572273992961     0.003245307890    12.000000000000
         N           -1.715793148026    -1.538206992961    -0.004566692110    14.003074004430
         N            3.004177851974    -1.012242992961    -0.076996692110    14.003074004430
         H            2.278295851974     1.384083007039    -0.101764692110     1.007825032230
         H           -3.746424148026    -0.823734992961    -0.000662692110     1.007825032230
         H           -1.838391148026    -2.544084992961    -0.018289692110     1.007825032230
         H            3.077309851974    -2.013918992961     0.070770307890     1.007825032230
         H            3.656652851974    -0.494832992961     0.503205307890     1.007825032230

  Basis Set: AUG-CC-PVTZ
    Blend: AUG-CC-PVTZ
  Basis Set: (AUG-CC-PVTZ AUX)
    Blend: AUG-CC-PVTZ-JKFIT
	 Reference Energy          =    -539.5749180748543949 [Eh]
	 Singles Energy            =      -0.0000000000000000 [Eh]
	 Same-Spin Energy          =      -0.5727568120411384 [Eh]
	 Opposite-Spin Energy      =      -1.6639211737214252 [Eh]
	 Correlation Energy        =      -2.2366779857625634 [Eh]
	 Total Energy              =    -541.8115960606169210 [Eh]

	 ================> DF-SCS-MP2 Energies <==================
	-----------------------------------------------------------
	 SCS Same-Spin Scale       =       0.3333333333333333 [-]
	 SCS Opposite-Spin Scale   =       1.2000000000000000 [-]
	 SCS Same-Spin Energy      =      -0.1909189373470461 [Eh]
	 SCS Opposite-Spin Energy  =      -1.9967054084657101 [Eh]
	 SCS Correlation Energy    =      -2.1876243458127562 [Eh]
	 SCS Total Energy          =    -541.7625424206671596 [Eh]
	-----------------------------------------------------------

  Dipole Moment: [D]
     X:     2.6340      Y:    -5.8743      Z:     0.8428     Total:     6.4927

*** Psi4 exiting successfully. Buy a developer a beer!
