                               Psi4 1.3.2 release

  ==> Input File <==

--------------------------------------------------------------------------
#psi4
#
memory 32 gb

molecule  {
0 1
  O        0.1763910     2.6970700    -0.0085580
  C        0.2089260     1.4725840     0.0042240
  N        1.4659430     0.7906670    -0.0052000
  C        1.6696020    -0.5667920     0.0018180
  N        0.7040600    -1.4531590     0.0111340
  C       -0.5247500    -0.8567100    -0.0036900
  C       -0.8535700     0.4975280     0.0150930
  N       -2.2178770     0.6874110     0.0132550
  C       -2.7081380    -0.5423290     0.0003530
  N       -1.7302440    -1.5082620    -0.0074590
  N        3.0849480    -1.0122686    -0.0857825
  H        2.2638450     1.4140280    -0.1046570
  H       -3.7608750    -0.7937900    -0.0035550
  H       -1.8528420    -2.5141400    -0.0211820
  H        3.0628590    -1.9839740     0.0678780
  H        3.6422020    -0.4648880     0.5003130
units angstrom
no_reorient  #important for SAPT in psi4, default
symmetry c1  #important for SAPT in psi4, default
}

set PROPERTIES_ORIGIN ["COM"]
properties('MP2/aug-cc-pvtz', properties = ['dipole'])
--------------------------------------------------------------------------

    Molecular point group: c1
  Charge       = 0
  Multiplicity = 1
  Basis Set: AUG-CC-PVTZ
    Blend: AUG-CC-PVTZ
  Basis Set: (AUG-CC-PVTZ AUX)
    Blend: AUG-CC-PVTZ-JKFIT

    Orbital Energies [Eh]
    ---------------------

    Doubly Occupied:

       1A    -20.527344     2A    -15.639907     3A    -15.637093
       4A    -15.606561     5A    -15.581601     6A    -15.568622
       7A    -11.404943     8A    -11.371356     9A    -11.331287
      10A    -11.318246    11A    -11.256541    12A     -1.395027
      13A     -1.364128    14A     -1.329335    15A     -1.222064
      16A     -1.211976    17A     -1.181777    18A     -1.036581
      19A     -0.909297    20A     -0.884940    21A     -0.848516
      22A     -0.799422    23A     -0.744357    24A     -0.718825
      25A     -0.707487    26A     -0.678726    27A     -0.657105
      28A     -0.625923    29A     -0.617842    30A     -0.604460
      31A     -0.596496    32A     -0.544740    33A     -0.503424
      34A     -0.465435    35A     -0.445676    36A     -0.436660
      37A     -0.435280    38A     -0.415446    39A     -0.308450

  @DF-RHF Final Energy:  -539.57695963954336

   => Energetics <=

    Nuclear Repulsion Energy =            591.1836576720976382
    One-Electron Energy =               -1907.6554386239358791
    Two-Electron Energy =                 776.8948213122949937
    Total Energy =                       -539.5769596395433609
  Basis Set: (AUG-CC-PVTZ AUX)
    Blend: AUG-CC-PVTZ-RI
    Molecular point group: c1

    Geometry (in Angstrom), charge = 0, multiplicity = 1:

       Center              X                  Y                   Z               Mass
    ------------   -----------------  -----------------  -----------------  -----------------
         O            0.189583506708     2.671463834516    -0.005128390331    15.994914619570
         C            0.222118506708     1.446977834516     0.007653609669    12.000000000000
         N            1.479135506708     0.765060834516    -0.001770390331    14.003074004430
         C            1.682794506708    -0.592398165484     0.005247609669    12.000000000000
         N            0.717252506708    -1.478765165484     0.014563609669    14.003074004430
         C           -0.511557493292    -0.882316165484    -0.000260390331    12.000000000000
         C           -0.840377493292     0.471921834516     0.018522609669    12.000000000000
         N           -2.204684493292     0.661804834516     0.016684609669    14.003074004430
         C           -2.694945493292    -0.567935165484     0.003782609669    12.000000000000
         N           -1.717051493292    -1.533868165484    -0.004029390331    14.003074004430
         N            3.098140506708    -1.037874765484    -0.082352890331    14.003074004430
         H            2.277037506708     1.388421834516    -0.101227390331     1.007825032230
         H           -3.747682493292    -0.819396165484    -0.000125390331     1.007825032230
         H           -1.839649493292    -2.539746165484    -0.017752390331     1.007825032230
         H            3.076051506708    -2.009580165484     0.071307609669     1.007825032230
         H            3.655394506708    -0.490494165484     0.503742609669     1.007825032230

  Basis Set: AUG-CC-PVTZ
    Blend: AUG-CC-PVTZ
  Basis Set: (AUG-CC-PVTZ AUX)
    Blend: AUG-CC-PVTZ-JKFIT
	 Reference Energy          =    -539.5769596395433609 [Eh]
	 Singles Energy            =      -0.0000000000000000 [Eh]
	 Same-Spin Energy          =      -0.5728950568171456 [Eh]
	 Opposite-Spin Energy      =      -1.6642620802546886 [Eh]
	 Correlation Energy        =      -2.2371571370718342 [Eh]
	 Total Energy              =    -541.8141167766151511 [Eh]

	 ================> DF-SCS-MP2 Energies <==================
	-----------------------------------------------------------
	 SCS Same-Spin Scale       =       0.3333333333333333 [-]
	 SCS Opposite-Spin Scale   =       1.2000000000000000 [-]
	 SCS Same-Spin Energy      =      -0.1909650189390485 [Eh]
	 SCS Opposite-Spin Energy  =      -1.9971144963056262 [Eh]
	 SCS Correlation Energy    =      -2.1880795152446746 [Eh]
	 SCS Total Energy          =    -541.7650391547880417 [Eh]
	-----------------------------------------------------------

  Dipole Moment: [D]
     X:     1.9738      Y:    -5.4559      Z:     0.8922     Total:     5.8701

*** Psi4 exiting successfully. Buy a developer a beer!
