                               Psi4 1.4a3.dev225

  ==> Input File <==

--------------------------------------------------------------------------
#psi4
#
memory 32 gb

molecule  {
0 1
  O        0.1763800     2.6970850    -0.0086780
  C        0.2088860     1.4725900     0.0042210
  N        1.4659360     0.7906750    -0.0050880
  C        1.6696170    -0.5667500     0.0018210
  N        0.7040680    -1.4531450     0.0111020
  C       -0.5247290    -0.8567090    -0.0037110
  C       -0.8535850     0.4975420     0.0152200
  N       -2.2178950     0.6873840     0.0133320
  C       -2.7081200    -0.5423560     0.0003580
  N       -1.7302140    -1.5082770    -0.0075250
  N        2.9897250    -0.9823190    -0.0798750
  H        2.2637990     1.4140370    -0.1048620
  H       -3.8094812    -0.8054637    -0.0037399
  H       -1.8527810    -2.5141570    -0.0214260
  H        3.0628080    -1.9839860     0.0679760
  H        3.6422460    -0.4648460     0.5002060
units angstrom
no_reorient  #important for SAPT in psi4, default
symmetry c1  #important for SAPT in psi4, default
}

set PROPERTIES_ORIGIN ["COM"]
properties('MP2/aug-cc-pvtz', properties = ['dipole'])
--------------------------------------------------------------------------

    Molecular point group: c1
  Charge       = 0
  Multiplicity = 1
  Basis Set: AUG-CC-PVTZ
    Blend: AUG-CC-PVTZ
  Basis Set: (AUG-CC-PVTZ AUX)
    Blend: AUG-CC-PVTZ-JKFIT

    Orbital Energies [Eh]
    ---------------------

    Doubly Occupied:

       1A    -20.524461     2A    -15.636625     3A    -15.632072
       4A    -15.612431     5A    -15.573705     6A    -15.565546
       7A    -11.398673     8A    -11.368124     9A    -11.327753
      10A    -11.319599    11A    -11.251717    12A     -1.393647
      13A     -1.361102    14A     -1.335950    15A     -1.220853
      16A     -1.218400    17A     -1.178523    18A     -1.030373
      19A     -0.905547    20A     -0.884845    21A     -0.843298
      22A     -0.797327    23A     -0.740064    24A     -0.728326
      25A     -0.699602    26A     -0.673242    27A     -0.656064
      28A     -0.632618    29A     -0.614459    30A     -0.599049
      31A     -0.593277    32A     -0.547998    33A     -0.499791
      34A     -0.462645    35A     -0.443127    36A     -0.433199
      37A     -0.432702    38A     -0.412473    39A     -0.302978

  @DF-RHF Final Energy:  -539.58501887000909

   => Energetics <=

    Nuclear Repulsion Energy =            593.3867446028776840
    One-Electron Energy =               -1912.2391538542412945
    Two-Electron Energy =                 779.2673903813544030
    Total Energy =                       -539.5850188700090939
  Basis Set: (AUG-CC-PVTZ AUX)
    Blend: AUG-CC-PVTZ-RI
    Molecular point group: c1

    Geometry (in Angstrom), charge = 0, multiplicity = 1:

       Center              X                  Y                   Z               Mass
    ------------   -----------------  -----------------  -----------------  -----------------
         O            0.198724472971     2.668777496901    -0.005796304547    15.994914619570
         C            0.231230472971     1.444282496901     0.007102695453    12.000000000000
         N            1.488280472971     0.762367496901    -0.002206304547    14.003074004430
         C            1.691961472971    -0.595057503099     0.004702695453    12.000000000000
         N            0.726412472971    -1.481452503099     0.013983695453    14.003074004430
         C           -0.502384527029    -0.885016503099    -0.000829304547    12.000000000000
         C           -0.831240527029     0.469234496901     0.018101695453    12.000000000000
         N           -2.195550527029     0.659076496901     0.016213695453    14.003074004430
         C           -2.685775527029    -0.570663503099     0.003239695453    12.000000000000
         N           -1.707869527029    -1.536584503099    -0.004643304547    14.003074004430
         N            3.012069472971    -1.010626503099    -0.076993304547    14.003074004430
         H            2.286143472971     1.385729496901    -0.101980304547     1.007825032230
         H           -3.787136727029    -0.833771203099    -0.000858204547     1.007825032230
         H           -1.830436527029    -2.542464503099    -0.018544304547     1.007825032230
         H            3.085152472971    -2.012293503099     0.070857695453     1.007825032230
         H            3.664590472971    -0.493153503099     0.503087695453     1.007825032230

  Basis Set: AUG-CC-PVTZ
    Blend: AUG-CC-PVTZ
  Basis Set: (AUG-CC-PVTZ AUX)
    Blend: AUG-CC-PVTZ-JKFIT
	 Reference Energy          =    -539.5850188700095487 [Eh]
	 Singles Energy            =      -0.0000000000000000 [Eh]
	 Same-Spin Energy          =      -0.5731614997648149 [Eh]
	 Opposite-Spin Energy      =      -1.6635915885500423 [Eh]
	 Correlation Energy        =      -2.2367530883148570 [Eh]
	 Total Energy              =    -541.8217719583244616 [Eh]

	 ================> DF-SCS-MP2 Energies <==================
	-----------------------------------------------------------
	 SCS Same-Spin Scale       =       0.3333333333333333 [-]
	 SCS Opposite-Spin Scale   =       1.2000000000000000 [-]
	 SCS Same-Spin Energy      =      -0.1910538332549383 [Eh]
	 SCS Opposite-Spin Energy  =      -1.9963099062600507 [Eh]
	 SCS Correlation Energy    =      -2.1873637395149887 [Eh]
	 SCS Total Energy          =    -541.7723826095245840 [Eh]
	-----------------------------------------------------------

  Dipole Moment: [D]
     X:     2.6655      Y:    -5.6300      Z:     0.8434     Total:     6.2859

*** Psi4 exiting successfully. Buy a developer a beer!
