                               Psi4 1.4a3.dev225

  ==> Input File <==

--------------------------------------------------------------------------
#psi4
#
memory 32 gb

molecule  {
0 1
  O        0.1763800     2.6970850    -0.0086780
  C        0.2088860     1.4725900     0.0042210
  N        1.4659360     0.7906750    -0.0050880
  C        1.6696170    -0.5667500     0.0018210
  N        0.7040680    -1.4531450     0.0111020
  C       -0.5247290    -0.8567090    -0.0037110
  C       -0.8904224     0.4637357     0.0156014
  N       -2.2178950     0.6873840     0.0133320
  C       -2.7081200    -0.5423560     0.0003580
  N       -1.7302140    -1.5082770    -0.0075250
  N        2.9897250    -0.9823190    -0.0798750
  H        2.2637990     1.4140370    -0.1048620
  H       -3.7608500    -0.7938460    -0.0035590
  H       -1.8527810    -2.5141570    -0.0214260
  H        3.0628080    -1.9839860     0.0679760
  H        3.6422460    -0.4648460     0.5002060
units angstrom
no_reorient  #important for SAPT in psi4, default
symmetry c1  #important for SAPT in psi4, default
}

set PROPERTIES_ORIGIN ["COM"]
properties('MP2/aug-cc-pvtz', properties = ['dipole'])
--------------------------------------------------------------------------

    Molecular point group: c1
  Charge       = 0
  Multiplicity = 1
  Basis Set: AUG-CC-PVTZ
    Blend: AUG-CC-PVTZ
  Basis Set: (AUG-CC-PVTZ AUX)
    Blend: AUG-CC-PVTZ-JKFIT

    Orbital Energies [Eh]
    ---------------------

    Doubly Occupied:

       1A    -20.529338     2A    -15.634254     3A    -15.632187
       4A    -15.611570     5A    -15.572345     6A    -15.563583
       7A    -11.397302     8A    -11.372527     9A    -11.319175
      10A    -11.313112    11A    -11.251863    12A     -1.394680
      13A     -1.364773    14A     -1.337049    15A     -1.219984
      16A     -1.219515    17A     -1.182035    18A     -1.028383
      19A     -0.900331    20A     -0.883954    21A     -0.849653
      22A     -0.798413    23A     -0.739635    24A     -0.729250
      25A     -0.700314    26A     -0.672244    27A     -0.656027
      28A     -0.633561    29A     -0.616094    30A     -0.599777
      31A     -0.596188    32A     -0.547036    33A     -0.501228
      34A     -0.462418    35A     -0.448022    36A     -0.433650
      37A     -0.432515    38A     -0.415057    39A     -0.301369

  @DF-RHF Final Energy:  -539.58441497770241

   => Energetics <=

    Nuclear Repulsion Energy =            593.8246256553335343
    One-Electron Energy =               -1913.0972606879454361
    Two-Electron Energy =                 779.6882200549096069
    Total Energy =                       -539.5844149777024086
  Basis Set: (AUG-CC-PVTZ AUX)
    Blend: AUG-CC-PVTZ-RI
    Molecular point group: c1

    Geometry (in Angstrom), charge = 0, multiplicity = 1:

       Center              X                  Y                   Z               Mass
    ------------   -----------------  -----------------  -----------------  -----------------
         O            0.201326515970     2.671385696374    -0.005827811559    15.994914619570
         C            0.233832515970     1.446890696374     0.007071188441    12.000000000000
         N            1.490882515970     0.764975696374    -0.002237811559    14.003074004430
         C            1.694563515970    -0.592449303626     0.004671188441    12.000000000000
         N            0.729014515970    -1.478844303626     0.013952188441    14.003074004430
         C           -0.499782484030    -0.882408303626    -0.000860811559    12.000000000000
         C           -0.865475884030     0.438036396374     0.018451588441    12.000000000000
         N           -2.192948484030     0.661684696374     0.016182188441    14.003074004430
         C           -2.683173484030    -0.568055303626     0.003208188441    12.000000000000
         N           -1.705267484030    -1.533976303626    -0.004674811559    14.003074004430
         N            3.014671515970    -1.008018303626    -0.077024811559    14.003074004430
         H            2.288745515970     1.388337696374    -0.102011811559     1.007825032230
         H           -3.735903484030    -0.819545303626    -0.000708811559     1.007825032230
         H           -1.827834484030    -2.539856303626    -0.018575811559     1.007825032230
         H            3.087754515970    -2.009685303626     0.070826188441     1.007825032230
         H            3.667192515970    -0.490545303626     0.503056188441     1.007825032230

  Basis Set: AUG-CC-PVTZ
    Blend: AUG-CC-PVTZ
  Basis Set: (AUG-CC-PVTZ AUX)
    Blend: AUG-CC-PVTZ-JKFIT
	 Reference Energy          =    -539.5844149777024086 [Eh]
	 Singles Energy            =      -0.0000000000000000 [Eh]
	 Same-Spin Energy          =      -0.5729766233421003 [Eh]
	 Opposite-Spin Energy      =      -1.6629883320367385 [Eh]
	 Correlation Energy        =      -2.2359649553788388 [Eh]
	 Total Energy              =    -541.8203799330811989 [Eh]

	 ================> DF-SCS-MP2 Energies <==================
	-----------------------------------------------------------
	 SCS Same-Spin Scale       =       0.3333333333333333 [-]
	 SCS Opposite-Spin Scale   =       1.2000000000000000 [-]
	 SCS Same-Spin Energy      =      -0.1909922077807001 [Eh]
	 SCS Opposite-Spin Energy  =      -1.9955859984440860 [Eh]
	 SCS Correlation Energy    =      -2.1865782062247860 [Eh]
	 SCS Total Energy          =    -541.7709931839272031 [Eh]
	-----------------------------------------------------------

  Dipole Moment: [D]
     X:     2.6954      Y:    -5.4792      Z:     0.8437     Total:     6.1643

*** Psi4 exiting successfully. Buy a developer a beer!
