                               Psi4 1.3.2 release

  ==> Input File <==

--------------------------------------------------------------------------
#psi4
#
memory 32 gb

molecule  {
0 1
  O        0.1763910     2.6970700    -0.0085580
  C        0.2089260     1.4725840     0.0042240
  N        1.4659430     0.7906670    -0.0052000
  C        1.8095435    -0.5382740    -0.0138988
  N        0.7040600    -1.4531590     0.0111340
  C       -0.5247500    -0.8567100    -0.0036900
  C       -0.8535700     0.4975280     0.0150930
  N       -2.2178770     0.6874110     0.0132550
  C       -2.7081380    -0.5423290     0.0003530
  N       -1.7302440    -1.5082620    -0.0074590
  N        2.9897270    -0.9822980    -0.0798890
  H        2.2638450     1.4140280    -0.1046570
  H       -3.7608750    -0.7937900    -0.0035550
  H       -1.8528420    -2.5141400    -0.0211820
  H        3.0628590    -1.9839740     0.0678780
  H        3.6422020    -0.4648880     0.5003130
units angstrom
no_reorient  #important for SAPT in psi4, default
symmetry c1  #important for SAPT in psi4, default
}

set PROPERTIES_ORIGIN ["COM"]
properties('MP2/aug-cc-pvtz', properties = ['dipole'])
--------------------------------------------------------------------------

    Molecular point group: c1
  Charge       = 0
  Multiplicity = 1
  Basis Set: AUG-CC-PVTZ
    Blend: AUG-CC-PVTZ
  Basis Set: (AUG-CC-PVTZ AUX)
    Blend: AUG-CC-PVTZ-JKFIT

    Orbital Energies [Eh]
    ---------------------

    Doubly Occupied:

       1A    -20.521008     2A    -15.636961     3A    -15.635125
       4A    -15.625858     5A    -15.561148     6A    -15.556698
       7A    -11.409308     8A    -11.366642     9A    -11.318868
      10A    -11.305788    11A    -11.238921    12A     -1.393414
      13A     -1.359849    14A     -1.348502    15A     -1.251580
      16A     -1.192509    17A     -1.159628    18A     -1.020258
      19A     -0.905639    20A     -0.888634    21A     -0.835122
      22A     -0.806060    23A     -0.768076    24A     -0.730489
      25A     -0.711719    26A     -0.671248    27A     -0.654828
      28A     -0.622272    29A     -0.609546    30A     -0.597322
      31A     -0.592519    32A     -0.554352    33A     -0.479689
      34A     -0.462978    35A     -0.439339    36A     -0.427805
      37A     -0.418996    38A     -0.402879    39A     -0.284911

  @DF-RHF Final Energy:  -539.55340290106733

   => Energetics <=

    Nuclear Repulsion Energy =            592.3308336692758758
    One-Electron Energy =               -1910.2355000106306306
    Two-Electron Energy =                 778.3512634402873118
    Total Energy =                       -539.5534029010673294
  Basis Set: (AUG-CC-PVTZ AUX)
    Blend: AUG-CC-PVTZ-RI
    Molecular point group: c1

    Geometry (in Angstrom), charge = 0, multiplicity = 1:

       Center              X                  Y                   Z               Mass
    ------------   -----------------  -----------------  -----------------  -----------------
         O            0.187293452807     2.666419812625    -0.004426140097    15.994914619570
         C            0.219828452807     1.441933812625     0.008355859903    12.000000000000
         N            1.476845452807     0.760016812625    -0.001068140097    14.003074004430
         C            1.820445952807    -0.568924187375    -0.009766940097    12.000000000000
         N            0.714962452807    -1.483809187375     0.015265859903    14.003074004430
         C           -0.513847547193    -0.887360187375     0.000441859903    12.000000000000
         C           -0.842667547193     0.466877812625     0.019224859903    12.000000000000
         N           -2.206974547193     0.656760812625     0.017386859903    14.003074004430
         C           -2.697235547193    -0.572979187375     0.004484859903    12.000000000000
         N           -1.719341547193    -1.538912187375    -0.003327140097    14.003074004430
         N            3.000629452807    -1.012948187375    -0.075757140097    14.003074004430
         H            2.274747452807     1.383377812625    -0.100525140097     1.007825032230
         H           -3.749972547193    -0.824440187375     0.000576859903     1.007825032230
         H           -1.841939547193    -2.544790187375    -0.017050140097     1.007825032230
         H            3.073761452807    -2.014624187375     0.072009859903     1.007825032230
         H            3.653104452807    -0.495538187375     0.504444859903     1.007825032230

  Basis Set: AUG-CC-PVTZ
    Blend: AUG-CC-PVTZ
  Basis Set: (AUG-CC-PVTZ AUX)
    Blend: AUG-CC-PVTZ-JKFIT
	 Reference Energy          =    -539.5534029010673294 [Eh]
	 Singles Energy            =      -0.0000000000000000 [Eh]
	 Same-Spin Energy          =      -0.5747753248086336 [Eh]
	 Opposite-Spin Energy      =      -1.6653271401932168 [Eh]
	 Correlation Energy        =      -2.2401024650018506 [Eh]
	 Total Energy              =    -541.7935053660692120 [Eh]

	 ================> DF-SCS-MP2 Energies <==================
	-----------------------------------------------------------
	 SCS Same-Spin Scale       =       0.3333333333333333 [-]
	 SCS Opposite-Spin Scale   =       1.2000000000000000 [-]
	 SCS Same-Spin Energy      =      -0.1915917749362112 [Eh]
	 SCS Opposite-Spin Energy  =      -1.9983925682318602 [Eh]
	 SCS Correlation Energy    =      -2.1899843431680712 [Eh]
	 SCS Total Energy          =    -541.7433872442353504 [Eh]
	-----------------------------------------------------------

  Dipole Moment: [D]
     X:     4.0216      Y:    -5.7030      Z:     0.7956     Total:     7.0236

*** Psi4 exiting successfully. Buy a developer a beer!
