                               Psi4 1.3.2 release

  ==> Input File <==

--------------------------------------------------------------------------
#psi4
#
memory 32 gb

molecule  {
0 1
  O        0.1763910     2.6970700    -0.0085580
  C        0.2089260     1.4725840     0.0042240
  N        1.4659430     0.7906670    -0.0052000
  C        1.6696020    -0.5667920     0.0018180
  N        0.7040600    -1.4531590     0.0111340
  C       -0.3448359    -0.9440381    -0.0015196
  C       -0.8535700     0.4975280     0.0150930
  N       -2.2178770     0.6874110     0.0132550
  C       -2.7081380    -0.5423290     0.0003530
  N       -1.7302440    -1.5082620    -0.0074590
  N        2.9897270    -0.9822980    -0.0798890
  H        2.2638450     1.4140280    -0.1046570
  H       -3.7608750    -0.7937900    -0.0035550
  H       -1.8528420    -2.5141400    -0.0211820
  H        3.0628590    -1.9839740     0.0678780
  H        3.6422020    -0.4648880     0.5003130
units angstrom
no_reorient  #important for SAPT in psi4, default
symmetry c1  #important for SAPT in psi4, default
}

set PROPERTIES_ORIGIN ["COM"]
properties('MP2/aug-cc-pvtz', properties = ['dipole'])
--------------------------------------------------------------------------

    Molecular point group: c1
  Charge       = 0
  Multiplicity = 1
  Basis Set: AUG-CC-PVTZ
    Blend: AUG-CC-PVTZ
  Basis Set: (AUG-CC-PVTZ AUX)
    Blend: AUG-CC-PVTZ-JKFIT

    Orbital Energies [Eh]
    ---------------------

    Doubly Occupied:

       1A    -20.507791     2A    -15.645630     3A    -15.627432
       4A    -15.619443     5A    -15.583182     6A    -15.558639
       7A    -11.421298     8A    -11.354287     9A    -11.340206
      10A    -11.310740    11A    -11.253236    12A     -1.415061
      13A     -1.362168    14A     -1.316395    15A     -1.274624
      16A     -1.230203    17A     -1.158616    18A     -1.012423
      19A     -0.931451    20A     -0.890687    21A     -0.828934
      22A     -0.799112    23A     -0.747906    24A     -0.733113
      25A     -0.704315    26A     -0.676114    27A     -0.669843
      28A     -0.632627    29A     -0.607250    30A     -0.591018
      31A     -0.580590    32A     -0.554724    33A     -0.502159
      34A     -0.496352    35A     -0.442445    36A     -0.437047
      37A     -0.412917    38A     -0.399825    39A     -0.272957

  @DF-RHF Final Energy:  -539.50937770434996

   => Energetics <=

    Nuclear Repulsion Energy =            593.5162644461448735
    One-Electron Energy =               -1912.2457680951911243
    Two-Electron Energy =                 779.2201259446964059
    Total Energy =                       -539.5093777043499585
  Basis Set: (AUG-CC-PVTZ AUX)
    Blend: AUG-CC-PVTZ-RI
    Molecular point group: c1

    Geometry (in Angstrom), charge = 0, multiplicity = 1:

       Center              X                  Y                   Z               Mass
    ------------   -----------------  -----------------  -----------------  -----------------
         O            0.184117861451     2.675623113729    -0.005847174448    15.994914619570
         C            0.216652861451     1.451137113729     0.006934825552    12.000000000000
         N            1.473669861451     0.769220113729    -0.002489174448    14.003074004430
         C            1.677328861451    -0.588238886271     0.004528825552    12.000000000000
         N            0.711786861451    -1.474605886271     0.013844825552    14.003074004430
         C           -0.337109038549    -0.965484986271     0.001191225552    12.000000000000
         C           -0.845843138549     0.476081113729     0.017803825552    12.000000000000
         N           -2.210150138549     0.665964113729     0.015965825552    14.003074004430
         C           -2.700411138549    -0.563775886271     0.003063825552    12.000000000000
         N           -1.722517138549    -1.529708886271    -0.004748174448    14.003074004430
         N            2.997453861451    -1.003744886271    -0.077178174448    14.003074004430
         H            2.271571861451     1.392581113729    -0.101946174448     1.007825032230
         H           -3.753148138549    -0.815236886271    -0.000844174448     1.007825032230
         H           -1.845115138549    -2.535586886271    -0.018471174448     1.007825032230
         H            3.070585861451    -2.005420886271     0.070588825552     1.007825032230
         H            3.649928861451    -0.486334886271     0.503023825552     1.007825032230

  Basis Set: AUG-CC-PVTZ
    Blend: AUG-CC-PVTZ
  Basis Set: (AUG-CC-PVTZ AUX)
    Blend: AUG-CC-PVTZ-JKFIT
	 Reference Energy          =    -539.5093777043499585 [Eh]
	 Singles Energy            =      -0.0000000000000000 [Eh]
	 Same-Spin Energy          =      -0.5778547913974582 [Eh]
	 Opposite-Spin Energy      =      -1.6680826432133933 [Eh]
	 Correlation Energy        =      -2.2459374346108514 [Eh]
	 Total Energy              =    -541.7553151389607820 [Eh]

	 ================> DF-SCS-MP2 Energies <==================
	-----------------------------------------------------------
	 SCS Same-Spin Scale       =       0.3333333333333333 [-]
	 SCS Opposite-Spin Scale   =       1.2000000000000000 [-]
	 SCS Same-Spin Energy      =      -0.1926182637991527 [Eh]
	 SCS Opposite-Spin Energy  =      -2.0016991718560719 [Eh]
	 SCS Correlation Energy    =      -2.1943174356552246 [Eh]
	 SCS Total Energy          =    -541.7036951400051521 [Eh]
	-----------------------------------------------------------

  Dipole Moment: [D]
     X:     3.5164      Y:    -5.9871      Z:     0.8500     Total:     6.9952

*** Psi4 exiting successfully. Buy a developer a beer!
