                               Psi4 1.3.2 release

  ==> Input File <==

--------------------------------------------------------------------------
#psi4
#
memory 32 gb

molecule  {
0 1
  O        0.1763910     2.6970700    -0.0085580
  C        0.2089260     1.4725840     0.0042240
  N        1.4659430     0.7906670    -0.0052000
  C        1.6696020    -0.5667920     0.0018180
  N        0.7040600    -1.4531590     0.0111340
  C       -0.5247500    -0.8567100    -0.0036900
  C       -0.8535700     0.4975280     0.0150930
  N       -2.2178770     0.6874110     0.0132550
  C       -2.7081380    -0.5423290     0.0003530
  N       -1.7302440    -1.5082620    -0.0074590
  N        2.9897270    -0.9822980    -0.0798890
  H        2.2638450     1.4140280    -0.1046570
  H       -3.7608750    -0.7937900    -0.0035550
  H       -1.8528420    -2.5141400    -0.0211820
  H        3.0700630    -2.0826463     0.0824341
  H        3.6422020    -0.4648880     0.5003130
units angstrom
no_reorient  #important for SAPT in psi4, default
symmetry c1  #important for SAPT in psi4, default
}

set PROPERTIES_ORIGIN ["COM"]
properties('MP2/aug-cc-pvtz', properties = ['dipole'])
--------------------------------------------------------------------------

    Molecular point group: c1
  Charge       = 0
  Multiplicity = 1
  Basis Set: AUG-CC-PVTZ
    Blend: AUG-CC-PVTZ
  Basis Set: (AUG-CC-PVTZ AUX)
    Blend: AUG-CC-PVTZ-JKFIT

    Orbital Energies [Eh]
    ---------------------

    Doubly Occupied:

       1A    -20.524173     2A    -15.635934     3A    -15.631801
       4A    -15.620230     5A    -15.572918     6A    -15.565041
       7A    -11.398172     8A    -11.367791     9A    -11.327181
      10A    -11.314009    11A    -11.251062    12A     -1.393026
      13A     -1.360576    14A     -1.333686    15A     -1.218199
      16A     -1.210346    17A     -1.177903    18A     -1.029694
      19A     -0.905950    20A     -0.881191    21A     -0.844689
      22A     -0.797550    23A     -0.739319    24A     -0.727751
      25A     -0.690278    26A     -0.663135    27A     -0.652419
      28A     -0.633282    29A     -0.613589    30A     -0.601106
      31A     -0.595839    32A     -0.546993    33A     -0.499402
      34A     -0.460766    35A     -0.442946    36A     -0.432659
      37A     -0.432299    38A     -0.411951    39A     -0.302432

  @DF-RHF Final Energy:  -539.57740296008376

   => Energetics <=

    Nuclear Repulsion Energy =            593.1449054153570160
    One-Electron Energy =               -1911.8300393107492710
    Two-Electron Energy =                 779.1077309353084956
    Total Energy =                       -539.5774029600837594
  Basis Set: (AUG-CC-PVTZ AUX)
    Blend: AUG-CC-PVTZ-RI
    Molecular point group: c1

    Geometry (in Angstrom), charge = 0, multiplicity = 1:

       Center              X                  Y                   Z               Mass
    ------------   -----------------  -----------------  -----------------  -----------------
         O            0.198362927561     2.669343759262    -0.005771869301    15.994914619570
         C            0.230897927561     1.444857759262     0.007010130699    12.000000000000
         N            1.487914927561     0.762940759262    -0.002413869301    14.003074004430
         C            1.691573927561    -0.594518240738     0.004604130699    12.000000000000
         N            0.726031927561    -1.480885240738     0.013920130699    14.003074004430
         C           -0.502778072439    -0.884436240738    -0.000903869301    12.000000000000
         C           -0.831598072439     0.469801759262     0.017879130699    12.000000000000
         N           -2.195905072439     0.659684759262     0.016041130699    14.003074004430
         C           -2.686166072439    -0.570055240738     0.003139130699    12.000000000000
         N           -1.708272072439    -1.535988240738    -0.004672869301    14.003074004430
         N            3.011698927561    -1.010024240738    -0.077102869301    14.003074004430
         H            2.285816927561     1.386301759262    -0.101870869301     1.007825032230
         H           -3.738903072439    -0.821516240738    -0.000768869301     1.007825032230
         H           -1.830870072439    -2.541866240738    -0.018395869301     1.007825032230
         H            3.092034927561    -2.110372540738     0.085220230699     1.007825032230
         H            3.664173927561    -0.492614240738     0.503099130699     1.007825032230

  Basis Set: AUG-CC-PVTZ
    Blend: AUG-CC-PVTZ
  Basis Set: (AUG-CC-PVTZ AUX)
    Blend: AUG-CC-PVTZ-JKFIT
	 Reference Energy          =    -539.5774029600837594 [Eh]
	 Singles Energy            =      -0.0000000000000000 [Eh]
	 Same-Spin Energy          =      -0.5736586012272972 [Eh]
	 Opposite-Spin Energy      =      -1.6650074112057203 [Eh]
	 Correlation Energy        =      -2.2386660124330175 [Eh]
	 Total Energy              =    -541.8160689725167458 [Eh]

	 ================> DF-SCS-MP2 Energies <==================
	-----------------------------------------------------------
	 SCS Same-Spin Scale       =       0.3333333333333333 [-]
	 SCS Opposite-Spin Scale   =       1.2000000000000000 [-]
	 SCS Same-Spin Energy      =      -0.1912195337424324 [Eh]
	 SCS Opposite-Spin Energy  =      -1.9980088934468643 [Eh]
	 SCS Correlation Energy    =      -2.1892284271892968 [Eh]
	 SCS Total Energy          =    -541.7666313872730370 [Eh]
	-----------------------------------------------------------

  Dipole Moment: [D]
     X:     2.6928      Y:    -5.7285      Z:     0.8478     Total:     6.3863

*** Psi4 exiting successfully. Buy a developer a beer!
