                               Psi4 1.3.2 release

  ==> Input File <==

--------------------------------------------------------------------------
#psi4
#
memory 32 gb

molecule  {
0 1
  O        0.1763910     2.6970700    -0.0085580
  C        0.2089260     1.4725840     0.0042240
  N        1.4659430     0.7906670    -0.0052000
  C        1.6696020    -0.5667920     0.0018180
  N        0.7040600    -1.4531590     0.0111340
  C       -0.5247500    -0.8567100    -0.0036900
  C       -0.8535700     0.4975280     0.0150930
  N       -2.2178770     0.6874110     0.0132550
  C       -2.7451688    -0.6352148    -0.0006215
  N       -1.7302440    -1.5082620    -0.0074590
  N        2.9897270    -0.9822980    -0.0798890
  H        2.2638450     1.4140280    -0.1046570
  H       -3.7608750    -0.7937900    -0.0035550
  H       -1.8528420    -2.5141400    -0.0211820
  H        3.0628590    -1.9839740     0.0678780
  H        3.6422020    -0.4648880     0.5003130
units angstrom
no_reorient  #important for SAPT in psi4, default
symmetry c1  #important for SAPT in psi4, default
}

set PROPERTIES_ORIGIN ["COM"]
properties('MP2/aug-cc-pvtz', properties = ['dipole'])
--------------------------------------------------------------------------

    Molecular point group: c1
  Charge       = 0
  Multiplicity = 1
  Basis Set: AUG-CC-PVTZ
    Blend: AUG-CC-PVTZ
  Basis Set: (AUG-CC-PVTZ AUX)
    Blend: AUG-CC-PVTZ-JKFIT

    Orbital Energies [Eh]
    ---------------------

    Doubly Occupied:

       1A    -20.527519     2A    -15.646279     3A    -15.632665
       4A    -15.611433     5A    -15.573785     6A    -15.568174
       7A    -11.397026     8A    -11.370417     9A    -11.324844
      10A    -11.316527    11A    -11.254409    12A     -1.394513
      13A     -1.361746    14A     -1.335218    15A     -1.220934
      16A     -1.213709    17A     -1.165617    18A     -1.028802
      19A     -0.915708    20A     -0.882668    21A     -0.849343
      22A     -0.802208    23A     -0.738463    24A     -0.735326
      25A     -0.704968    26A     -0.674821    27A     -0.657909
      28A     -0.641978    29A     -0.616014    30A     -0.598764
      31A     -0.591088    32A     -0.548643    33A     -0.496031
      34A     -0.460004    35A     -0.443506    36A     -0.431133
      37A     -0.430245    38A     -0.408388    39A     -0.294178

  @DF-RHF Final Energy:  -539.56741190537787

   => Energetics <=

    Nuclear Repulsion Energy =            592.2791518338570995
    One-Electron Energy =               -1909.9631237017767944
    Two-Electron Energy =                 778.1165599625419418
    Total Energy =                       -539.5674119053778668
  Basis Set: (AUG-CC-PVTZ AUX)
    Blend: AUG-CC-PVTZ-RI
    Molecular point group: c1

    Geometry (in Angstrom), charge = 0, multiplicity = 1:

       Center              X                  Y                   Z               Mass
    ------------   -----------------  -----------------  -----------------  -----------------
         O            0.201352876162     2.676064640777    -0.005597330373    15.994914619570
         C            0.233887876162     1.451578640777     0.007184669627    12.000000000000
         N            1.490904876162     0.769661640777    -0.002239330373    14.003074004430
         C            1.694563876162    -0.587797359223     0.004778669627    12.000000000000
         N            0.729021876162    -1.474164359223     0.014094669627    14.003074004430
         C           -0.499788123838    -0.877715359223    -0.000729330373    12.000000000000
         C           -0.828608123838     0.476522640777     0.018053669627    12.000000000000
         N           -2.192915123838     0.666405640777     0.016215669627    14.003074004430
         C           -2.720206923838    -0.656220159223     0.002339169627    12.000000000000
         N           -1.705282123838    -1.529267359223    -0.004498330373    14.003074004430
         N            3.014688876162    -1.003303359223    -0.076928330373    14.003074004430
         H            2.288806876162     1.393022640777    -0.101696330373     1.007825032230
         H           -3.735913123838    -0.814795359223    -0.000594330373     1.007825032230
         H           -1.827880123838    -2.535145359223    -0.018221330373     1.007825032230
         H            3.087820876162    -2.004979359223     0.070838669627     1.007825032230
         H            3.667163876162    -0.485893359223     0.503273669627     1.007825032230

  Basis Set: AUG-CC-PVTZ
    Blend: AUG-CC-PVTZ
  Basis Set: (AUG-CC-PVTZ AUX)
    Blend: AUG-CC-PVTZ-JKFIT
	 Reference Energy          =    -539.5674119053778668 [Eh]
	 Singles Energy            =      -0.0000000000000000 [Eh]
	 Same-Spin Energy          =      -0.5759563713029894 [Eh]
	 Opposite-Spin Energy      =      -1.6686581145614277 [Eh]
	 Correlation Energy        =      -2.2446144858644170 [Eh]
	 Total Energy              =    -541.8120263912422843 [Eh]

	 ================> DF-SCS-MP2 Energies <==================
	-----------------------------------------------------------
	 SCS Same-Spin Scale       =       0.3333333333333333 [-]
	 SCS Opposite-Spin Scale   =       1.2000000000000000 [-]
	 SCS Same-Spin Energy      =      -0.1919854571009965 [Eh]
	 SCS Opposite-Spin Energy  =      -2.0023897374737132 [Eh]
	 SCS Correlation Energy    =      -2.1943751945747096 [Eh]
	 SCS Total Energy          =    -541.7617870999525849 [Eh]
	-----------------------------------------------------------

  Dipole Moment: [D]
     X:     2.7365      Y:    -5.7618      Z:     0.8432     Total:     6.4341

*** Psi4 exiting successfully. Buy a developer a beer!
