                               Psi4 1.3.2 release

  ==> Input File <==

--------------------------------------------------------------------------
#psi4
#
memory 32 gb

molecule  {
0 1
  O        0.1763910     2.6970700    -0.0085580
  C        0.2257757     1.4538929     0.0037336
  N        1.4659430     0.7906670    -0.0052000
  C        1.6696020    -0.5667920     0.0018180
  N        0.7040600    -1.4531590     0.0111340
  C       -0.5247500    -0.8567100    -0.0036900
  C       -0.8535700     0.4975280     0.0150930
  N       -2.2178770     0.6874110     0.0132550
  C       -2.7081380    -0.5423290     0.0003530
  N       -1.7302440    -1.5082620    -0.0074590
  N        2.9897270    -0.9822980    -0.0798890
  H        2.2638450     1.4140280    -0.1046570
  H       -3.7608750    -0.7937900    -0.0035550
  H       -1.8528420    -2.5141400    -0.0211820
  H        3.0628590    -1.9839740     0.0678780
  H        3.6422020    -0.4648880     0.5003130
units angstrom
no_reorient  #important for SAPT in psi4, default
symmetry c1  #important for SAPT in psi4, default
}

set PROPERTIES_ORIGIN ["COM"]
properties('MP2/aug-cc-pvtz', properties = ['dipole'])
--------------------------------------------------------------------------

    Molecular point group: c1
  Charge       = 0
  Multiplicity = 1
  Basis Set: AUG-CC-PVTZ
    Blend: AUG-CC-PVTZ
  Basis Set: (AUG-CC-PVTZ AUX)
    Blend: AUG-CC-PVTZ-JKFIT

    Orbital Energies [Eh]
    ---------------------

    Doubly Occupied:

       1A    -20.519206     2A    -15.636658     3A    -15.636178
       4A    -15.614154     5A    -15.576058     6A    -15.565937
       7A    -11.400647     8A    -11.367045     9A    -11.327645
      10A    -11.315144    11A    -11.252325    12A     -1.390959
      13A     -1.356535    14A     -1.333995    15A     -1.224590
      16A     -1.220284    17A     -1.179178    18A     -1.032467
      19A     -0.909154    20A     -0.889339    21A     -0.845295
      22A     -0.801859    23A     -0.744644    24A     -0.731463
      25A     -0.701332    26A     -0.672971    27A     -0.658358
      28A     -0.635271    29A     -0.608574    30A     -0.600255
      31A     -0.598054    32A     -0.544578    33A     -0.501109
      34A     -0.463384    35A     -0.442105    36A     -0.431311
      37A     -0.430340    38A     -0.412671    39A     -0.303417

  @DF-RHF Final Energy:  -539.58567480322631

   => Energetics <=

    Nuclear Repulsion Energy =            593.8011059679477057
    One-Electron Energy =               -1913.0245758366424980
    Two-Electron Energy =                 779.6377950654684810
    Total Energy =                       -539.5856748032263113
  Basis Set: (AUG-CC-PVTZ AUX)
    Blend: AUG-CC-PVTZ-RI
    Molecular point group: c1

    Geometry (in Angstrom), charge = 0, multiplicity = 1:

       Center              X                  Y                   Z               Mass
    ------------   -----------------  -----------------  -----------------  -----------------
         O            0.197072382773     2.670170301956    -0.005635789312    15.994914619570
         C            0.246457082773     1.426993201956     0.006655810688    12.000000000000
         N            1.486624382773     0.763767301956    -0.002277789312    14.003074004430
         C            1.690283382773    -0.593691698044     0.004740210688    12.000000000000
         N            0.724741382773    -1.480058698044     0.014056210688    14.003074004430
         C           -0.504068617227    -0.883609698044    -0.000767789312    12.000000000000
         C           -0.832888617227     0.470628301956     0.018015210688    12.000000000000
         N           -2.197195617227     0.660511301956     0.016177210688    14.003074004430
         C           -2.687456617227    -0.569228698044     0.003275210688    12.000000000000
         N           -1.709562617227    -1.535161698044    -0.004536789312    14.003074004430
         N            3.010408382773    -1.009197698044    -0.076966789312    14.003074004430
         H            2.284526382773     1.387128301956    -0.101734789312     1.007825032230
         H           -3.740193617227    -0.820689698044    -0.000632789312     1.007825032230
         H           -1.832160617227    -2.541039698044    -0.018259789312     1.007825032230
         H            3.083540382773    -2.010873698044     0.070800210688     1.007825032230
         H            3.662883382773    -0.491787698044     0.503235210688     1.007825032230

  Basis Set: AUG-CC-PVTZ
    Blend: AUG-CC-PVTZ
  Basis Set: (AUG-CC-PVTZ AUX)
    Blend: AUG-CC-PVTZ-JKFIT
	 Reference Energy          =    -539.5856748032263113 [Eh]
	 Singles Energy            =      -0.0000000000000000 [Eh]
	 Same-Spin Energy          =      -0.5734066093439373 [Eh]
	 Opposite-Spin Energy      =      -1.6638434095605323 [Eh]
	 Correlation Energy        =      -2.2372500189044695 [Eh]
	 Total Energy              =    -541.8229248221307444 [Eh]

	 ================> DF-SCS-MP2 Energies <==================
	-----------------------------------------------------------
	 SCS Same-Spin Scale       =       0.3333333333333333 [-]
	 SCS Opposite-Spin Scale   =       1.2000000000000000 [-]
	 SCS Same-Spin Energy      =      -0.1911355364479791 [Eh]
	 SCS Opposite-Spin Energy  =      -1.9966120914726386 [Eh]
	 SCS Correlation Energy    =      -2.1877476279206176 [Eh]
	 SCS Total Energy          =    -541.7734224311469688 [Eh]
	-----------------------------------------------------------

  Dipole Moment: [D]
     X:     2.7532      Y:    -5.8382      Z:     0.8449     Total:     6.5099

*** Psi4 exiting successfully. Buy a developer a beer!
