                               Psi4 1.3.2 release

  ==> Input File <==

--------------------------------------------------------------------------
#psi4
#
memory 32 gb

molecule  {
0 1
  O        0.1763910     2.6970700    -0.0085580
  C        0.2089260     1.4725840     0.0042240
  N        1.4659430     0.7906670    -0.0052000
  C        1.6696020    -0.5667920     0.0018180
  N        0.7040600    -1.4531590     0.0111340
  C       -0.5247500    -0.8567100    -0.0036900
  C       -0.8535700     0.4975280     0.0150930
  N       -2.3491125     0.7319198     0.0135234
  C       -2.7081380    -0.5423290     0.0003530
  N       -1.7302440    -1.5082620    -0.0074590
  N        2.9897270    -0.9822980    -0.0798890
  H        2.2638450     1.4140280    -0.1046570
  H       -3.7608750    -0.7937900    -0.0035550
  H       -1.8528420    -2.5141400    -0.0211820
  H        3.0628590    -1.9839740     0.0678780
  H        3.6422020    -0.4648880     0.5003130
units angstrom
no_reorient  #important for SAPT in psi4, default
symmetry c1  #important for SAPT in psi4, default
}

set PROPERTIES_ORIGIN ["COM"]
properties('MP2/aug-cc-pvtz', properties = ['dipole'])
--------------------------------------------------------------------------

    Molecular point group: c1
  Charge       = 0
  Multiplicity = 1
  Basis Set: AUG-CC-PVTZ
    Blend: AUG-CC-PVTZ
  Basis Set: (AUG-CC-PVTZ AUX)
    Blend: AUG-CC-PVTZ-JKFIT

    Orbital Energies [Eh]
    ---------------------

    Doubly Occupied:

       1A    -20.522126     2A    -15.636670     3A    -15.633207
       4A    -15.615017     5A    -15.580272     6A    -15.577358
       7A    -11.402560     8A    -11.367515     9A    -11.336184
      10A    -11.319861    11A    -11.258267    12A     -1.392177
      13A     -1.356860    14A     -1.333313    15A     -1.222739
      16A     -1.218061    17A     -1.166532    18A     -1.033971
      19A     -0.906653    20A     -0.887373    21A     -0.837010
      22A     -0.800552    23A     -0.738212    24A     -0.727963
      25A     -0.702501    26A     -0.674011    27A     -0.655676
      28A     -0.634170    29A     -0.612592    30A     -0.596813
      31A     -0.570903    32A     -0.547511    33A     -0.503386
      34A     -0.464489    35A     -0.447255    36A     -0.436145
      37A     -0.434154    38A     -0.402861    39A     -0.313171

  @DF-RHF Final Energy:  -539.57149921942641

   => Energetics <=

    Nuclear Repulsion Energy =            589.9218340136338838
    One-Electron Energy =               -1905.2544842335919384
    Two-Electron Energy =                 775.7611510005315267
    Total Energy =                       -539.5714992194264141
  Basis Set: (AUG-CC-PVTZ AUX)
    Blend: AUG-CC-PVTZ-RI
    Molecular point group: c1

    Geometry (in Angstrom), charge = 0, multiplicity = 1:

       Center              X                  Y                   Z               Mass
    ------------   -----------------  -----------------  -----------------  -----------------
         O            0.210577214214     2.664559202771    -0.005699630840    15.994914619570
         C            0.243112214214     1.440073202771     0.007082369160    12.000000000000
         N            1.500129214214     0.758156202771    -0.002341630840    14.003074004430
         C            1.703788214214    -0.599302797229     0.004676369160    12.000000000000
         N            0.738246214214    -1.485669797229     0.013992369160    14.003074004430
         C           -0.490563785786    -0.889220797229    -0.000831630840    12.000000000000
         C           -0.819383785786     0.465017202771     0.017951369160    12.000000000000
         N           -2.314926285786     0.699409002771     0.016381769160    14.003074004430
         C           -2.673951785786    -0.574839797229     0.003211369160    12.000000000000
         N           -1.696057785786    -1.540772797229    -0.004600630840    14.003074004430
         N            3.023913214214    -1.014808797229    -0.077030630840    14.003074004430
         H            2.298031214214     1.381517202771    -0.101798630840     1.007825032230
         H           -3.726688785786    -0.826300797229    -0.000696630840     1.007825032230
         H           -1.818655785786    -2.546650797229    -0.018323630840     1.007825032230
         H            3.097045214214    -2.016484797229     0.070736369160     1.007825032230
         H            3.676388214214    -0.497398797229     0.503171369160     1.007825032230

  Basis Set: AUG-CC-PVTZ
    Blend: AUG-CC-PVTZ
  Basis Set: (AUG-CC-PVTZ AUX)
    Blend: AUG-CC-PVTZ-JKFIT
	 Reference Energy          =    -539.5714992194264141 [Eh]
	 Singles Energy            =      -0.0000000000000000 [Eh]
	 Same-Spin Energy          =      -0.5722026484610774 [Eh]
	 Opposite-Spin Energy      =      -1.6652759695691786 [Eh]
	 Correlation Energy        =      -2.2374786180302557 [Eh]
	 Total Energy              =    -541.8089778374567231 [Eh]

	 ================> DF-SCS-MP2 Energies <==================
	-----------------------------------------------------------
	 SCS Same-Spin Scale       =       0.3333333333333333 [-]
	 SCS Opposite-Spin Scale   =       1.2000000000000000 [-]
	 SCS Same-Spin Energy      =      -0.1907342161536925 [Eh]
	 SCS Opposite-Spin Energy  =      -1.9983311634830141 [Eh]
	 SCS Correlation Energy    =      -2.1890653796367063 [Eh]
	 SCS Total Energy          =    -541.7605645990631729 [Eh]
	-----------------------------------------------------------

  Dipole Moment: [D]
     X:     2.9312      Y:    -5.7300      Z:     0.8417     Total:     6.4910

*** Psi4 exiting successfully. Buy a developer a beer!
