                               Psi4 1.3.2 release

  ==> Input File <==

--------------------------------------------------------------------------
#psi4
#
memory 32 gb

molecule  {
0 1
  O        0.1763910     2.6970700    -0.0085580
  C        0.2089260     1.4725840     0.0042240
  N        1.4659430     0.7906670    -0.0052000
  C        1.6696020    -0.5667920     0.0018180
  N        0.7040600    -1.4531590     0.0111340
  C       -0.5247500    -0.8567100    -0.0036900
  C       -0.8535700     0.4975280     0.0150930
  N       -2.2178770     0.6874110     0.0132550
  C       -2.7081380    -0.5423290     0.0003530
  N       -1.7302440    -1.5082620    -0.0074590
  N        2.9897270    -0.9822980    -0.0798890
  H        2.2638450     1.4140280    -0.1046570
  H       -3.7608750    -0.7937900    -0.0035550
  H       -1.8528420    -2.5141400    -0.0211820
  H        3.0500555    -1.9865193     0.0558987
  H        3.6422020    -0.4648880     0.5003130
units angstrom
no_reorient  #important for SAPT in psi4, default
symmetry c1  #important for SAPT in psi4, default
}

set PROPERTIES_ORIGIN ["COM"]
properties('MP2/aug-cc-pvtz', properties = ['dipole'])
--------------------------------------------------------------------------

    Molecular point group: c1
  Charge       = 0
  Multiplicity = 1
  Basis Set: AUG-CC-PVTZ
    Blend: AUG-CC-PVTZ
  Basis Set: (AUG-CC-PVTZ AUX)
    Blend: AUG-CC-PVTZ-JKFIT

    Orbital Energies [Eh]
    ---------------------

    Doubly Occupied:

       1A    -20.524395     2A    -15.636252     3A    -15.631897
       4A    -15.612329     5A    -15.573640     6A    -15.565321
       7A    -11.398442     8A    -11.367985     9A    -11.327622
      10A    -11.314317    11A    -11.251469    12A     -1.393552
      13A     -1.360978    14A     -1.335910    15A     -1.220778
      16A     -1.218309    17A     -1.178272    18A     -1.031291
      19A     -0.906902    20A     -0.884884    21A     -0.845006
      22A     -0.799521    23A     -0.740342    24A     -0.729665
      25A     -0.701565    26A     -0.673403    27A     -0.656315
      28A     -0.633746    29A     -0.614675    30A     -0.601442
      31A     -0.596659    32A     -0.547867    33A     -0.499859
      34A     -0.462396    35A     -0.443241    36A     -0.433139
      37A     -0.432610    38A     -0.412254    39A     -0.302922

  @DF-RHF Final Energy:  -539.58754103563058

   => Energetics <=

    Nuclear Repulsion Energy =            593.6786343733868989
    One-Electron Energy =               -1912.8100048401415734
    Two-Electron Energy =                 779.5438294311239815
    Total Energy =                       -539.5875410356305792
  Basis Set: (AUG-CC-PVTZ AUX)
    Blend: AUG-CC-PVTZ-RI
    Molecular point group: c1

    Geometry (in Angstrom), charge = 0, multiplicity = 1:

       Center              X                  Y                   Z               Mass
    ------------   -----------------  -----------------  -----------------  -----------------
         O            0.198496420696     2.668702385046    -0.005594821006    15.994914619570
         C            0.231031420696     1.444216385046     0.007187178994    12.000000000000
         N            1.488048420696     0.762299385046    -0.002236821006    14.003074004430
         C            1.691707420696    -0.595159614954     0.004781178994    12.000000000000
         N            0.726165420696    -1.481526614954     0.014097178994    14.003074004430
         C           -0.502644579304    -0.885077614954    -0.000726821006    12.000000000000
         C           -0.831464579304     0.469160385046     0.018056178994    12.000000000000
         N           -2.195771579304     0.659043385046     0.016218178994    14.003074004430
         C           -2.686032579304    -0.570696614954     0.003316178994    12.000000000000
         N           -1.708138579304    -1.536629614954    -0.004495821006    14.003074004430
         N            3.011832420696    -1.010665614954    -0.076925821006    14.003074004430
         H            2.285950420696     1.385660385046    -0.101693821006     1.007825032230
         H           -3.738769579304    -0.822157614954    -0.000591821006     1.007825032230
         H           -1.830736579304    -2.542507614954    -0.018218821006     1.007825032230
         H            3.072160920696    -2.014886914954     0.058861878994     1.007825032230
         H            3.664307420696    -0.493255614954     0.503276178994     1.007825032230

  Basis Set: AUG-CC-PVTZ
    Blend: AUG-CC-PVTZ
  Basis Set: (AUG-CC-PVTZ AUX)
    Blend: AUG-CC-PVTZ-JKFIT
	 Reference Energy          =    -539.5875410356305792 [Eh]
	 Singles Energy            =      -0.0000000000000000 [Eh]
	 Same-Spin Energy          =      -0.5730476032861737 [Eh]
	 Opposite-Spin Energy      =      -1.6632104595500157 [Eh]
	 Correlation Energy        =      -2.2362580628361894 [Eh]
	 Total Energy              =    -541.8237990984667931 [Eh]

	 ================> DF-SCS-MP2 Energies <==================
	-----------------------------------------------------------
	 SCS Same-Spin Scale       =       0.3333333333333333 [-]
	 SCS Opposite-Spin Scale   =       1.2000000000000000 [-]
	 SCS Same-Spin Energy      =      -0.1910158677620579 [Eh]
	 SCS Opposite-Spin Energy  =      -1.9958525514600187 [Eh]
	 SCS Correlation Energy    =      -2.1868684192220766 [Eh]
	 SCS Total Energy          =    -541.7744094548526164 [Eh]
	-----------------------------------------------------------

  Dipole Moment: [D]
     X:     2.6640      Y:    -5.6363      Z:     0.8310     Total:     6.2893

*** Psi4 exiting successfully. Buy a developer a beer!
