                               Psi4 1.3.2 release

  ==> Input File <==

--------------------------------------------------------------------------
#psi4
#
memory 32 gb

molecule  {
0 1
  O        0.1763910     2.6970700    -0.0085580
  C        0.2089260     1.4725840     0.0042240
  N        1.4659430     0.7906670    -0.0052000
  C        1.6696020    -0.5667920     0.0018180
  N        0.7040600    -1.4531590     0.0111340
  C       -0.5363049    -0.8357711    -0.0035284
  C       -0.8535700     0.4975280     0.0150930
  N       -2.2178770     0.6874110     0.0132550
  C       -2.7081380    -0.5423290     0.0003530
  N       -1.7302440    -1.5082620    -0.0074590
  N        2.9897270    -0.9822980    -0.0798890
  H        2.2638450     1.4140280    -0.1046570
  H       -3.7608750    -0.7937900    -0.0035550
  H       -1.8528420    -2.5141400    -0.0211820
  H        3.0628590    -1.9839740     0.0678780
  H        3.6422020    -0.4648880     0.5003130
units angstrom
no_reorient  #important for SAPT in psi4, default
symmetry c1  #important for SAPT in psi4, default
}

set PROPERTIES_ORIGIN ["COM"]
properties('MP2/aug-cc-pvtz', properties = ['dipole'])
--------------------------------------------------------------------------

    Molecular point group: c1
  Charge       = 0
  Multiplicity = 1
  Basis Set: AUG-CC-PVTZ
    Blend: AUG-CC-PVTZ
  Basis Set: (AUG-CC-PVTZ AUX)
    Blend: AUG-CC-PVTZ-JKFIT

    Orbital Energies [Eh]
    ---------------------

    Doubly Occupied:

       1A    -20.526480     2A    -15.635732     3A    -15.631311
       4A    -15.611293     5A    -15.573191     6A    -15.564776
       7A    -11.396775     8A    -11.369628     9A    -11.325219
      10A    -11.314943    11A    -11.250672    12A     -1.394203
      13A     -1.361981    14A     -1.335299    15A     -1.220363
      16A     -1.213741    17A     -1.177795    18A     -1.034893
      19A     -0.906968    20A     -0.882610    21A     -0.846454
      22A     -0.797354    23A     -0.739873    24A     -0.729063
      25A     -0.702467    26A     -0.675350    27A     -0.656003
      28A     -0.629764    29A     -0.616122    30A     -0.602186
      31A     -0.596915    32A     -0.547689    33A     -0.499225
      34A     -0.460511    35A     -0.443794    36A     -0.434880
      37A     -0.431531    38A     -0.412803    39A     -0.307055

  @DF-RHF Final Energy:  -539.58756067613535

   => Energetics <=

    Nuclear Repulsion Energy =            593.8469484258507691
    One-Electron Energy =               -1913.1551947394934814
    Two-Electron Energy =                 779.7206856375073585
    Total Energy =                       -539.5875606761353538
  Basis Set: (AUG-CC-PVTZ AUX)
    Blend: AUG-CC-PVTZ-RI
    Molecular point group: c1

    Geometry (in Angstrom), charge = 0, multiplicity = 1:

       Center              X                  Y                   Z               Mass
    ------------   -----------------  -----------------  -----------------  -----------------
         O            0.199328963587     2.667021928185    -0.005687586933    15.994914619570
         C            0.231863963587     1.442535928185     0.007094413067    12.000000000000
         N            1.488880963587     0.760618928185    -0.002329586933    14.003074004430
         C            1.692539963587    -0.596840071815     0.004688413067    12.000000000000
         N            0.726997963587    -1.483207071815     0.014004413067    14.003074004430
         C           -0.513366936413    -0.865819171815    -0.000657986933    12.000000000000
         C           -0.830632036413     0.467479928185     0.017963413067    12.000000000000
         N           -2.194939036413     0.657362928185     0.016125413067    14.003074004430
         C           -2.685200036413    -0.572377071815     0.003223413067    12.000000000000
         N           -1.707306036413    -1.538310071815    -0.004588586933    14.003074004430
         N            3.012664963587    -1.012346071815    -0.077018586933    14.003074004430
         H            2.286782963587     1.383979928185    -0.101786586933     1.007825032230
         H           -3.737937036413    -0.823838071815    -0.000684586933     1.007825032230
         H           -1.829904036413    -2.544188071815    -0.018311586933     1.007825032230
         H            3.085796963587    -2.014022071815     0.070748413067     1.007825032230
         H            3.665139963587    -0.494936071815     0.503183413067     1.007825032230

  Basis Set: AUG-CC-PVTZ
    Blend: AUG-CC-PVTZ
  Basis Set: (AUG-CC-PVTZ AUX)
    Blend: AUG-CC-PVTZ-JKFIT
	 Reference Energy          =    -539.5875606761353538 [Eh]
	 Singles Energy            =      -0.0000000000000000 [Eh]
	 Same-Spin Energy          =      -0.5725393237923615 [Eh]
	 Opposite-Spin Energy      =      -1.6630021307727785 [Eh]
	 Correlation Energy        =      -2.2355414545651398 [Eh]
	 Total Energy              =    -541.8231021307004767 [Eh]

	 ================> DF-SCS-MP2 Energies <==================
	-----------------------------------------------------------
	 SCS Same-Spin Scale       =       0.3333333333333333 [-]
	 SCS Opposite-Spin Scale   =       1.2000000000000000 [-]
	 SCS Same-Spin Energy      =      -0.1908464412641205 [Eh]
	 SCS Opposite-Spin Energy  =      -1.9956025569273341 [Eh]
	 SCS Correlation Energy    =      -2.1864489981914548 [Eh]
	 SCS Total Energy          =    -541.7740096743268623 [Eh]
	-----------------------------------------------------------

  Dipole Moment: [D]
     X:     2.6334      Y:    -5.5733      Z:     0.8440     Total:     6.2216

*** Psi4 exiting successfully. Buy a developer a beer!
