                               Psi4 1.3.2 release

  ==> Input File <==

--------------------------------------------------------------------------
#psi4
#
memory 32 gb

molecule  {
0 1
  O        0.1763910     2.6970700    -0.0085580
  C        0.2089260     1.4725840     0.0042240
  N        1.5609175     0.8015012    -0.0116962
  C        1.6696020    -0.5667920     0.0018180
  N        0.7040600    -1.4531590     0.0111340
  C       -0.5247500    -0.8567100    -0.0036900
  C       -0.8535700     0.4975280     0.0150930
  N       -2.2178770     0.6874110     0.0132550
  C       -2.7081380    -0.5423290     0.0003530
  N       -1.7302440    -1.5082620    -0.0074590
  N        2.9897270    -0.9822980    -0.0798890
  H        2.2638450     1.4140280    -0.1046570
  H       -3.7608750    -0.7937900    -0.0035550
  H       -1.8528420    -2.5141400    -0.0211820
  H        3.0628590    -1.9839740     0.0678780
  H        3.6422020    -0.4648880     0.5003130
units angstrom
no_reorient  #important for SAPT in psi4, default
symmetry c1  #important for SAPT in psi4, default
}

set PROPERTIES_ORIGIN ["COM"]
properties('MP2/aug-cc-pvtz', properties = ['dipole'])
--------------------------------------------------------------------------

    Molecular point group: c1
  Charge       = 0
  Multiplicity = 1
  Basis Set: AUG-CC-PVTZ
    Blend: AUG-CC-PVTZ
  Basis Set: (AUG-CC-PVTZ AUX)
    Blend: AUG-CC-PVTZ-JKFIT

    Orbital Energies [Eh]
    ---------------------

    Doubly Occupied:

       1A    -20.531528     2A    -15.638126     3A    -15.622464
       4A    -15.606146     5A    -15.574294     6A    -15.567897
       7A    -11.398192     8A    -11.375410     9A    -11.331157
      10A    -11.316063    11A    -11.254495    12A     -1.390876
      13A     -1.363251    14A     -1.335929    15A     -1.221801
      16A     -1.211002    17A     -1.181379    18A     -1.030704
      19A     -0.909109    20A     -0.879746    21A     -0.847268
      22A     -0.801424    23A     -0.752106    24A     -0.727350
      25A     -0.699413    26A     -0.669864    27A     -0.652699
      28A     -0.634106    29A     -0.614125    30A     -0.605913
      31A     -0.595123    32A     -0.545801    33A     -0.502865
      34A     -0.460212    35A     -0.444145    36A     -0.435190
      37A     -0.434841    38A     -0.414637    39A     -0.303927

  @DF-RHF Final Energy:  -539.57562363959687

   => Energetics <=

    Nuclear Repulsion Energy =            591.9386813785741879
    One-Electron Energy =               -1909.2674577273267005
    Two-Electron Energy =                 777.7531527091555290
    Total Energy =                       -539.5756236395968699
  Basis Set: (AUG-CC-PVTZ AUX)
    Blend: AUG-CC-PVTZ-RI
    Molecular point group: c1

    Geometry (in Angstrom), charge = 0, multiplicity = 1:

       Center              X                  Y                   Z               Mass
    ------------   -----------------  -----------------  -----------------  -----------------
         O            0.189606358553     2.667681015140    -0.005072516874    15.994914619570
         C            0.222141358553     1.443195015140     0.007709483126    12.000000000000
         N            1.574132858553     0.772112215140    -0.008210716874    14.003074004430
         C            1.682817358553    -0.596180984860     0.005303483126    12.000000000000
         N            0.717275358553    -1.482547984860     0.014619483126    14.003074004430
         C           -0.511534641447    -0.886098984860    -0.000204516874    12.000000000000
         C           -0.840354641447     0.468139015140     0.018578483126    12.000000000000
         N           -2.204661641447     0.658022015140     0.016740483126    14.003074004430
         C           -2.694922641447    -0.571717984860     0.003838483126    12.000000000000
         N           -1.717028641447    -1.537650984860    -0.003973516874    14.003074004430
         N            3.002942358553    -1.011686984860    -0.076403516874    14.003074004430
         H            2.277060358553     1.384639015140    -0.101171516874     1.007825032230
         H           -3.747659641447    -0.823178984860    -0.000069516874     1.007825032230
         H           -1.839626641447    -2.543528984860    -0.017696516874     1.007825032230
         H            3.076074358553    -2.013362984860     0.071363483126     1.007825032230
         H            3.655417358553    -0.494276984860     0.503798483126     1.007825032230

  Basis Set: AUG-CC-PVTZ
    Blend: AUG-CC-PVTZ
  Basis Set: (AUG-CC-PVTZ AUX)
    Blend: AUG-CC-PVTZ-JKFIT
	 Reference Energy          =    -539.5756236395968699 [Eh]
	 Singles Energy            =      -0.0000000000000000 [Eh]
	 Same-Spin Energy          =      -0.5724112677823056 [Eh]
	 Opposite-Spin Energy      =      -1.6633885358592417 [Eh]
	 Correlation Energy        =      -2.2357998036415472 [Eh]
	 Total Energy              =    -541.8114234432383682 [Eh]

	 ================> DF-SCS-MP2 Energies <==================
	-----------------------------------------------------------
	 SCS Same-Spin Scale       =       0.3333333333333333 [-]
	 SCS Opposite-Spin Scale   =       1.2000000000000000 [-]
	 SCS Same-Spin Energy      =      -0.1908037559274352 [Eh]
	 SCS Opposite-Spin Energy  =      -1.9960662430310900 [Eh]
	 SCS Correlation Energy    =      -2.1868699989585254 [Eh]
	 SCS Total Energy          =    -541.7624936385553838 [Eh]
	-----------------------------------------------------------

  Dipole Moment: [D]
     X:     2.3476      Y:    -5.4566      Z:     0.8382     Total:     5.9991

*** Psi4 exiting successfully. Buy a developer a beer!
