                               Psi4 1.3.2 release

  ==> Input File <==

--------------------------------------------------------------------------
#psi4
#
memory 32 gb

molecule  {
0 1
  O        0.1763910     2.6970700    -0.0085580
  C        0.1383433     1.5443227     0.0062171
  N        1.4659430     0.7906670    -0.0052000
  C        1.6696020    -0.5667920     0.0018180
  N        0.7040600    -1.4531590     0.0111340
  C       -0.5247500    -0.8567100    -0.0036900
  C       -0.8535700     0.4975280     0.0150930
  N       -2.2178770     0.6874110     0.0132550
  C       -2.7081380    -0.5423290     0.0003530
  N       -1.7302440    -1.5082620    -0.0074590
  N        2.9897270    -0.9822980    -0.0798890
  H        2.2638450     1.4140280    -0.1046570
  H       -3.7608750    -0.7937900    -0.0035550
  H       -1.8528420    -2.5141400    -0.0211820
  H        3.0628590    -1.9839740     0.0678780
  H        3.6422020    -0.4648880     0.5003130
units angstrom
no_reorient  #important for SAPT in psi4, default
symmetry c1  #important for SAPT in psi4, default
}

set PROPERTIES_ORIGIN ["COM"]
properties('MP2/aug-cc-pvtz', properties = ['dipole'])
--------------------------------------------------------------------------

    Molecular point group: c1
  Charge       = 0
  Multiplicity = 1
  Basis Set: AUG-CC-PVTZ
    Blend: AUG-CC-PVTZ
  Basis Set: (AUG-CC-PVTZ AUX)
    Blend: AUG-CC-PVTZ-JKFIT

    Orbital Energies [Eh]
    ---------------------

    Doubly Occupied:

       1A    -20.545555     2A    -15.634984     3A    -15.612416
       4A    -15.604620     5A    -15.564042     6A    -15.563475
       7A    -11.389306     8A    -11.371720     9A    -11.328020
      10A    -11.311636    11A    -11.249993    12A     -1.437639
      13A     -1.366287    14A     -1.329265    15A     -1.212350
      16A     -1.202058    17A     -1.173437    18A     -1.027525
      19A     -0.900751    20A     -0.868996    21A     -0.844202
      22A     -0.787922    23A     -0.727874    24A     -0.723467
      25A     -0.702028    26A     -0.673165    27A     -0.651502
      28A     -0.644609    29A     -0.629126    30A     -0.599248
      31A     -0.591927    32A     -0.568258    33A     -0.494759
      34A     -0.457884    35A     -0.448668    36A     -0.436201
      37A     -0.433249    38A     -0.408969    39A     -0.301229

  @DF-RHF Final Energy:  -539.58032492981431

   => Energetics <=

    Nuclear Repulsion Energy =            593.1993856512261800
    One-Electron Energy =               -1911.9226983291548549
    Two-Electron Energy =                 779.1429877481144786
    Total Energy =                       -539.5803249298143101
  Basis Set: (AUG-CC-PVTZ AUX)
    Blend: AUG-CC-PVTZ-RI
    Molecular point group: c1

    Geometry (in Angstrom), charge = 0, multiplicity = 1:

       Center              X                  Y                   Z               Mass
    ------------   -----------------  -----------------  -----------------  -----------------
         O            0.204018380122     2.662986178553    -0.005833088991    15.994914619570
         C            0.165970680122     1.510238878553     0.008942011009    12.000000000000
         N            1.493570380122     0.756583178553    -0.002475088991    14.003074004430
         C            1.697229380122    -0.600875821447     0.004542911009    12.000000000000
         N            0.731687380122    -1.487242821447     0.013858911009    14.003074004430
         C           -0.497122619878    -0.890793821447    -0.000965088991    12.000000000000
         C           -0.825942619878     0.463444178553     0.017817911009    12.000000000000
         N           -2.190249619878     0.653327178553     0.015979911009    14.003074004430
         C           -2.680510619878    -0.576412821447     0.003077911009    12.000000000000
         N           -1.702616619878    -1.542345821447    -0.004734088991    14.003074004430
         N            3.017354380122    -1.016381821447    -0.077164088991    14.003074004430
         H            2.291472380122     1.379944178553    -0.101932088991     1.007825032230
         H           -3.733247619878    -0.827873821447    -0.000830088991     1.007825032230
         H           -1.825214619878    -2.548223821447    -0.018457088991     1.007825032230
         H            3.090486380122    -2.018057821447     0.070602911009     1.007825032230
         H            3.669829380122    -0.498971821447     0.503037911009     1.007825032230

  Basis Set: AUG-CC-PVTZ
    Blend: AUG-CC-PVTZ
  Basis Set: (AUG-CC-PVTZ AUX)
    Blend: AUG-CC-PVTZ-JKFIT
	 Reference Energy          =    -539.5803249298143101 [Eh]
	 Singles Energy            =      -0.0000000000000000 [Eh]
	 Same-Spin Energy          =      -0.5719239291597253 [Eh]
	 Opposite-Spin Energy      =      -1.6612098205762260 [Eh]
	 Correlation Energy        =      -2.2331337497359511 [Eh]
	 Total Energy              =    -541.8134586795503083 [Eh]

	 ================> DF-SCS-MP2 Energies <==================
	-----------------------------------------------------------
	 SCS Same-Spin Scale       =       0.3333333333333333 [-]
	 SCS Opposite-Spin Scale   =       1.2000000000000000 [-]
	 SCS Same-Spin Energy      =      -0.1906413097199084 [Eh]
	 SCS Opposite-Spin Energy  =      -1.9934517846914712 [Eh]
	 SCS Correlation Energy    =      -2.1840930944113799 [Eh]
	 SCS Total Energy          =    -541.7644180242257335 [Eh]
	-----------------------------------------------------------

  Dipole Moment: [D]
     X:     2.2665      Y:    -4.7887      Z:     0.8407     Total:     5.3643

*** Psi4 exiting successfully. Buy a developer a beer!
