                               Psi4 1.3.2 release

  ==> Input File <==

--------------------------------------------------------------------------
#psi4
#
memory 32 gb

molecule  {
0 1
  O        0.1763910     2.6970700    -0.0085580
  C        0.2089260     1.4725840     0.0042240
  N        1.4659430     0.7906670    -0.0052000
  C        1.5749722    -0.5775540     0.0122638
  N        0.7040600    -1.4531590     0.0111340
  C       -0.5247500    -0.8567100    -0.0036900
  C       -0.8535700     0.4975280     0.0150930
  N       -2.2178770     0.6874110     0.0132550
  C       -2.7081380    -0.5423290     0.0003530
  N       -1.7302440    -1.5082620    -0.0074590
  N        2.9897270    -0.9822980    -0.0798890
  H        2.2638450     1.4140280    -0.1046570
  H       -3.7608750    -0.7937900    -0.0035550
  H       -1.8528420    -2.5141400    -0.0211820
  H        3.0628590    -1.9839740     0.0678780
  H        3.6422020    -0.4648880     0.5003130
units angstrom
no_reorient  #important for SAPT in psi4, default
symmetry c1  #important for SAPT in psi4, default
}

set PROPERTIES_ORIGIN ["COM"]
properties('MP2/aug-cc-pvtz', properties = ['dipole'])
--------------------------------------------------------------------------

    Molecular point group: c1
  Charge       = 0
  Multiplicity = 1
  Basis Set: AUG-CC-PVTZ
    Blend: AUG-CC-PVTZ
  Basis Set: (AUG-CC-PVTZ AUX)
    Blend: AUG-CC-PVTZ-JKFIT

    Orbital Energies [Eh]
    ---------------------

    Doubly Occupied:

       1A    -20.526654     2A    -15.642519     3A    -15.630836
       4A    -15.596390     5A    -15.580179     6A    -15.570631
       7A    -11.391402     8A    -11.368706     9A    -11.333573
      10A    -11.319378    11A    -11.258963    12A     -1.399646
      13A     -1.367857    14A     -1.339948    15A     -1.235759
      16A     -1.192562    17A     -1.186431    18A     -1.037875
      19A     -0.911666    20A     -0.880927    21A     -0.851382
      22A     -0.806239    23A     -0.744593    24A     -0.713900
      25A     -0.694990    26A     -0.671863    27A     -0.661419
      28A     -0.625915    29A     -0.617471    30A     -0.605805
      31A     -0.597973    32A     -0.549205    33A     -0.511387
      34A     -0.458276    35A     -0.446827    36A     -0.437026
      37A     -0.433590    38A     -0.418134    39A     -0.314191

  @DF-RHF Final Energy:  -539.57579466645927

   => Energetics <=

    Nuclear Repulsion Energy =            594.8087721304958677
    One-Electron Energy =               -1914.9049551450802937
    Two-Electron Energy =                 780.5203883481250386
    Total Energy =                       -539.5757946664592737
  Basis Set: (AUG-CC-PVTZ AUX)
    Blend: AUG-CC-PVTZ-RI
    Molecular point group: c1

    Geometry (in Angstrom), charge = 0, multiplicity = 1:

       Center              X                  Y                   Z               Mass
    ------------   -----------------  -----------------  -----------------  -----------------
         O            0.205928782820     2.669540380925    -0.006504607007    15.994914619570
         C            0.238463782820     1.445054380925     0.006277392993    12.000000000000
         N            1.495480782820     0.763137380925    -0.003146607007    14.003074004430
         C            1.604509982820    -0.605083619075     0.014317192993    12.000000000000
         N            0.733597782820    -1.480688619075     0.013187392993    14.003074004430
         C           -0.495212217180    -0.884239619075    -0.001636607007    12.000000000000
         C           -0.824032217180     0.469998380925     0.017146392993    12.000000000000
         N           -2.188339217180     0.659881380925     0.015308392993    14.003074004430
         C           -2.678600217180    -0.569858619075     0.002406392993    12.000000000000
         N           -1.700706217180    -1.535791619075    -0.005405607007    14.003074004430
         N            3.019264782820    -1.009827619075    -0.077835607007    14.003074004430
         H            2.293382782820     1.386498380925    -0.102603607007     1.007825032230
         H           -3.731337217180    -0.821319619075    -0.001501607007     1.007825032230
         H           -1.823304217180    -2.541669619075    -0.019128607007     1.007825032230
         H            3.092396782820    -2.011503619075     0.069931392993     1.007825032230
         H            3.671739782820    -0.492417619075     0.502366392993     1.007825032230

  Basis Set: AUG-CC-PVTZ
    Blend: AUG-CC-PVTZ
  Basis Set: (AUG-CC-PVTZ AUX)
    Blend: AUG-CC-PVTZ-JKFIT
	 Reference Energy          =    -539.5757946664592737 [Eh]
	 Singles Energy            =      -0.0000000000000000 [Eh]
	 Same-Spin Energy          =      -0.5723144868757434 [Eh]
	 Opposite-Spin Energy      =      -1.6630104953470044 [Eh]
	 Correlation Energy        =      -2.2353249822227479 [Eh]
	 Total Energy              =    -541.8111196486820518 [Eh]

	 ================> DF-SCS-MP2 Energies <==================
	-----------------------------------------------------------
	 SCS Same-Spin Scale       =       0.3333333333333333 [-]
	 SCS Opposite-Spin Scale   =       1.2000000000000000 [-]
	 SCS Same-Spin Energy      =      -0.1907714956252478 [Eh]
	 SCS Opposite-Spin Energy  =      -1.9956125944164051 [Eh]
	 SCS Correlation Energy    =      -2.1863840900416531 [Eh]
	 SCS Total Energy          =    -541.7621787565009299 [Eh]
	-----------------------------------------------------------

  Dipole Moment: [D]
     X:     1.8248      Y:    -5.5875      Z:     0.8710     Total:     5.9421

*** Psi4 exiting successfully. Buy a developer a beer!
