                               Psi4 1.3.2 release

  ==> Input File <==

--------------------------------------------------------------------------
#psi4
#
memory 32 gb

molecule  {
0 1
  O        0.1763910     2.6970700    -0.0085580
  C        0.2089260     1.4725840     0.0042240
  N        1.4659430     0.7906670    -0.0052000
  C        1.6460196    -0.5701051     0.0044346
  N        0.7040600    -1.4531590     0.0111340
  C       -0.5247500    -0.8567100    -0.0036900
  C       -0.8535700     0.4975280     0.0150930
  N       -2.2178770     0.6874110     0.0132550
  C       -2.7081380    -0.5423290     0.0003530
  N       -1.7302440    -1.5082620    -0.0074590
  N        2.9897270    -0.9822980    -0.0798890
  H        2.2638450     1.4140280    -0.1046570
  H       -3.7608750    -0.7937900    -0.0035550
  H       -1.8528420    -2.5141400    -0.0211820
  H        3.0628590    -1.9839740     0.0678780
  H        3.6422020    -0.4648880     0.5003130
units angstrom
no_reorient  #important for SAPT in psi4, default
symmetry c1  #important for SAPT in psi4, default
}

set PROPERTIES_ORIGIN ["COM"]
properties('MP2/aug-cc-pvtz', properties = ['dipole'])
--------------------------------------------------------------------------

    Molecular point group: c1
  Charge       = 0
  Multiplicity = 1
  Basis Set: AUG-CC-PVTZ
    Blend: AUG-CC-PVTZ
  Basis Set: (AUG-CC-PVTZ AUX)
    Blend: AUG-CC-PVTZ-JKFIT

    Orbital Energies [Eh]
    ---------------------

    Doubly Occupied:

       1A    -20.524973     2A    -15.637859     3A    -15.631594
       4A    -15.608400     5A    -15.575379     6A    -15.566678
       7A    -11.396700     8A    -11.368203     9A    -11.329054
      10A    -11.315631    11A    -11.253416    12A     -1.394656
      13A     -1.362621    14A     -1.335678    15A     -1.223060
      16A     -1.213847    17A     -1.180576    18A     -1.033083
      19A     -0.907943    20A     -0.884250    21A     -0.846602
      22A     -0.800330    23A     -0.741495    24A     -0.725348
      25A     -0.698593    26A     -0.672885    27A     -0.657532
      28A     -0.633378    29A     -0.615500    30A     -0.602534
      31A     -0.596860    32A     -0.547669    33A     -0.502997
      34A     -0.461700    35A     -0.444153    36A     -0.434507
      37A     -0.433151    38A     -0.413751    39A     -0.305836

  @DF-RHF Final Energy:  -539.58728029455892

   => Energetics <=

    Nuclear Repulsion Energy =            593.9232920469444252
    One-Electron Energy =               -1913.2642979529771310
    Two-Electron Energy =                 779.7537256114737829
    Total Energy =                       -539.5872802945589228
  Basis Set: (AUG-CC-PVTZ AUX)
    Blend: AUG-CC-PVTZ-RI
    Molecular point group: c1

    Geometry (in Angstrom), charge = 0, multiplicity = 1:

       Center              X                  Y                   Z               Mass
    ------------   -----------------  -----------------  -----------------  -----------------
         O            0.200284478740     2.668948609000    -0.005882622451    15.994914619570
         C            0.232819478740     1.444462609000     0.006899377549    12.000000000000
         N            1.489836478740     0.762545609000    -0.002524622451    14.003074004430
         C            1.669913078740    -0.598226491000     0.007109977549    12.000000000000
         N            0.727953478740    -1.481280391000     0.013809377549    14.003074004430
         C           -0.500856521260    -0.884831391000    -0.001014622451    12.000000000000
         C           -0.829676521260     0.469406609000     0.017768377549    12.000000000000
         N           -2.193983521260     0.659289609000     0.015930377549    14.003074004430
         C           -2.684244521260    -0.570450391000     0.003028377549    12.000000000000
         N           -1.706350521260    -1.536383391000    -0.004783622451    14.003074004430
         N            3.013620478740    -1.010419391000    -0.077213622451    14.003074004430
         H            2.287738478740     1.385906609000    -0.101981622451     1.007825032230
         H           -3.736981521260    -0.821911391000    -0.000879622451     1.007825032230
         H           -1.828948521260    -2.542261391000    -0.018506622451     1.007825032230
         H            3.086752478740    -2.012095391000     0.070553377549     1.007825032230
         H            3.666095478740    -0.493009391000     0.502988377549     1.007825032230

  Basis Set: AUG-CC-PVTZ
    Blend: AUG-CC-PVTZ
  Basis Set: (AUG-CC-PVTZ AUX)
    Blend: AUG-CC-PVTZ-JKFIT
	 Reference Energy          =    -539.5872802945589228 [Eh]
	 Singles Energy            =      -0.0000000000000000 [Eh]
	 Same-Spin Energy          =      -0.5728019698928586 [Eh]
	 Opposite-Spin Energy      =      -1.6630399504542397 [Eh]
	 Correlation Energy        =      -2.2358419203470983 [Eh]
	 Total Energy              =    -541.8231222149059931 [Eh]

	 ================> DF-SCS-MP2 Energies <==================
	-----------------------------------------------------------
	 SCS Same-Spin Scale       =       0.3333333333333333 [-]
	 SCS Opposite-Spin Scale   =       1.2000000000000000 [-]
	 SCS Same-Spin Energy      =      -0.1909339899642862 [Eh]
	 SCS Opposite-Spin Energy  =      -1.9956479405450875 [Eh]
	 SCS Correlation Energy    =      -2.1865819305093739 [Eh]
	 SCS Total Energy          =    -541.7738622250683420 [Eh]
	-----------------------------------------------------------

  Dipole Moment: [D]
     X:     2.4547      Y:    -5.6232      Z:     0.8512     Total:     6.1944

*** Psi4 exiting successfully. Buy a developer a beer!
