                               Psi4 1.3.2 release

  ==> Input File <==

--------------------------------------------------------------------------
#psi4
#
memory 32 gb

molecule  {
0 1
  O        0.1763910     2.6970700    -0.0085580
  C        0.2089260     1.4725840     0.0042240
  N        1.4659430     0.7906670    -0.0052000
  C        1.6696020    -0.5667920     0.0018180
  N        0.7040600    -1.4531590     0.0111340
  C       -0.5247500    -0.8567100    -0.0036900
  C       -0.8535700     0.4975280     0.0150930
  N       -2.0920129     0.6294289     0.0128453
  C       -2.7081380    -0.5423290     0.0003530
  N       -1.7302440    -1.5082620    -0.0074590
  N        2.9897270    -0.9822980    -0.0798890
  H        2.2638450     1.4140280    -0.1046570
  H       -3.7608750    -0.7937900    -0.0035550
  H       -1.8528420    -2.5141400    -0.0211820
  H        3.0628590    -1.9839740     0.0678780
  H        3.6422020    -0.4648880     0.5003130
units angstrom
no_reorient  #important for SAPT in psi4, default
symmetry c1  #important for SAPT in psi4, default
}

set PROPERTIES_ORIGIN ["COM"]
properties('MP2/aug-cc-pvtz', properties = ['dipole'])
--------------------------------------------------------------------------

    Molecular point group: c1
  Charge       = 0
  Multiplicity = 1
  Basis Set: AUG-CC-PVTZ
    Blend: AUG-CC-PVTZ
  Basis Set: (AUG-CC-PVTZ AUX)
    Blend: AUG-CC-PVTZ-JKFIT

    Orbital Energies [Eh]
    ---------------------

    Doubly Occupied:

       1A    -20.527985     2A    -15.635940     3A    -15.630941
       4A    -15.609683     5A    -15.569491     6A    -15.548379
       7A    -11.394364     8A    -11.368680     9A    -11.317856
      10A    -11.307551    11A    -11.242805    12A     -1.398008
      13A     -1.370837    14A     -1.337877    15A     -1.222973
      16A     -1.218759    17A     -1.190442    18A     -1.028000
      19A     -0.908765    20A     -0.886697    21A     -0.853922
      22A     -0.797448    23A     -0.743284    24A     -0.731244
      25A     -0.698781    26A     -0.672846    27A     -0.659047
      28A     -0.635473    29A     -0.625564    30A     -0.616820
      31A     -0.599586    32A     -0.548880    33A     -0.496941
      34A     -0.461911    35A     -0.446407    36A     -0.434110
      37A     -0.422064    38A     -0.415074    39A     -0.290762

  @DF-RHF Final Energy:  -539.56939992208879

   => Energetics <=

    Nuclear Repulsion Energy =            597.7852979456145022
    One-Electron Energy =               -1920.9770029661372064
    Two-Electron Energy =                 783.6223050984339125
    Total Energy =                       -539.5693999220887918
  Basis Set: (AUG-CC-PVTZ AUX)
    Blend: AUG-CC-PVTZ-RI
    Molecular point group: c1

    Geometry (in Angstrom), charge = 0, multiplicity = 1:

       Center              X                  Y                   Z               Mass
    ------------   -----------------  -----------------  -----------------  -----------------
         O            0.186742730318     2.674060647758    -0.005636767407    15.994914619570
         C            0.219277730318     1.449574647758     0.007145232593    12.000000000000
         N            1.476294730318     0.767657647758    -0.002278767407    14.003074004430
         C            1.679953730318    -0.589801352242     0.004739232593    12.000000000000
         N            0.714411730318    -1.476168352242     0.014055232593    14.003074004430
         C           -0.514398269682    -0.879719352242    -0.000768767407    12.000000000000
         C           -0.843218269682     0.474518647758     0.018014232593    12.000000000000
         N           -2.081661169682     0.606419547758     0.015766532593    14.003074004430
         C           -2.697786269682    -0.565338352242     0.003274232593    12.000000000000
         N           -1.719892269682    -1.531271352242    -0.004537767407    14.003074004430
         N            3.000078730318    -1.005307352242    -0.076967767407    14.003074004430
         H            2.274196730318     1.391018647758    -0.101735767407     1.007825032230
         H           -3.750523269682    -0.816799352242    -0.000633767407     1.007825032230
         H           -1.842490269682    -2.537149352242    -0.018260767407     1.007825032230
         H            3.073210730318    -2.006983352242     0.070799232593     1.007825032230
         H            3.652553730318    -0.487897352242     0.503234232593     1.007825032230

  Basis Set: AUG-CC-PVTZ
    Blend: AUG-CC-PVTZ
  Basis Set: (AUG-CC-PVTZ AUX)
    Blend: AUG-CC-PVTZ-JKFIT
	 Reference Energy          =    -539.5693999220887918 [Eh]
	 Singles Energy            =      -0.0000000000000000 [Eh]
	 Same-Spin Energy          =      -0.5749162820238658 [Eh]
	 Opposite-Spin Energy      =      -1.6633180231147286 [Eh]
	 Correlation Energy        =      -2.2382343051385947 [Eh]
	 Total Energy              =    -541.8076342272273678 [Eh]

	 ================> DF-SCS-MP2 Energies <==================
	-----------------------------------------------------------
	 SCS Same-Spin Scale       =       0.3333333333333333 [-]
	 SCS Opposite-Spin Scale   =       1.2000000000000000 [-]
	 SCS Same-Spin Energy      =      -0.1916387606746219 [Eh]
	 SCS Opposite-Spin Energy  =      -1.9959816277376743 [Eh]
	 SCS Correlation Energy    =      -2.1876203884122960 [Eh]
	 SCS Total Energy          =    -541.7570203105010478 [Eh]
	-----------------------------------------------------------

  Dipole Moment: [D]
     X:     2.3584      Y:    -5.4574      Z:     0.8472     Total:     6.0052

*** Psi4 exiting successfully. Buy a developer a beer!
