                               Psi4 1.3.2 release

  ==> Input File <==

--------------------------------------------------------------------------
#psi4
#
memory 32 gb

molecule  {
0 1
  O        0.1763910     2.6970700    -0.0085580
  C        0.2089260     1.4725840     0.0042240
  N        1.4659430     0.7906670    -0.0052000
  C        1.6696020    -0.5667920     0.0018180
  N        0.7040600    -1.4531590     0.0111340
  C       -0.5247500    -0.8567100    -0.0036900
  C       -0.8535700     0.4975280     0.0150930
  N       -2.2178770     0.6874110     0.0132550
  C       -2.7412532    -0.5770408    -0.0002620
  N       -1.7302440    -1.5082620    -0.0074590
  N        2.9897270    -0.9822980    -0.0798890
  H        2.2638450     1.4140280    -0.1046570
  H       -3.7608750    -0.7937900    -0.0035550
  H       -1.8528420    -2.5141400    -0.0211820
  H        3.0628590    -1.9839740     0.0678780
  H        3.6422020    -0.4648880     0.5003130
units angstrom
no_reorient  #important for SAPT in psi4, default
symmetry c1  #important for SAPT in psi4, default
}

set PROPERTIES_ORIGIN ["COM"]
properties('MP2/aug-cc-pvtz', properties = ['dipole'])
--------------------------------------------------------------------------

    Molecular point group: c1
  Charge       = 0
  Multiplicity = 1
  Basis Set: AUG-CC-PVTZ
    Blend: AUG-CC-PVTZ
  Basis Set: (AUG-CC-PVTZ AUX)
    Blend: AUG-CC-PVTZ-JKFIT

    Orbital Energies [Eh]
    ---------------------

    Doubly Occupied:

       1A    -20.525718     2A    -15.639482     3A    -15.632403
       4A    -15.612293     5A    -15.573780     6A    -15.568259
       7A    -11.398419     8A    -11.369166     9A    -11.327094
      10A    -11.315514    11A    -11.252516    12A     -1.393597
      13A     -1.358225    14A     -1.333962    15A     -1.221013
      16A     -1.215681    17A     -1.170868    18A     -1.030530
      19A     -0.910142    20A     -0.884445    21A     -0.846212
      22A     -0.800442    23A     -0.739348    24A     -0.731887
      25A     -0.702205    26A     -0.672618    27A     -0.656617
      28A     -0.637452    29A     -0.615040    30A     -0.602677
      31A     -0.595530    32A     -0.548331    33A     -0.497933
      34A     -0.461126    35A     -0.443125    36A     -0.431898
      37A     -0.431360    38A     -0.409817    39A     -0.299833

  @DF-RHF Final Energy:  -539.58045306441886

   => Energetics <=

    Nuclear Repulsion Energy =            592.6474102829656658
    One-Electron Energy =               -1910.7426115993907842
    Two-Electron Energy =                 778.5147482520062567
    Total Energy =                       -539.5804530644188617
  Basis Set: (AUG-CC-PVTZ AUX)
    Blend: AUG-CC-PVTZ-RI
    Molecular point group: c1

    Geometry (in Angstrom), charge = 0, multiplicity = 1:

       Center              X                  Y                   Z               Mass
    ------------   -----------------  -----------------  -----------------  -----------------
         O            0.201041804440     2.671443053702    -0.005625890564    15.994914619570
         C            0.233576804440     1.446957053702     0.007156109436    12.000000000000
         N            1.490593804440     0.765040053702    -0.002267890564    14.003074004430
         C            1.694252804440    -0.592418946298     0.004750109436    12.000000000000
         N            0.728710804440    -1.478785946298     0.014066109436    14.003074004430
         C           -0.500099195560    -0.882336946298    -0.000757890564    12.000000000000
         C           -0.828919195560     0.471901053702     0.018025109436    12.000000000000
         N           -2.193226195560     0.661784053702     0.016187109436    14.003074004430
         C           -2.716602395560    -0.602667746298     0.002670109436    12.000000000000
         N           -1.705593195560    -1.533888946298    -0.004526890564    14.003074004430
         N            3.014377804440    -1.007924946298    -0.076956890564    14.003074004430
         H            2.288495804440     1.388401053702    -0.101724890564     1.007825032230
         H           -3.736224195560    -0.819416946298    -0.000622890564     1.007825032230
         H           -1.828191195560    -2.539766946298    -0.018249890564     1.007825032230
         H            3.087509804440    -2.009600946298     0.070810109436     1.007825032230
         H            3.666852804440    -0.490514946298     0.503245109436     1.007825032230

  Basis Set: AUG-CC-PVTZ
    Blend: AUG-CC-PVTZ
  Basis Set: (AUG-CC-PVTZ AUX)
    Blend: AUG-CC-PVTZ-JKFIT
	 Reference Energy          =    -539.5804530644188617 [Eh]
	 Singles Energy            =      -0.0000000000000000 [Eh]
	 Same-Spin Energy          =      -0.5741796797704624 [Eh]
	 Opposite-Spin Energy      =      -1.6655919558489969 [Eh]
	 Correlation Energy        =      -2.2397716356194595 [Eh]
	 Total Energy              =    -541.8202247000383522 [Eh]

	 ================> DF-SCS-MP2 Energies <==================
	-----------------------------------------------------------
	 SCS Same-Spin Scale       =       0.3333333333333333 [-]
	 SCS Opposite-Spin Scale   =       1.2000000000000000 [-]
	 SCS Same-Spin Energy      =      -0.1913932265901541 [Eh]
	 SCS Opposite-Spin Energy  =      -1.9987103470187961 [Eh]
	 SCS Correlation Energy    =      -2.1901035736089502 [Eh]
	 SCS Total Energy          =    -541.7705566380277560 [Eh]
	-----------------------------------------------------------

  Dipole Moment: [D]
     X:     2.6939      Y:    -5.6669      Z:     0.8435     Total:     6.3311

*** Psi4 exiting successfully. Buy a developer a beer!
