                               Psi4 1.3.2 release

  ==> Input File <==

--------------------------------------------------------------------------
#psi4
#
memory 32 gb

molecule  {
0 1
  O        0.1763910     2.6970700    -0.0085580
  C        0.2089260     1.4725840     0.0042240
  N        1.2901489     0.8860332    -0.0038821
  C        1.6696020    -0.5667920     0.0018180
  N        0.7040600    -1.4531590     0.0111340
  C       -0.5247500    -0.8567100    -0.0036900
  C       -0.8535700     0.4975280     0.0150930
  N       -2.2178770     0.6874110     0.0132550
  C       -2.7081380    -0.5423290     0.0003530
  N       -1.7302440    -1.5082620    -0.0074590
  N        2.9897270    -0.9822980    -0.0798890
  H        2.2638450     1.4140280    -0.1046570
  H       -3.7608750    -0.7937900    -0.0035550
  H       -1.8528420    -2.5141400    -0.0211820
  H        3.0628590    -1.9839740     0.0678780
  H        3.6422020    -0.4648880     0.5003130
units angstrom
no_reorient  #important for SAPT in psi4, default
symmetry c1  #important for SAPT in psi4, default
}

set PROPERTIES_ORIGIN ["COM"]
properties('MP2/aug-cc-pvtz', properties = ['dipole'])
--------------------------------------------------------------------------

    Molecular point group: c1
  Charge       = 0
  Multiplicity = 1
  Basis Set: AUG-CC-PVTZ
    Blend: AUG-CC-PVTZ
  Basis Set: (AUG-CC-PVTZ AUX)
    Blend: AUG-CC-PVTZ-JKFIT

    Orbital Energies [Eh]
    ---------------------

    Doubly Occupied:

       1A    -20.491248     2A    -15.640753     3A    -15.635478
       4A    -15.630189     5A    -15.587381     6A    -15.562714
       7A    -11.414996     8A    -11.336663     9A    -11.321450
      10A    -11.311697    11A    -11.249368    12A     -1.404957
      13A     -1.358181    14A     -1.325948    15A     -1.243766
      16A     -1.221498    17A     -1.176868    18A     -1.029056
      19A     -0.913559    20A     -0.890908    21A     -0.843018
      22A     -0.805904    23A     -0.741026    24A     -0.713225
      25A     -0.712081    26A     -0.670844    27A     -0.663999
      28A     -0.638045    29A     -0.605161    30A     -0.600511
      31A     -0.582002    32A     -0.561956    33A     -0.496488
      34A     -0.466939    35A     -0.437281    36A     -0.417953
      37A     -0.415242    38A     -0.410421    39A     -0.303525

  @DF-RHF Final Energy:  -539.52792770324891

   => Energetics <=

    Nuclear Repulsion Energy =            595.9695792690805547
    One-Electron Energy =               -1917.3304161690689398
    Two-Electron Energy =                 781.8329091967395925
    Total Energy =                       -539.5279277032489063
  Basis Set: (AUG-CC-PVTZ AUX)
    Blend: AUG-CC-PVTZ-RI
    Molecular point group: c1

    Geometry (in Angstrom), charge = 0, multiplicity = 1:

       Center              X                  Y                   Z               Mass
    ------------   -----------------  -----------------  -----------------  -----------------
         O            0.214708030575     2.659844454552    -0.005796925005    15.994914619570
         C            0.247243030575     1.435358454552     0.006985074995    12.000000000000
         N            1.328465930575     0.848807654552    -0.001121025005    14.003074004430
         C            1.707919030575    -0.604017545448     0.004579074995    12.000000000000
         N            0.742377030575    -1.490384545448     0.013895074995    14.003074004430
         C           -0.486432969425    -0.893935545448    -0.000928925005    12.000000000000
         C           -0.815252969425     0.460302454552     0.017854074995    12.000000000000
         N           -2.179559969425     0.650185454552     0.016016074995    14.003074004430
         C           -2.669820969425    -0.579554545448     0.003114074995    12.000000000000
         N           -1.691926969425    -1.545487545448    -0.004697925005    14.003074004430
         N            3.028044030575    -1.019523545448    -0.077127925005    14.003074004430
         H            2.302162030575     1.376802454552    -0.101895925005     1.007825032230
         H           -3.722557969425    -0.831015545448    -0.000793925005     1.007825032230
         H           -1.814524969425    -2.551365545448    -0.018420925005     1.007825032230
         H            3.101176030575    -2.021199545448     0.070639074995     1.007825032230
         H            3.680519030575    -0.502113545448     0.503074074995     1.007825032230

  Basis Set: AUG-CC-PVTZ
    Blend: AUG-CC-PVTZ
  Basis Set: (AUG-CC-PVTZ AUX)
    Blend: AUG-CC-PVTZ-JKFIT
	 Reference Energy          =    -539.5279277032489063 [Eh]
	 Singles Energy            =      -0.0000000000000000 [Eh]
	 Same-Spin Energy          =      -0.5754462456376617 [Eh]
	 Opposite-Spin Energy      =      -1.6673435173497619 [Eh]
	 Correlation Energy        =      -2.2427897629874236 [Eh]
	 Total Energy              =    -541.7707174662363059 [Eh]

	 ================> DF-SCS-MP2 Energies <==================
	-----------------------------------------------------------
	 SCS Same-Spin Scale       =       0.3333333333333333 [-]
	 SCS Opposite-Spin Scale   =       1.2000000000000000 [-]
	 SCS Same-Spin Energy      =      -0.1918154152125539 [Eh]
	 SCS Opposite-Spin Energy  =      -2.0008122208197143 [Eh]
	 SCS Correlation Energy    =      -2.1926276360322681 [Eh]
	 SCS Total Energy          =    -541.7205553392811908 [Eh]
	-----------------------------------------------------------

  Dipole Moment: [D]
     X:     3.3408      Y:    -6.6202      Z:     0.8574     Total:     7.4647

*** Psi4 exiting successfully. Buy a developer a beer!
