                               Psi4 1.4a3.dev225

  ==> Input File <==

--------------------------------------------------------------------------
#psi4
#
memory 32 gb

molecule  {
0 1
  O        0.1763800     2.6970850    -0.0086780
  C        0.2088860     1.4725900     0.0042210
  N        1.4659360     0.7906750    -0.0050880
  C        1.6621977    -0.5173042     0.0015693
  N        0.7040680    -1.4531450     0.0111020
  C       -0.5247290    -0.8567090    -0.0037110
  C       -0.8535850     0.4975420     0.0152200
  N       -2.2178950     0.6873840     0.0133320
  C       -2.7081200    -0.5423560     0.0003580
  N       -1.7302140    -1.5082770    -0.0075250
  N        2.9897250    -0.9823190    -0.0798750
  H        2.2637990     1.4140370    -0.1048620
  H       -3.7608500    -0.7938460    -0.0035590
  H       -1.8527810    -2.5141570    -0.0214260
  H        3.0628080    -1.9839860     0.0679760
  H        3.6422460    -0.4648460     0.5002060
units angstrom
no_reorient  #important for SAPT in psi4, default
symmetry c1  #important for SAPT in psi4, default
}

set PROPERTIES_ORIGIN ["COM"]
properties('MP2/aug-cc-pvtz', properties = ['dipole'])
--------------------------------------------------------------------------

    Molecular point group: c1
  Charge       = 0
  Multiplicity = 1
  Basis Set: AUG-CC-PVTZ
    Blend: AUG-CC-PVTZ
  Basis Set: (AUG-CC-PVTZ AUX)
    Blend: AUG-CC-PVTZ-JKFIT

    Orbital Energies [Eh]
    ---------------------

    Doubly Occupied:

       1A    -20.527158     2A    -15.639957     3A    -15.634706
       4A    -15.610360     5A    -15.572509     6A    -15.564827
       7A    -11.399358     8A    -11.371034     9A    -11.327032
      10A    -11.314108    11A    -11.250567    12A     -1.399425
      13A     -1.360759    14A     -1.338777    15A     -1.225444
      16A     -1.211519    17A     -1.177341    18A     -1.030759
      19A     -0.910967    20A     -0.890605    21A     -0.844508
      22A     -0.798304    23A     -0.749354    24A     -0.723970
      25A     -0.699488    26A     -0.676503    27A     -0.659179
      28A     -0.624977    29A     -0.616277    30A     -0.602778
      31A     -0.598537    32A     -0.545082    33A     -0.500594
      34A     -0.460473    35A     -0.446192    36A     -0.437284
      37A     -0.433314    38A     -0.412119    39A     -0.300273

  @DF-RHF Final Energy:  -539.58396586268327

   => Energetics <=

    Nuclear Repulsion Energy =            593.9681369285011669
    One-Electron Energy =               -1913.3313743971636995
    Two-Electron Energy =                 779.7792716059793747
    Total Energy =                       -539.5839658626832716
  Basis Set: (AUG-CC-PVTZ AUX)
    Blend: AUG-CC-PVTZ-RI
    Molecular point group: c1

    Geometry (in Angstrom), charge = 0, multiplicity = 1:

       Center              X                  Y                   Z               Mass
    ------------   -----------------  -----------------  -----------------  -----------------
         O            0.198989418457     2.664771799628    -0.005777515434    15.994914619570
         C            0.231495418457     1.440276799628     0.007121484566    12.000000000000
         N            1.488545418457     0.758361799628    -0.002187515434    14.003074004430
         C            1.684807118457    -0.549617400372     0.004469784566    12.000000000000
         N            0.726677418457    -1.485458200372     0.014002484566    14.003074004430
         C           -0.502119581543    -0.889022200372    -0.000810515434    12.000000000000
         C           -0.830975581543     0.465228799628     0.018120484566    12.000000000000
         N           -2.195285581543     0.655070799628     0.016232484566    14.003074004430
         C           -2.685510581543    -0.574669200372     0.003258484566    12.000000000000
         N           -1.707604581543    -1.540590200372    -0.004624515434    14.003074004430
         N            3.012334418457    -1.014632200372    -0.076974515434    14.003074004430
         H            2.286408418457     1.381723799628    -0.101961515434     1.007825032230
         H           -3.738240581543    -0.826159200372    -0.000658515434     1.007825032230
         H           -1.830171581543    -2.546470200372    -0.018525515434     1.007825032230
         H            3.085417418457    -2.016299200372     0.070876484566     1.007825032230
         H            3.664855418457    -0.497159200372     0.503106484566     1.007825032230

  Basis Set: AUG-CC-PVTZ
    Blend: AUG-CC-PVTZ
  Basis Set: (AUG-CC-PVTZ AUX)
    Blend: AUG-CC-PVTZ-JKFIT
	 Reference Energy          =    -539.5839658626832716 [Eh]
	 Singles Energy            =      -0.0000000000000000 [Eh]
	 Same-Spin Energy          =      -0.5732411046917085 [Eh]
	 Opposite-Spin Energy      =      -1.6635207783872774 [Eh]
	 Correlation Energy        =      -2.2367618830789859 [Eh]
	 Total Energy              =    -541.8207277457622695 [Eh]

	 ================> DF-SCS-MP2 Energies <==================
	-----------------------------------------------------------
	 SCS Same-Spin Scale       =       0.3333333333333333 [-]
	 SCS Opposite-Spin Scale   =       1.2000000000000000 [-]
	 SCS Same-Spin Energy      =      -0.1910803682305695 [Eh]
	 SCS Opposite-Spin Energy  =      -1.9962249340647329 [Eh]
	 SCS Correlation Energy    =      -2.1873053022953024 [Eh]
	 SCS Total Energy          =    -541.7712711649785433 [Eh]
	-----------------------------------------------------------

  Dipole Moment: [D]
     X:     2.6242      Y:    -5.3934      Z:     0.8422     Total:     6.0567

*** Psi4 exiting successfully. Buy a developer a beer!
