                               Psi4 1.4a3.dev225

  ==> Input File <==

--------------------------------------------------------------------------
#psi4
#
memory 32 gb

molecule  {
0 1
  O        0.1763800     2.6970850    -0.0086780
  C        0.2088860     1.4725900     0.0042210
  N        1.5098848     0.7668340    -0.0054135
  C        1.6696170    -0.5667500     0.0018210
  N        0.7040680    -1.4531450     0.0111020
  C       -0.5247290    -0.8567090    -0.0037110
  C       -0.8535850     0.4975420     0.0152200
  N       -2.2178950     0.6873840     0.0133320
  C       -2.7081200    -0.5423560     0.0003580
  N       -1.7302140    -1.5082770    -0.0075250
  N        2.9897250    -0.9823190    -0.0798750
  H        2.2637990     1.4140370    -0.1048620
  H       -3.7608500    -0.7938460    -0.0035590
  H       -1.8527810    -2.5141570    -0.0214260
  H        3.0628080    -1.9839860     0.0679760
  H        3.6422460    -0.4648460     0.5002060
units angstrom
no_reorient  #important for SAPT in psi4, default
symmetry c1  #important for SAPT in psi4, default
}

set PROPERTIES_ORIGIN ["COM"]
properties('MP2/aug-cc-pvtz', properties = ['dipole'])
--------------------------------------------------------------------------

    Molecular point group: c1
  Charge       = 0
  Multiplicity = 1
  Basis Set: AUG-CC-PVTZ
    Blend: AUG-CC-PVTZ
  Basis Set: (AUG-CC-PVTZ AUX)
    Blend: AUG-CC-PVTZ-JKFIT

    Orbital Energies [Eh]
    ---------------------

    Doubly Occupied:

       1A    -20.531397     2A    -15.636499     3A    -15.629401
       4A    -15.607632     5A    -15.570814     6A    -15.566084
       7A    -11.394512     8A    -11.374245     9A    -11.329081
      10A    -11.315059    11A    -11.252367    12A     -1.393775
      13A     -1.362475    14A     -1.339326    15A     -1.219016
      16A     -1.215468    17A     -1.179100    18A     -1.031313
      19A     -0.905926    20A     -0.885102    21A     -0.845715
      22A     -0.800287    23A     -0.743513    24A     -0.728985
      25A     -0.699282    26A     -0.672350    27A     -0.655478
      28A     -0.631375    29A     -0.616834    30A     -0.602963
      31A     -0.597214    32A     -0.546646    33A     -0.500092
      34A     -0.461081    35A     -0.445213    36A     -0.435549
      37A     -0.434069    38A     -0.412898    39A     -0.302859

  @DF-RHF Final Energy:  -539.58489297479059

   => Energetics <=

    Nuclear Repulsion Energy =            593.2247764913327046
    One-Electron Energy =               -1911.8773509816276146
    Two-Electron Energy =                 779.0676815155043187
    Total Energy =                       -539.5848929747905913
  Basis Set: (AUG-CC-PVTZ AUX)
    Blend: AUG-CC-PVTZ-RI
    Molecular point group: c1

    Geometry (in Angstrom), charge = 0, multiplicity = 1:

       Center              X                  Y                   Z               Mass
    ------------   -----------------  -----------------  -----------------  -----------------
         O            0.194325713383     2.670910167786    -0.005767335979    15.994914619570
         C            0.226831713383     1.446415167786     0.007131664021    12.000000000000
         N            1.527830513383     0.740659167786    -0.002502835979    14.003074004430
         C            1.687562713383    -0.592924832214     0.004731664021    12.000000000000
         N            0.722013713383    -1.479319832214     0.014012664021    14.003074004430
         C           -0.506783286617    -0.882883832214    -0.000800335979    12.000000000000
         C           -0.835639286617     0.471367167786     0.018130664021    12.000000000000
         N           -2.199949286617     0.661209167786     0.016242664021    14.003074004430
         C           -2.690174286617    -0.568530832214     0.003268664021    12.000000000000
         N           -1.712268286617    -1.534451832214    -0.004614335979    14.003074004430
         N            3.007670713383    -1.008493832214    -0.076964335979    14.003074004430
         H            2.281744713383     1.387862167786    -0.101951335979     1.007825032230
         H           -3.742904286617    -0.820020832214    -0.000648335979     1.007825032230
         H           -1.834835286617    -2.540331832214    -0.018515335979     1.007825032230
         H            3.080753713383    -2.010160832214     0.070886664021     1.007825032230
         H            3.660191713383    -0.491020832214     0.503116664021     1.007825032230

  Basis Set: AUG-CC-PVTZ
    Blend: AUG-CC-PVTZ
  Basis Set: (AUG-CC-PVTZ AUX)
    Blend: AUG-CC-PVTZ-JKFIT
	 Reference Energy          =    -539.5848929747905913 [Eh]
	 Singles Energy            =      -0.0000000000000000 [Eh]
	 Same-Spin Energy          =      -0.5729606700844054 [Eh]
	 Opposite-Spin Energy      =      -1.6633316765924695 [Eh]
	 Correlation Energy        =      -2.2362923466768749 [Eh]
	 Total Energy              =    -541.8211853214675102 [Eh]

	 ================> DF-SCS-MP2 Energies <==================
	-----------------------------------------------------------
	 SCS Same-Spin Scale       =       0.3333333333333333 [-]
	 SCS Opposite-Spin Scale   =       1.2000000000000000 [-]
	 SCS Same-Spin Energy      =      -0.1909868900281351 [Eh]
	 SCS Opposite-Spin Energy  =      -1.9959980119109633 [Eh]
	 SCS Correlation Energy    =      -2.1869849019390983 [Eh]
	 SCS Total Energy          =    -541.7718778767297181 [Eh]
	-----------------------------------------------------------

  Dipole Moment: [D]
     X:     2.5000      Y:    -5.4043      Z:     0.8402     Total:     6.0135

*** Psi4 exiting successfully. Buy a developer a beer!
