                               Psi4 1.3.2 release

  ==> Input File <==

--------------------------------------------------------------------------
#psi4
#
memory 32 gb

molecule  {
0 1
  O        0.1763910     2.6970700    -0.0085580
  C        0.2089260     1.4725840     0.0042240
  N        1.4659430     0.7906670    -0.0052000
  C        1.6761549    -0.5498123     0.0177624
  N        0.7040600    -1.4531590     0.0111340
  C       -0.5247500    -0.8567100    -0.0036900
  C       -0.8535700     0.4975280     0.0150930
  N       -2.2178770     0.6874110     0.0132550
  C       -2.7081380    -0.5423290     0.0003530
  N       -1.7302440    -1.5082620    -0.0074590
  N        2.9897270    -0.9822980    -0.0798890
  H        2.2638450     1.4140280    -0.1046570
  H       -3.7608750    -0.7937900    -0.0035550
  H       -1.8528420    -2.5141400    -0.0211820
  H        3.0628590    -1.9839740     0.0678780
  H        3.6422020    -0.4648880     0.5003130
units angstrom
no_reorient  #important for SAPT in psi4, default
symmetry c1  #important for SAPT in psi4, default
}

set PROPERTIES_ORIGIN ["COM"]
properties('MP2/aug-cc-pvtz', properties = ['dipole'])
--------------------------------------------------------------------------

    Molecular point group: c1
  Charge       = 0
  Multiplicity = 1
  Basis Set: AUG-CC-PVTZ
    Blend: AUG-CC-PVTZ
  Basis Set: (AUG-CC-PVTZ AUX)
    Blend: AUG-CC-PVTZ-JKFIT

    Orbital Energies [Eh]
    ---------------------

    Doubly Occupied:

       1A    -20.525032     2A    -15.635205     3A    -15.634674
       4A    -15.613439     5A    -15.572735     6A    -15.564698
       7A    -11.399443     8A    -11.368883     9A    -11.326886
      10A    -11.313824    11A    -11.250545    12A     -1.394826
      13A     -1.360332    14A     -1.336663    15A     -1.223584
      16A     -1.215869    17A     -1.177148    18A     -1.030545
      19A     -0.907598    20A     -0.887087    21A     -0.844297
      22A     -0.798562    23A     -0.742856    24A     -0.729432
      25A     -0.701352    26A     -0.674434    27A     -0.656722
      28A     -0.630665    29A     -0.614869    30A     -0.601653
      31A     -0.597106    32A     -0.547210    33A     -0.498973
      34A     -0.462608    35A     -0.443852    36A     -0.433982
      37A     -0.432524    38A     -0.411663    39A     -0.301082

  @DF-RHF Final Energy:  -539.58655681668313

   => Energetics <=

    Nuclear Repulsion Energy =            593.6392517575907277
    One-Electron Energy =               -1912.7259051652215476
    Two-Electron Energy =                 779.5000965909476918
    Total Energy =                       -539.5865568166831281
  Basis Set: (AUG-CC-PVTZ AUX)
    Blend: AUG-CC-PVTZ-RI
    Molecular point group: c1

    Geometry (in Angstrom), charge = 0, multiplicity = 1:

       Center              X                  Y                   Z               Mass
    ------------   -----------------  -----------------  -----------------  -----------------
         O            0.197890403845     2.667336463674    -0.006941438902    15.994914619570
         C            0.230425403845     1.442850463674     0.005840561098    12.000000000000
         N            1.487442403845     0.760933463674    -0.003583438902    14.003074004430
         C            1.697654303845    -0.579545836326     0.019378961098    12.000000000000
         N            0.725559403845    -1.482892536326     0.012750561098    14.003074004430
         C           -0.503250596155    -0.886443536326    -0.002073438902    12.000000000000
         C           -0.832070596155     0.467794463674     0.016709561098    12.000000000000
         N           -2.196377596155     0.657677463674     0.014871561098    14.003074004430
         C           -2.686638596155    -0.572062536326     0.001969561098    12.000000000000
         N           -1.708744596155    -1.537995536326    -0.005842438902    14.003074004430
         N            3.011226403845    -1.012031536326    -0.078272438902    14.003074004430
         H            2.285344403845     1.384294463674    -0.103040438902     1.007825032230
         H           -3.739375596155    -0.823523536326    -0.001938438902     1.007825032230
         H           -1.831342596155    -2.543873536326    -0.019565438902     1.007825032230
         H            3.084358403845    -2.013707536326     0.069494561098     1.007825032230
         H            3.663701403845    -0.494621536326     0.501929561098     1.007825032230

  Basis Set: AUG-CC-PVTZ
    Blend: AUG-CC-PVTZ
  Basis Set: (AUG-CC-PVTZ AUX)
    Blend: AUG-CC-PVTZ-JKFIT
	 Reference Energy          =    -539.5865568166831281 [Eh]
	 Singles Energy            =      -0.0000000000000000 [Eh]
	 Same-Spin Energy          =      -0.5732190397917329 [Eh]
	 Opposite-Spin Energy      =      -1.6634452099613743 [Eh]
	 Correlation Energy        =      -2.2366642497531073 [Eh]
	 Total Energy              =    -541.8232210664361901 [Eh]

	 ================> DF-SCS-MP2 Energies <==================
	-----------------------------------------------------------
	 SCS Same-Spin Scale       =       0.3333333333333333 [-]
	 SCS Opposite-Spin Scale   =       1.2000000000000000 [-]
	 SCS Same-Spin Energy      =      -0.1910730132639110 [Eh]
	 SCS Opposite-Spin Energy  =      -1.9961342519536491 [Eh]
	 SCS Correlation Energy    =      -2.1872072652175603 [Eh]
	 SCS Total Energy          =    -541.7737640819007083 [Eh]
	-----------------------------------------------------------

  Dipole Moment: [D]
     X:     2.7263      Y:    -5.5647      Z:     0.8559     Total:     6.2555

*** Psi4 exiting successfully. Buy a developer a beer!
