                               Psi4 1.3.2 release

  ==> Input File <==

--------------------------------------------------------------------------
#psi4
#
memory 32 gb

molecule  {
0 1
  O        0.1763910     2.6970700    -0.0085580
  C        0.2089260     1.4725840     0.0042240
  N        1.4186922     0.7827337    -0.0049503
  C        1.6696020    -0.5667920     0.0018180
  N        0.7040600    -1.4531590     0.0111340
  C       -0.5247500    -0.8567100    -0.0036900
  C       -0.8535700     0.4975280     0.0150930
  N       -2.2178770     0.6874110     0.0132550
  C       -2.7081380    -0.5423290     0.0003530
  N       -1.7302440    -1.5082620    -0.0074590
  N        2.9897270    -0.9822980    -0.0798890
  H        2.2638450     1.4140280    -0.1046570
  H       -3.7608750    -0.7937900    -0.0035550
  H       -1.8528420    -2.5141400    -0.0211820
  H        3.0628590    -1.9839740     0.0678780
  H        3.6422020    -0.4648880     0.5003130
units angstrom
no_reorient  #important for SAPT in psi4, default
symmetry c1  #important for SAPT in psi4, default
}

set PROPERTIES_ORIGIN ["COM"]
properties('MP2/aug-cc-pvtz', properties = ['dipole'])
--------------------------------------------------------------------------

    Molecular point group: c1
  Charge       = 0
  Multiplicity = 1
  Basis Set: AUG-CC-PVTZ
    Blend: AUG-CC-PVTZ
  Basis Set: (AUG-CC-PVTZ AUX)
    Blend: AUG-CC-PVTZ-JKFIT

    Orbital Energies [Eh]
    ---------------------

    Doubly Occupied:

       1A    -20.520901     2A    -15.636380     3A    -15.635397
       4A    -15.615466     5A    -15.573656     6A    -15.564096
       7A    -11.399433     8A    -11.364232     9A    -11.325828
      10A    -11.313568    11A    -11.250193    12A     -1.395763
      13A     -1.359938    14A     -1.335952    15A     -1.226370
      16A     -1.217212    17A     -1.176893    18A     -1.032244
      19A     -0.909711    20A     -0.886393    21A     -0.844080
      22A     -0.800219    23A     -0.732176    24A     -0.731607
      25A     -0.701726    26A     -0.674313    27A     -0.658659
      28A     -0.633034    29A     -0.614248    30A     -0.599348
      31A     -0.596079    32A     -0.549427    33A     -0.498185
      34A     -0.463795    35A     -0.442444    36A     -0.431866
      37A     -0.431114    38A     -0.411074    39A     -0.302629

  @DF-RHF Final Energy:  -539.58358247600188

   => Energetics <=

    Nuclear Repulsion Energy =            594.5683961854347217
    One-Electron Energy =               -1914.5926652632310834
    Two-Electron Energy =                 780.4406866017944822
    Total Energy =                       -539.5835824760018795
  Basis Set: (AUG-CC-PVTZ AUX)
    Blend: AUG-CC-PVTZ-RI
    Molecular point group: c1

    Geometry (in Angstrom), charge = 0, multiplicity = 1:

       Center              X                  Y                   Z               Mass
    ------------   -----------------  -----------------  -----------------  -----------------
         O            0.202791391211     2.669420861007    -0.005697897252    15.994914619570
         C            0.235326391211     1.444934861007     0.007084102748    12.000000000000
         N            1.445092591211     0.755084561007    -0.002090197252    14.003074004430
         C            1.696002391211    -0.594441138993     0.004678102748    12.000000000000
         N            0.730460391211    -1.480808138993     0.013994102748    14.003074004430
         C           -0.498349608789    -0.884359138993    -0.000829897252    12.000000000000
         C           -0.827169608789     0.469878861007     0.017953102748    12.000000000000
         N           -2.191476608789     0.659761861007     0.016115102748    14.003074004430
         C           -2.681737608789    -0.569978138993     0.003213102748    12.000000000000
         N           -1.703843608789    -1.535911138993    -0.004598897252    14.003074004430
         N            3.016127391211    -1.009947138993    -0.077028897252    14.003074004430
         H            2.290245391211     1.386378861007    -0.101796897252     1.007825032230
         H           -3.734474608789    -0.821439138993    -0.000694897252     1.007825032230
         H           -1.826441608789    -2.541789138993    -0.018321897252     1.007825032230
         H            3.089259391211    -2.011623138993     0.070738102748     1.007825032230
         H            3.668602391211    -0.492537138993     0.503173102748     1.007825032230

  Basis Set: AUG-CC-PVTZ
    Blend: AUG-CC-PVTZ
  Basis Set: (AUG-CC-PVTZ AUX)
    Blend: AUG-CC-PVTZ-JKFIT
	 Reference Energy          =    -539.5835824760018795 [Eh]
	 Singles Energy            =      -0.0000000000000000 [Eh]
	 Same-Spin Energy          =      -0.5736770987770985 [Eh]
	 Opposite-Spin Energy      =      -1.6638819951674972 [Eh]
	 Correlation Energy        =      -2.2375590939445957 [Eh]
	 Total Energy              =    -541.8211415699464624 [Eh]

	 ================> DF-SCS-MP2 Energies <==================
	-----------------------------------------------------------
	 SCS Same-Spin Scale       =       0.3333333333333333 [-]
	 SCS Opposite-Spin Scale   =       1.2000000000000000 [-]
	 SCS Same-Spin Energy      =      -0.1912256995923662 [Eh]
	 SCS Opposite-Spin Energy  =      -1.9966583942009966 [Eh]
	 SCS Correlation Energy    =      -2.1878840937933628 [Eh]
	 SCS Total Energy          =    -541.7714665697952796 [Eh]
	-----------------------------------------------------------

  Dipole Moment: [D]
     X:     2.8111      Y:    -5.7303      Z:     0.8504     Total:     6.4391

*** Psi4 exiting successfully. Buy a developer a beer!
