                               Psi4 1.3.2 release

  ==> Input File <==

--------------------------------------------------------------------------
#psi4
#
memory 32 gb

molecule  {
0 1
  O        0.1763910     2.6970700    -0.0085580
  C        0.2089260     1.4725840     0.0042240
  N        1.4659430     0.7906670    -0.0052000
  C        1.6696020    -0.5667920     0.0018180
  N        0.7040600    -1.4531590     0.0111340
  C       -0.5247500    -0.8567100    -0.0036900
  C       -0.8535700     0.4975280     0.0150930
  N       -2.2178770     0.6874110     0.0132550
  C       -2.7081380    -0.5423290     0.0003530
  N       -1.7302440    -1.5082620    -0.0074590
  N        2.9897270    -0.9822980    -0.0798890
  H        2.2638450     1.4140280    -0.1046570
  H       -3.7608750    -0.7937900    -0.0035550
  H       -1.8528420    -2.5141400    -0.0211820
  H        3.0883953    -1.9779690     0.0916979
  H        3.6422020    -0.4648880     0.5003130
units angstrom
no_reorient  #important for SAPT in psi4, default
symmetry c1  #important for SAPT in psi4, default
}

set PROPERTIES_ORIGIN ["COM"]
properties('MP2/aug-cc-pvtz', properties = ['dipole'])
--------------------------------------------------------------------------

    Molecular point group: c1
  Charge       = 0
  Multiplicity = 1
  Basis Set: AUG-CC-PVTZ
    Blend: AUG-CC-PVTZ
  Basis Set: (AUG-CC-PVTZ AUX)
    Blend: AUG-CC-PVTZ-JKFIT

    Orbital Energies [Eh]
    ---------------------

    Doubly Occupied:

       1A    -20.524462     2A    -15.636222     3A    -15.632193
       4A    -15.612487     5A    -15.573577     6A    -15.565316
       7A    -11.398944     8A    -11.368114     9A    -11.327548
      10A    -11.314339    11A    -11.251504    12A     -1.393605
      13A     -1.360970    14A     -1.335821    15A     -1.220883
      16A     -1.218393    17A     -1.178275    18A     -1.031553
      19A     -0.906839    20A     -0.886016    21A     -0.844978
      22A     -0.798554    23A     -0.740422    24A     -0.731720
      25A     -0.698874    26A     -0.672664    27A     -0.656458
      28A     -0.633920    29A     -0.614663    30A     -0.601485
      31A     -0.596711    32A     -0.548078    33A     -0.499700
      34A     -0.462934    35A     -0.443238    36A     -0.433191
      37A     -0.432647    38A     -0.412235    39A     -0.302950

  @DF-RHF Final Energy:  -539.58746281857498

   => Energetics <=

    Nuclear Repulsion Energy =            593.6084299183513622
    One-Electron Energy =               -1912.6668235472416200
    Two-Electron Energy =                 779.4709308103153944
    Total Energy =                       -539.5874628185749771
  Basis Set: (AUG-CC-PVTZ AUX)
    Blend: AUG-CC-PVTZ-RI
    Molecular point group: c1

    Geometry (in Angstrom), charge = 0, multiplicity = 1:

       Center              X                  Y                   Z               Mass
    ------------   -----------------  -----------------  -----------------  -----------------
         O            0.198240611619     2.668645336121    -0.005833678808    15.994914619570
         C            0.230775611619     1.444159336121     0.006948321192    12.000000000000
         N            1.487792611619     0.762242336121    -0.002475678808    14.003074004430
         C            1.691451611619    -0.595216663879     0.004542321192    12.000000000000
         N            0.725909611619    -1.481583663879     0.013858321192    14.003074004430
         C           -0.502900388381    -0.885134663879    -0.000965678808    12.000000000000
         C           -0.831720388381     0.469103336121     0.017817321192    12.000000000000
         N           -2.196027388381     0.658986336121     0.015979321192    14.003074004430
         C           -2.686288388381    -0.570753663879     0.003077321192    12.000000000000
         N           -1.708394388381    -1.536686663879    -0.004734678808    14.003074004430
         N            3.011576611619    -1.010722663879    -0.077164678808    14.003074004430
         H            2.285694611619     1.385603336121    -0.101932678808     1.007825032230
         H           -3.739025388381    -0.822214663879    -0.000830678808     1.007825032230
         H           -1.830992388381    -2.542564663879    -0.018457678808     1.007825032230
         H            3.110244911619    -2.006393663879     0.094422221192     1.007825032230
         H            3.664051611619    -0.493312663879     0.503037321192     1.007825032230

  Basis Set: AUG-CC-PVTZ
    Blend: AUG-CC-PVTZ
  Basis Set: (AUG-CC-PVTZ AUX)
    Blend: AUG-CC-PVTZ-JKFIT
	 Reference Energy          =    -539.5874628185749771 [Eh]
	 Singles Energy            =      -0.0000000000000000 [Eh]
	 Same-Spin Energy          =      -0.5730173194834033 [Eh]
	 Opposite-Spin Energy      =      -1.6631963819218316 [Eh]
	 Correlation Energy        =      -2.2362137014052350 [Eh]
	 Total Energy              =    -541.8236765199802676 [Eh]

	 ================> DF-SCS-MP2 Energies <==================
	-----------------------------------------------------------
	 SCS Same-Spin Scale       =       0.3333333333333333 [-]
	 SCS Opposite-Spin Scale   =       1.2000000000000000 [-]
	 SCS Same-Spin Energy      =      -0.1910057731611344 [Eh]
	 SCS Opposite-Spin Energy  =      -1.9958356583061978 [Eh]
	 SCS Correlation Energy    =      -2.1868414314673323 [Eh]
	 SCS Total Energy          =    -541.7743042500422916 [Eh]
	-----------------------------------------------------------

  Dipole Moment: [D]
     X:     2.6766      Y:    -5.6299      Z:     0.8700     Total:     6.2942

*** Psi4 exiting successfully. Buy a developer a beer!
