                               Psi4 1.3.2 release

  ==> Input File <==

--------------------------------------------------------------------------
#psi4
#
memory 32 gb

molecule  {
0 1
  O        0.1763910     2.6970700    -0.0085580
  C        0.2089260     1.4725840     0.0042240
  N        1.4659430     0.7906670    -0.0052000
  C        1.6696020    -0.5667920     0.0018180
  N        0.7040600    -1.4531590     0.0111340
  C       -0.5247500    -0.8567100    -0.0036900
  C       -0.8535700     0.4975280     0.0150930
  N       -2.2178770     0.6874110     0.0132550
  C       -2.7731365    -0.6128871    -0.0008858
  N       -1.7302440    -1.5082620    -0.0074590
  N        2.9897270    -0.9822980    -0.0798890
  H        2.2638450     1.4140280    -0.1046570
  H       -3.7608750    -0.7937900    -0.0035550
  H       -1.8528420    -2.5141400    -0.0211820
  H        3.0628590    -1.9839740     0.0678780
  H        3.6422020    -0.4648880     0.5003130
units angstrom
no_reorient  #important for SAPT in psi4, default
symmetry c1  #important for SAPT in psi4, default
}

set PROPERTIES_ORIGIN ["COM"]
properties('MP2/aug-cc-pvtz', properties = ['dipole'])
--------------------------------------------------------------------------

    Molecular point group: c1
  Charge       = 0
  Multiplicity = 1
  Basis Set: AUG-CC-PVTZ
    Blend: AUG-CC-PVTZ
  Basis Set: (AUG-CC-PVTZ AUX)
    Blend: AUG-CC-PVTZ-JKFIT

    Orbital Energies [Eh]
    ---------------------

    Doubly Occupied:

       1A    -20.527217     2A    -15.643050     3A    -15.632935
       4A    -15.612293     5A    -15.574064     6A    -15.571027
       7A    -11.398352     8A    -11.370493     9A    -11.326793
      10A    -11.316689    11A    -11.253910    12A     -1.394032
      13A     -1.356495    14A     -1.332094    15A     -1.221360
      16A     -1.214079    17A     -1.163895    18A     -1.029758
      19A     -0.913732    20A     -0.883971    21A     -0.848021
      22A     -0.801816    23A     -0.740545    24A     -0.732593
      25A     -0.703924    26A     -0.672841    27A     -0.657722
      28A     -0.641535    29A     -0.615689    30A     -0.600256
      31A     -0.594152    32A     -0.548872    33A     -0.495914
      34A     -0.460200    35A     -0.443458    36A     -0.430859
      37A     -0.429849    38A     -0.407365    39A     -0.296630

  @DF-RHF Final Energy:  -539.56651940860536

   => Energetics <=

    Nuclear Repulsion Energy =            591.6951796918523314
    One-Electron Energy =               -1908.8064373364738913
    Two-Electron Energy =                 777.5447382360163147
    Total Energy =                       -539.5665194086053589
  Basis Set: (AUG-CC-PVTZ AUX)
    Blend: AUG-CC-PVTZ-RI
    Molecular point group: c1

    Geometry (in Angstrom), charge = 0, multiplicity = 1:

       Center              X                  Y                   Z               Mass
    ------------   -----------------  -----------------  -----------------  -----------------
         O            0.203574747803     2.674290834442    -0.005576333271    15.994914619570
         C            0.236109747803     1.449804834442     0.007205666729    12.000000000000
         N            1.493126747803     0.767887834442    -0.002218333271    14.003074004430
         C            1.696785747803    -0.589571165558     0.004799666729    12.000000000000
         N            0.731243747803    -1.475938165558     0.014115666729    14.003074004430
         C           -0.497566252197    -0.879489165558    -0.000708333271    12.000000000000
         C           -0.826386252197     0.474748834442     0.018074666729    12.000000000000
         N           -2.190693252197     0.664631834442     0.016236666729    14.003074004430
         C           -2.745952752197    -0.635666265558     0.002095866729    12.000000000000
         N           -1.703060252197    -1.531041165558    -0.004477333271    14.003074004430
         N            3.016910747803    -1.005077165558    -0.076907333271    14.003074004430
         H            2.291028747803     1.391248834442    -0.101675333271     1.007825032230
         H           -3.733691252197    -0.816569165558    -0.000573333271     1.007825032230
         H           -1.825658252197    -2.536919165558    -0.018200333271     1.007825032230
         H            3.090042747803    -2.006753165558     0.070859666729     1.007825032230
         H            3.669385747803    -0.487667165558     0.503294666729     1.007825032230

  Basis Set: AUG-CC-PVTZ
    Blend: AUG-CC-PVTZ
  Basis Set: (AUG-CC-PVTZ AUX)
    Blend: AUG-CC-PVTZ-JKFIT
	 Reference Energy          =    -539.5665194086053589 [Eh]
	 Singles Energy            =      -0.0000000000000000 [Eh]
	 Same-Spin Energy          =      -0.5754969264812301 [Eh]
	 Opposite-Spin Energy      =      -1.6684256991155042 [Eh]
	 Correlation Energy        =      -2.2439226255967344 [Eh]
	 Total Energy              =    -541.8104420342020831 [Eh]

	 ================> DF-SCS-MP2 Energies <==================
	-----------------------------------------------------------
	 SCS Same-Spin Scale       =       0.3333333333333333 [-]
	 SCS Opposite-Spin Scale   =       1.2000000000000000 [-]
	 SCS Same-Spin Energy      =      -0.1918323088270767 [Eh]
	 SCS Opposite-Spin Energy  =      -2.0021108389386049 [Eh]
	 SCS Correlation Energy    =      -2.1939431477656814 [Eh]
	 SCS Total Energy          =    -541.7604625563710670 [Eh]
	-----------------------------------------------------------

  Dipole Moment: [D]
     X:     2.7427      Y:    -5.6883      Z:     0.8432     Total:     6.3710

*** Psi4 exiting successfully. Buy a developer a beer!
