                               Psi4 1.3.2 release

  ==> Input File <==

--------------------------------------------------------------------------
#psi4
#
memory 32 gb

molecule  {
0 1
  O        0.1763910     2.6970700    -0.0085580
  C        0.2089260     1.4725840     0.0042240
  N        1.4659430     0.7906670    -0.0052000
  C        1.6696020    -0.5667920     0.0018180
  N        0.7040600    -1.4531590     0.0111340
  C       -0.5247500    -0.8567100    -0.0036900
  C       -0.8535700     0.4975280     0.0150930
  N       -2.2178770     0.6874110     0.0132550
  C       -2.7081380    -0.5423290     0.0003530
  N       -1.7302440    -1.5082620    -0.0074590
  N        2.9897270    -0.9822980    -0.0798890
  H        2.2638450     1.4140280    -0.1046570
  H       -3.5663488    -0.7473247    -0.0028329
  H       -1.8528420    -2.5141400    -0.0211820
  H        3.0628590    -1.9839740     0.0678780
  H        3.6422020    -0.4648880     0.5003130
units angstrom
no_reorient  #important for SAPT in psi4, default
symmetry c1  #important for SAPT in psi4, default
}

set PROPERTIES_ORIGIN ["COM"]
properties('MP2/aug-cc-pvtz', properties = ['dipole'])
--------------------------------------------------------------------------

    Molecular point group: c1
  Charge       = 0
  Multiplicity = 1
  Basis Set: AUG-CC-PVTZ
    Blend: AUG-CC-PVTZ
  Basis Set: (AUG-CC-PVTZ AUX)
    Blend: AUG-CC-PVTZ-JKFIT

    Orbital Energies [Eh]
    ---------------------

    Doubly Occupied:

       1A    -20.524479     2A    -15.635288     3A    -15.631930
       4A    -15.612409     5A    -15.573467     6A    -15.565162
       7A    -11.398616     8A    -11.367927     9A    -11.327368
      10A    -11.292104    11A    -11.250912    12A     -1.393520
      13A     -1.360938    14A     -1.335962    15A     -1.220854
      16A     -1.218504    17A     -1.177621    18A     -1.039278
      19A     -0.919463    20A     -0.887889    21A     -0.855951
      22A     -0.807769    23A     -0.745998    24A     -0.736549
      25A     -0.704512    26A     -0.673344    27A     -0.658727
      28A     -0.640779    29A     -0.618068    30A     -0.611573
      31A     -0.597435    32A     -0.547911    33A     -0.499938
      34A     -0.462541    35A     -0.443745    36A     -0.433215
      37A     -0.432586    38A     -0.411622    39A     -0.303166

  @DF-RHF Final Energy:  -539.55145376620271

   => Energetics <=

    Nuclear Repulsion Energy =            594.9125889647491476
    One-Electron Energy =               -1915.0898496061668084
    Two-Electron Energy =                 780.6258068752149484
    Total Energy =                       -539.5514537662027124
  Basis Set: (AUG-CC-PVTZ AUX)
    Blend: AUG-CC-PVTZ-RI
    Molecular point group: c1

    Geometry (in Angstrom), charge = 0, multiplicity = 1:

       Center              X                  Y                   Z               Mass
    ------------   -----------------  -----------------  -----------------  -----------------
         O            0.197113084860     2.668375378740    -0.005679566712    15.994914619570
         C            0.229648084860     1.443889378740     0.007102433288    12.000000000000
         N            1.486665084860     0.761972378740    -0.002321566712    14.003074004430
         C            1.690324084860    -0.595486621260     0.004696433288    12.000000000000
         N            0.724782084860    -1.481853621260     0.014012433288    14.003074004430
         C           -0.504027915140    -0.885404621260    -0.000811566712    12.000000000000
         C           -0.832847915140     0.468833378740     0.017971433288    12.000000000000
         N           -2.197154915140     0.658716378740     0.016133433288    14.003074004430
         C           -2.687415915140    -0.571023621260     0.003231433288    12.000000000000
         N           -1.709521915140    -1.536956621260    -0.004580566712    14.003074004430
         N            3.010449084860    -1.010992621260    -0.077010566712    14.003074004430
         H            2.284567084860     1.385333378740    -0.101778566712     1.007825032230
         H           -3.545626715140    -0.776019321260     0.000045533288     1.007825032230
         H           -1.832119915140    -2.542834621260    -0.018303566712     1.007825032230
         H            3.083581084860    -2.012668621260     0.070756433288     1.007825032230
         H            3.662924084860    -0.493582621260     0.503191433288     1.007825032230

  Basis Set: AUG-CC-PVTZ
    Blend: AUG-CC-PVTZ
  Basis Set: (AUG-CC-PVTZ AUX)
    Blend: AUG-CC-PVTZ-JKFIT
	 Reference Energy          =    -539.5514537662027124 [Eh]
	 Singles Energy            =      -0.0000000000000000 [Eh]
	 Same-Spin Energy          =      -0.5728044076418058 [Eh]
	 Opposite-Spin Energy      =      -1.6628002988705384 [Eh]
	 Correlation Energy        =      -2.2356047065123441 [Eh]
	 Total Energy              =    -541.7870584727151027 [Eh]

	 ================> DF-SCS-MP2 Energies <==================
	-----------------------------------------------------------
	 SCS Same-Spin Scale       =       0.3333333333333333 [-]
	 SCS Opposite-Spin Scale   =       1.2000000000000000 [-]
	 SCS Same-Spin Energy      =      -0.1909348025472686 [Eh]
	 SCS Opposite-Spin Energy  =      -1.9953603586446460 [Eh]
	 SCS Correlation Energy    =      -2.1862951611919148 [Eh]
	 SCS Total Energy          =    -541.7377489273945912 [Eh]
	-----------------------------------------------------------

  Dipole Moment: [D]
     X:     2.7159      Y:    -5.6427      Z:     0.8440     Total:     6.3189

*** Psi4 exiting successfully. Buy a developer a beer!
