                               Psi4 1.3.2 release

  ==> Input File <==

--------------------------------------------------------------------------
#psi4
#
memory 32 gb

molecule  {
0 1
  O        0.1763910     2.6970700    -0.0085580
  C        0.2089260     1.4725840     0.0042240
  N        1.4659430     0.7906670    -0.0052000
  C        1.6696020    -0.5667920     0.0018180
  N        0.6349733    -1.5783405     0.0116833
  C       -0.5247500    -0.8567100    -0.0036900
  C       -0.8535700     0.4975280     0.0150930
  N       -2.2178770     0.6874110     0.0132550
  C       -2.7081380    -0.5423290     0.0003530
  N       -1.7302440    -1.5082620    -0.0074590
  N        2.9897270    -0.9822980    -0.0798890
  H        2.2638450     1.4140280    -0.1046570
  H       -3.7608750    -0.7937900    -0.0035550
  H       -1.8528420    -2.5141400    -0.0211820
  H        3.0628590    -1.9839740     0.0678780
  H        3.6422020    -0.4648880     0.5003130
units angstrom
no_reorient  #important for SAPT in psi4, default
symmetry c1  #important for SAPT in psi4, default
}

set PROPERTIES_ORIGIN ["COM"]
properties('MP2/aug-cc-pvtz', properties = ['dipole'])
--------------------------------------------------------------------------

    Molecular point group: c1
  Charge       = 0
  Multiplicity = 1
  Basis Set: AUG-CC-PVTZ
    Blend: AUG-CC-PVTZ
  Basis Set: (AUG-CC-PVTZ AUX)
    Blend: AUG-CC-PVTZ-JKFIT

    Orbital Energies [Eh]
    ---------------------

    Doubly Occupied:

       1A    -20.526169     2A    -15.646175     3A    -15.626105
       4A    -15.625133     5A    -15.586880     6A    -15.561162
       7A    -11.422392     8A    -11.369364     9A    -11.323879
      10A    -11.309501    11A    -11.247687    12A     -1.393033
      13A     -1.356574    14A     -1.330145    15A     -1.229007
      16A     -1.208989    17A     -1.166730    18A     -1.022668
      19A     -0.903612    20A     -0.890897    21A     -0.840226
      22A     -0.788495    23A     -0.744629    24A     -0.727440
      25A     -0.704207    26A     -0.674045    27A     -0.651375
      28A     -0.618330    29A     -0.610836    30A     -0.599298
      31A     -0.591268    32A     -0.545304    33A     -0.507536
      34A     -0.463309    35A     -0.446287    36A     -0.436927
      37A     -0.433363    38A     -0.407275    39A     -0.293735

  @DF-RHF Final Energy:  -539.56157062323120

   => Energetics <=

    Nuclear Repulsion Energy =            590.6151542678505848
    One-Electron Energy =               -1906.6934750892082775
    Two-Electron Energy =                 776.5167501981264877
    Total Energy =                       -539.5615706232312050
  Basis Set: (AUG-CC-PVTZ AUX)
    Blend: AUG-CC-PVTZ-RI
    Molecular point group: c1

    Geometry (in Angstrom), charge = 0, multiplicity = 1:

       Center              X                  Y                   Z               Mass
    ------------   -----------------  -----------------  -----------------  -----------------
         O            0.204815693882     2.680290385249    -0.005725671746    15.994914619570
         C            0.237350693882     1.455804385249     0.007056328254    12.000000000000
         N            1.494367693882     0.773887385249    -0.002367671746    14.003074004430
         C            1.698026693882    -0.583571614751     0.004650328254    12.000000000000
         N            0.663397993882    -1.595120114751     0.014515628254    14.003074004430
         C           -0.496325306118    -0.873489614751    -0.000857671746    12.000000000000
         C           -0.825145306118     0.480748385249     0.017925328254    12.000000000000
         N           -2.189452306118     0.670631385249     0.016087328254    14.003074004430
         C           -2.679713306118    -0.559108614751     0.003185328254    12.000000000000
         N           -1.701819306118    -1.525041614751    -0.004626671746    14.003074004430
         N            3.018151693882    -0.999077614751    -0.077056671746    14.003074004430
         H            2.292269693882     1.397248385249    -0.101824671746     1.007825032230
         H           -3.732450306118    -0.810569614751    -0.000722671746     1.007825032230
         H           -1.824417306118    -2.530919614751    -0.018349671746     1.007825032230
         H            3.091283693882    -2.000753614751     0.070710328254     1.007825032230
         H            3.670626693882    -0.481667614751     0.503145328254     1.007825032230

  Basis Set: AUG-CC-PVTZ
    Blend: AUG-CC-PVTZ
  Basis Set: (AUG-CC-PVTZ AUX)
    Blend: AUG-CC-PVTZ-JKFIT
	 Reference Energy          =    -539.5615706232312050 [Eh]
	 Singles Energy            =      -0.0000000000000000 [Eh]
	 Same-Spin Energy          =      -0.5747309153301647 [Eh]
	 Opposite-Spin Energy      =      -1.6679408483387648 [Eh]
	 Correlation Energy        =      -2.2426717636689295 [Eh]
	 Total Energy              =    -541.8042423869001141 [Eh]

	 ================> DF-SCS-MP2 Energies <==================
	-----------------------------------------------------------
	 SCS Same-Spin Scale       =       0.3333333333333333 [-]
	 SCS Opposite-Spin Scale   =       1.2000000000000000 [-]
	 SCS Same-Spin Energy      =      -0.1915769717767216 [Eh]
	 SCS Opposite-Spin Energy  =      -2.0015290180065177 [Eh]
	 SCS Correlation Energy    =      -2.1931059897832395 [Eh]
	 SCS Total Energy          =    -541.7546766130144533 [Eh]
	-----------------------------------------------------------

  Dipole Moment: [D]
     X:     3.2235      Y:    -5.3763      Z:     0.8303     Total:     6.3233

*** Psi4 exiting successfully. Buy a developer a beer!
