                               Psi4 1.4a3.dev225

  ==> Input File <==

--------------------------------------------------------------------------
#psi4
#
memory 32 gb

molecule  {
0 1
  O        0.1763800     2.6970850    -0.0086780
  C        0.2088860     1.4725900     0.0042210
  N        1.4659360     0.7906750    -0.0050880
  C        1.6696170    -0.5667500     0.0018210
  N        0.7040680    -1.4531450     0.0111020
  C       -0.5247290    -0.8567090    -0.0037110
  C       -0.8535850     0.4975420     0.0152200
  N       -2.2178950     0.6873840     0.0133320
  C       -2.7081200    -0.5423560     0.0003580
  N       -1.7302140    -1.5082770    -0.0075250
  N        2.9897250    -0.9823190    -0.0798750
  H        2.3030095     1.4446718    -0.1097653
  H       -3.7608500    -0.7938460    -0.0035590
  H       -1.8527810    -2.5141570    -0.0214260
  H        3.0628080    -1.9839860     0.0679760
  H        3.6422460    -0.4648460     0.5002060
units angstrom
no_reorient  #important for SAPT in psi4, default
symmetry c1  #important for SAPT in psi4, default
}

set PROPERTIES_ORIGIN ["COM"]
properties('MP2/aug-cc-pvtz', properties = ['dipole'])
--------------------------------------------------------------------------

    Molecular point group: c1
  Charge       = 0
  Multiplicity = 1
  Basis Set: AUG-CC-PVTZ
    Blend: AUG-CC-PVTZ
  Basis Set: (AUG-CC-PVTZ AUX)
    Blend: AUG-CC-PVTZ-JKFIT

    Orbital Energies [Eh]
    ---------------------

    Doubly Occupied:

       1A    -20.524010     2A    -15.636022     3A    -15.635836
       4A    -15.611973     5A    -15.573339     6A    -15.565158
       7A    -11.398234     8A    -11.367803     9A    -11.327361
      10A    -11.314147    11A    -11.251379    12A     -1.392267
      13A     -1.360678    14A     -1.334798    15A     -1.219546
      16A     -1.215362    17A     -1.177319    18A     -1.030892
      19A     -0.904960    20A     -0.882778    21A     -0.844550
      22A     -0.797609    23A     -0.731646    24A     -0.729591
      25A     -0.699769    26A     -0.672853    27A     -0.655733
      28A     -0.632087    29A     -0.614356    30A     -0.600206
      31A     -0.596120    32A     -0.547539    33A     -0.499249
      34A     -0.462245    35A     -0.442890    36A     -0.432885
      37A     -0.431835    38A     -0.411964    39A     -0.302711

  @DF-RHF Final Energy:  -539.58374771997762

   => Energetics <=

    Nuclear Repulsion Energy =            593.3378868816458862
    One-Electron Energy =               -1912.1838678843053003
    Two-Electron Energy =                 779.2622332826816773
    Total Energy =                       -539.5837477199776231
  Basis Set: (AUG-CC-PVTZ AUX)
    Blend: AUG-CC-PVTZ-RI
    Molecular point group: c1

    Geometry (in Angstrom), charge = 0, multiplicity = 1:

       Center              X                  Y                   Z               Mass
    ------------   -----------------  -----------------  -----------------  -----------------
         O            0.198138379558     2.668495581684    -0.005764795964    15.994914619570
         C            0.230644379558     1.444000581684     0.007134204036    12.000000000000
         N            1.487694379558     0.762085581684    -0.002174795964    14.003074004430
         C            1.691375379558    -0.595339418316     0.004734204036    12.000000000000
         N            0.725826379558    -1.481734418316     0.014015204036    14.003074004430
         C           -0.502970620442    -0.885298418316    -0.000797795964    12.000000000000
         C           -0.831826620442     0.468952581684     0.018133204036    12.000000000000
         N           -2.196136620442     0.658794581684     0.016245204036    14.003074004430
         C           -2.686361620442    -0.570945418316     0.003271204036    12.000000000000
         N           -1.708455620442    -1.536866418316    -0.004611795964    14.003074004430
         N            3.011483379558    -1.010908418316    -0.076961795964    14.003074004430
         H            2.324767879558     1.416082381684    -0.106852095964     1.007825032230
         H           -3.739091620442    -0.822435418316    -0.000645795964     1.007825032230
         H           -1.831022620442    -2.542746418316    -0.018512795964     1.007825032230
         H            3.084566379558    -2.012575418316     0.070889204036     1.007825032230
         H            3.664004379558    -0.493435418316     0.503119204036     1.007825032230

  Basis Set: AUG-CC-PVTZ
    Blend: AUG-CC-PVTZ
  Basis Set: (AUG-CC-PVTZ AUX)
    Blend: AUG-CC-PVTZ-JKFIT
	 Reference Energy          =    -539.5837477199776231 [Eh]
	 Singles Energy            =      -0.0000000000000000 [Eh]
	 Same-Spin Energy          =      -0.5734862372780801 [Eh]
	 Opposite-Spin Energy      =      -1.6641554049745400 [Eh]
	 Correlation Energy        =      -2.2376416422526200 [Eh]
	 Total Energy              =    -541.8213893622302066 [Eh]

	 ================> DF-SCS-MP2 Energies <==================
	-----------------------------------------------------------
	 SCS Same-Spin Scale       =       0.3333333333333333 [-]
	 SCS Opposite-Spin Scale   =       1.2000000000000000 [-]
	 SCS Same-Spin Energy      =      -0.1911620790926934 [Eh]
	 SCS Opposite-Spin Energy  =      -1.9969864859694479 [Eh]
	 SCS Correlation Energy    =      -2.1881485650621415 [Eh]
	 SCS Total Energy          =    -541.7718962850398157 [Eh]
	-----------------------------------------------------------

  Dipole Moment: [D]
     X:     2.7089      Y:    -5.5974      Z:     0.8366     Total:     6.2744

*** Psi4 exiting successfully. Buy a developer a beer!
