                               Psi4 1.3.2 release

  ==> Input File <==

--------------------------------------------------------------------------
#psi4
#
memory 32 gb

molecule  {
0 1
  O        0.1763910     2.6970700    -0.0085580
  C        0.2089260     1.4725840     0.0042240
  N        1.4659430     0.7906670    -0.0052000
  C        1.6696020    -0.5667920     0.0018180
  N        0.7680864    -1.5182447     0.0052669
  C       -0.5247500    -0.8567100    -0.0036900
  C       -0.8535700     0.4975280     0.0150930
  N       -2.2178770     0.6874110     0.0132550
  C       -2.7081380    -0.5423290     0.0003530
  N       -1.7302440    -1.5082620    -0.0074590
  N        2.9897270    -0.9822980    -0.0798890
  H        2.2638450     1.4140280    -0.1046570
  H       -3.7608750    -0.7937900    -0.0035550
  H       -1.8528420    -2.5141400    -0.0211820
  H        3.0628590    -1.9839740     0.0678780
  H        3.6422020    -0.4648880     0.5003130
units angstrom
no_reorient  #important for SAPT in psi4, default
symmetry c1  #important for SAPT in psi4, default
}

set PROPERTIES_ORIGIN ["COM"]
properties('MP2/aug-cc-pvtz', properties = ['dipole'])
--------------------------------------------------------------------------

    Molecular point group: c1
  Charge       = 0
  Multiplicity = 1
  Basis Set: AUG-CC-PVTZ
    Blend: AUG-CC-PVTZ
  Basis Set: (AUG-CC-PVTZ AUX)
    Blend: AUG-CC-PVTZ-JKFIT

    Orbital Energies [Eh]
    ---------------------

    Doubly Occupied:

       1A    -20.529592     2A    -15.640031     3A    -15.632963
       4A    -15.605895     5A    -15.581557     6A    -15.568432
       7A    -11.395313     8A    -11.371807     9A    -11.333047
      10A    -11.316678    11A    -11.256963    12A     -1.394352
      13A     -1.361262    14A     -1.335009    15A     -1.221398
      16A     -1.203505    17A     -1.178242    18A     -1.033759
      19A     -0.907976    20A     -0.875728    21A     -0.847371
      22A     -0.793458    23A     -0.741395    24A     -0.724276
      25A     -0.699472    26A     -0.671805    27A     -0.653466
      28A     -0.621539    29A     -0.616123    30A     -0.604074
      31A     -0.596818    32A     -0.547751    33A     -0.504577
      34A     -0.455390    35A     -0.447704    36A     -0.438597
      37A     -0.431103    38A     -0.413279    39A     -0.310869

  @DF-RHF Final Energy:  -539.57826994329264

   => Energetics <=

    Nuclear Repulsion Energy =            591.5545574710720302
    One-Electron Energy =               -1908.5404989707317327
    Two-Electron Energy =                 777.4076715563670632
    Total Energy =                       -539.5782699432926393
  Basis Set: (AUG-CC-PVTZ AUX)
    Blend: AUG-CC-PVTZ-RI
    Molecular point group: c1

    Geometry (in Angstrom), charge = 0, multiplicity = 1:

       Center              X                  Y                   Z               Mass
    ------------   -----------------  -----------------  -----------------  -----------------
         O            0.192475410046     2.674719188805    -0.005130837750    15.994914619570
         C            0.225010410046     1.450233188805     0.007651162250    12.000000000000
         N            1.482027410046     0.768316188805    -0.001772837750    14.003074004430
         C            1.685686410046    -0.589142811195     0.005245162250    12.000000000000
         N            0.784170810046    -1.540595511195     0.008694062250    14.003074004430
         C           -0.508665589954    -0.879060811195    -0.000262837750    12.000000000000
         C           -0.837485589954     0.475177188805     0.018520162250    12.000000000000
         N           -2.201792589954     0.665060188805     0.016682162250    14.003074004430
         C           -2.692053589954    -0.564679811195     0.003780162250    12.000000000000
         N           -1.714159589954    -1.530612811195    -0.004031837750    14.003074004430
         N            3.005811410046    -1.004648811195    -0.076461837750    14.003074004430
         H            2.279929410046     1.391677188805    -0.101229837750     1.007825032230
         H           -3.744790589954    -0.816140811195    -0.000127837750     1.007825032230
         H           -1.836757589954    -2.536490811195    -0.017754837750     1.007825032230
         H            3.078943410046    -2.006324811195     0.071305162250     1.007825032230
         H            3.658286410046    -0.487238811195     0.503740162250     1.007825032230

  Basis Set: AUG-CC-PVTZ
    Blend: AUG-CC-PVTZ
  Basis Set: (AUG-CC-PVTZ AUX)
    Blend: AUG-CC-PVTZ-JKFIT
	 Reference Energy          =    -539.5782699432926393 [Eh]
	 Singles Energy            =      -0.0000000000000000 [Eh]
	 Same-Spin Energy          =      -0.5728029656062940 [Eh]
	 Opposite-Spin Energy      =      -1.6650682698343422 [Eh]
	 Correlation Energy        =      -2.2378712354406360 [Eh]
	 Total Energy              =    -541.8161411787332327 [Eh]

	 ================> DF-SCS-MP2 Energies <==================
	-----------------------------------------------------------
	 SCS Same-Spin Scale       =       0.3333333333333333 [-]
	 SCS Opposite-Spin Scale   =       1.2000000000000000 [-]
	 SCS Same-Spin Energy      =      -0.1909343218687646 [Eh]
	 SCS Opposite-Spin Energy  =      -1.9980819238012106 [Eh]
	 SCS Correlation Energy    =      -2.1890162456699751 [Eh]
	 SCS Total Energy          =    -541.7672861889626574 [Eh]
	-----------------------------------------------------------

  Dipole Moment: [D]
     X:     2.3770      Y:    -5.3934      Z:     0.8509     Total:     5.9551

*** Psi4 exiting successfully. Buy a developer a beer!
