                               Psi4 1.3.2 release

  ==> Input File <==

--------------------------------------------------------------------------
#psi4
#
memory 32 gb

molecule  {
0 1
  O        0.1763910     2.6970700    -0.0085580
  C        0.2089260     1.4725840     0.0042240
  N        1.4659430     0.7906670    -0.0052000
  C        1.6696020    -0.5667920     0.0018180
  N        0.7426790    -1.3659864     0.0106772
  C       -0.5247500    -0.8567100    -0.0036900
  C       -0.8535700     0.4975280     0.0150930
  N       -2.2178770     0.6874110     0.0132550
  C       -2.7081380    -0.5423290     0.0003530
  N       -1.7302440    -1.5082620    -0.0074590
  N        2.9897270    -0.9822980    -0.0798890
  H        2.2638450     1.4140280    -0.1046570
  H       -3.7608750    -0.7937900    -0.0035550
  H       -1.8528420    -2.5141400    -0.0211820
  H        3.0628590    -1.9839740     0.0678780
  H        3.6422020    -0.4648880     0.5003130
units angstrom
no_reorient  #important for SAPT in psi4, default
symmetry c1  #important for SAPT in psi4, default
}

set PROPERTIES_ORIGIN ["COM"]
properties('MP2/aug-cc-pvtz', properties = ['dipole'])
--------------------------------------------------------------------------

    Molecular point group: c1
  Charge       = 0
  Multiplicity = 1
  Basis Set: AUG-CC-PVTZ
    Blend: AUG-CC-PVTZ
  Basis Set: (AUG-CC-PVTZ AUX)
    Blend: AUG-CC-PVTZ-JKFIT

    Orbital Energies [Eh]
    ---------------------

    Doubly Occupied:

       1A    -20.523187     2A    -15.642974     3A    -15.620919
       4A    -15.603373     5A    -15.567973     6A    -15.562948
       7A    -11.379392     8A    -11.366837     9A    -11.330852
      10A    -11.317710    11A    -11.254177    12A     -1.396826
      13A     -1.363824    14A     -1.344045    15A     -1.222899
      16A     -1.214873    17A     -1.183888    18A     -1.038575
      19A     -0.910296    20A     -0.881662    21A     -0.847871
      22A     -0.807130    23A     -0.737539    24A     -0.733042
      25A     -0.697692    26A     -0.672671    27A     -0.660650
      28A     -0.644409    29A     -0.614610    30A     -0.602824
      31A     -0.599746    32A     -0.549931    33A     -0.494416
      34A     -0.462053    35A     -0.439090    36A     -0.431712
      37A     -0.428855    38A     -0.415421    39A     -0.309714

  @DF-RHF Final Energy:  -539.58301758497191

   => Energetics <=

    Nuclear Repulsion Energy =            595.9366568264438229
    One-Electron Energy =               -1917.2861356023547614
    Two-Electron Energy =                 781.7664611909390260
    Total Energy =                       -539.5830175849719126
  Basis Set: (AUG-CC-PVTZ AUX)
    Blend: AUG-CC-PVTZ-RI
    Molecular point group: c1

    Geometry (in Angstrom), charge = 0, multiplicity = 1:

       Center              X                  Y                   Z               Mass
    ------------   -----------------  -----------------  -----------------  -----------------
         O            0.194830809533     2.660604044327    -0.005632400989    15.994914619570
         C            0.227365809533     1.436118044327     0.007149599011    12.000000000000
         N            1.484382809533     0.754201044327    -0.002274400989    14.003074004430
         C            1.688041809533    -0.603257955673     0.004743599011    12.000000000000
         N            0.761118809533    -1.402452355673     0.013602799011    14.003074004430
         C           -0.506310190467    -0.893175955673    -0.000764400989    12.000000000000
         C           -0.835130190467     0.461062044327     0.018018599011    12.000000000000
         N           -2.199437190467     0.650945044327     0.016180599011    14.003074004430
         C           -2.689698190467    -0.578794955673     0.003278599011    12.000000000000
         N           -1.711804190467    -1.544727955673    -0.004533400989    14.003074004430
         N            3.008166809533    -1.018763955673    -0.076963400989    14.003074004430
         H            2.282284809533     1.377562044327    -0.101731400989     1.007825032230
         H           -3.742435190467    -0.830255955673    -0.000629400989     1.007825032230
         H           -1.834402190467    -2.550605955673    -0.018256400989     1.007825032230
         H            3.081298809533    -2.020439955673     0.070803599011     1.007825032230
         H            3.660641809533    -0.501353955673     0.503238599011     1.007825032230

  Basis Set: AUG-CC-PVTZ
    Blend: AUG-CC-PVTZ
  Basis Set: (AUG-CC-PVTZ AUX)
    Blend: AUG-CC-PVTZ-JKFIT
	 Reference Energy          =    -539.5830175849719126 [Eh]
	 Singles Energy            =      -0.0000000000000000 [Eh]
	 Same-Spin Energy          =      -0.5721732439129550 [Eh]
	 Opposite-Spin Energy      =      -1.6608107580306390 [Eh]
	 Correlation Energy        =      -2.2329840019435938 [Eh]
	 Total Energy              =    -541.8160015869154904 [Eh]

	 ================> DF-SCS-MP2 Energies <==================
	-----------------------------------------------------------
	 SCS Same-Spin Scale       =       0.3333333333333333 [-]
	 SCS Opposite-Spin Scale   =       1.2000000000000000 [-]
	 SCS Same-Spin Energy      =      -0.1907244146376517 [Eh]
	 SCS Opposite-Spin Energy  =      -1.9929729096367668 [Eh]
	 SCS Correlation Energy    =      -2.1836973242744184 [Eh]
	 SCS Total Energy          =    -541.7667149092462751 [Eh]
	-----------------------------------------------------------

  Dipole Moment: [D]
     X:     2.2853      Y:    -5.8678      Z:     0.8545     Total:     6.3548

*** Psi4 exiting successfully. Buy a developer a beer!
