                               Psi4 1.3.2 release

  ==> Input File <==

--------------------------------------------------------------------------
#psi4
#
memory 32 gb

molecule  {
0 1
  O        0.0485800     2.6869796    -0.0067425
  C        0.2089260     1.4725840     0.0042240
  N        1.4659430     0.7906670    -0.0052000
  C        1.6696020    -0.5667920     0.0018180
  N        0.7040600    -1.4531590     0.0111340
  C       -0.5247500    -0.8567100    -0.0036900
  C       -0.8535700     0.4975280     0.0150930
  N       -2.2178770     0.6874110     0.0132550
  C       -2.7081380    -0.5423290     0.0003530
  N       -1.7302440    -1.5082620    -0.0074590
  N        2.9897270    -0.9822980    -0.0798890
  H        2.2638450     1.4140280    -0.1046570
  H       -3.7608750    -0.7937900    -0.0035550
  H       -1.8528420    -2.5141400    -0.0211820
  H        3.0628590    -1.9839740     0.0678780
  H        3.6422020    -0.4648880     0.5003130
units angstrom
no_reorient  #important for SAPT in psi4, default
symmetry c1  #important for SAPT in psi4, default
}

set PROPERTIES_ORIGIN ["COM"]
properties('MP2/aug-cc-pvtz', properties = ['dipole'])
--------------------------------------------------------------------------

    Molecular point group: c1
  Charge       = 0
  Multiplicity = 1
  Basis Set: AUG-CC-PVTZ
    Blend: AUG-CC-PVTZ
  Basis Set: (AUG-CC-PVTZ AUX)
    Blend: AUG-CC-PVTZ-JKFIT

    Orbital Energies [Eh]
    ---------------------

    Doubly Occupied:

       1A    -20.525212     2A    -15.637361     3A    -15.633947
       4A    -15.613553     5A    -15.574322     6A    -15.562801
       7A    -11.400325     8A    -11.367769     9A    -11.323705
      10A    -11.312185    11A    -11.247193    12A     -1.392288
      13A     -1.358780    14A     -1.337443    15A     -1.224337
      16A     -1.218678    17A     -1.176251    18A     -1.028764
      19A     -0.905776    20A     -0.886944    21A     -0.842585
      22A     -0.799658    23A     -0.741723    24A     -0.730262
      25A     -0.700568    26A     -0.672701    27A     -0.656356
      28A     -0.634003    29A     -0.614310    30A     -0.599226
      31A     -0.595576    32A     -0.548054    33A     -0.499142
      34A     -0.463103    35A     -0.442917    36A     -0.435114
      37A     -0.429187    38A     -0.409580    39A     -0.300503

  @DF-RHF Final Energy:  -539.58400840761942

   => Energetics <=

    Nuclear Repulsion Energy =            593.8927935891313155
    One-Electron Energy =               -1913.2692016519961271
    Two-Electron Energy =                 779.7923996552453900
    Total Energy =                       -539.5840084076194216
  Basis Set: (AUG-CC-PVTZ AUX)
    Blend: AUG-CC-PVTZ-RI
    Molecular point group: c1

    Geometry (in Angstrom), charge = 0, multiplicity = 1:

       Center              X                  Y                   Z               Mass
    ------------   -----------------  -----------------  -----------------  -----------------
         O            0.084134148151     2.659663494414    -0.004051495561    15.994914619570
         C            0.244480148151     1.445267894414     0.006915004439    12.000000000000
         N            1.501497148151     0.763350894414    -0.002508995561    14.003074004430
         C            1.705156148151    -0.594108105586     0.004509004439    12.000000000000
         N            0.739614148151    -1.480475105586     0.013825004439    14.003074004430
         C           -0.489195851849    -0.884026105586    -0.000998995561    12.000000000000
         C           -0.818015851849     0.470211894414     0.017784004439    12.000000000000
         N           -2.182322851849     0.660094894414     0.015946004439    14.003074004430
         C           -2.672583851849    -0.569645105586     0.003044004439    12.000000000000
         N           -1.694689851849    -1.535578105586    -0.004767995561    14.003074004430
         N            3.025281148151    -1.009614105586    -0.077197995561    14.003074004430
         H            2.299399148151     1.386711894414    -0.101965995561     1.007825032230
         H           -3.725320851849    -0.821106105586    -0.000863995561     1.007825032230
         H           -1.817287851849    -2.541456105586    -0.018490995561     1.007825032230
         H            3.098413148151    -2.011290105586     0.070569004439     1.007825032230
         H            3.677756148151    -0.492204105586     0.503004004439     1.007825032230

  Basis Set: AUG-CC-PVTZ
    Blend: AUG-CC-PVTZ
  Basis Set: (AUG-CC-PVTZ AUX)
    Blend: AUG-CC-PVTZ-JKFIT
	 Reference Energy          =    -539.5840084076194216 [Eh]
	 Singles Energy            =      -0.0000000000000000 [Eh]
	 Same-Spin Energy          =      -0.5733825586650050 [Eh]
	 Opposite-Spin Energy      =      -1.6639336278267485 [Eh]
	 Correlation Energy        =      -2.2373161864917535 [Eh]
	 Total Energy              =    -541.8213245941111609 [Eh]

	 ================> DF-SCS-MP2 Energies <==================
	-----------------------------------------------------------
	 SCS Same-Spin Scale       =       0.3333333333333333 [-]
	 SCS Opposite-Spin Scale   =       1.2000000000000000 [-]
	 SCS Same-Spin Energy      =      -0.1911275195550017 [Eh]
	 SCS Opposite-Spin Energy  =      -1.9967203533920981 [Eh]
	 SCS Correlation Energy    =      -2.1878478729470996 [Eh]
	 SCS Total Energy          =    -541.7718562805665670 [Eh]
	-----------------------------------------------------------

  Dipole Moment: [D]
     X:     2.9469      Y:    -5.5535      Z:     0.8409     Total:     6.3430

*** Psi4 exiting successfully. Buy a developer a beer!
