                               Psi4 1.3.2 release

  ==> Input File <==

--------------------------------------------------------------------------
#psi4
#
memory 32 gb

molecule  {
0 1
  O        0.1763910     2.6970700    -0.0085580
  C        0.2089260     1.4725840     0.0042240
  N        1.4659430     0.7906670    -0.0052000
  C        1.6696020    -0.5667920     0.0018180
  N        0.7040600    -1.4531590     0.0111340
  C       -0.5247500    -0.8567100    -0.0036900
  C       -0.8535700     0.4975280     0.0150930
  N       -2.2178770     0.6874110     0.0132550
  C       -2.7081380    -0.5423290     0.0003530
  N       -1.7302440    -1.5082620    -0.0074590
  N        2.9897270    -0.9822980    -0.0798890
  H        2.1069950     1.2914889    -0.0851059
  H       -3.7608750    -0.7937900    -0.0035550
  H       -1.8528420    -2.5141400    -0.0211820
  H        3.0628590    -1.9839740     0.0678780
  H        3.6422020    -0.4648880     0.5003130
units angstrom
no_reorient  #important for SAPT in psi4, default
symmetry c1  #important for SAPT in psi4, default
}

set PROPERTIES_ORIGIN ["COM"]
properties('MP2/aug-cc-pvtz', properties = ['dipole'])
--------------------------------------------------------------------------

    Molecular point group: c1
  Charge       = 0
  Multiplicity = 1
  Basis Set: AUG-CC-PVTZ
    Blend: AUG-CC-PVTZ
  Basis Set: (AUG-CC-PVTZ AUX)
    Blend: AUG-CC-PVTZ-JKFIT

    Orbital Energies [Eh]
    ---------------------

    Doubly Occupied:

       1A    -20.526067     2A    -15.637142     3A    -15.613939
       4A    -15.612784     5A    -15.574818     6A    -15.566010
       7A    -11.400263     8A    -11.369055     9A    -11.328604
      10A    -11.315047    11A    -11.251993    12A     -1.402147
      13A     -1.362163    14A     -1.342145    15A     -1.243126
      16A     -1.220740    17A     -1.181686    18A     -1.033889
      19A     -0.924048    20A     -0.894815    21A     -0.847135
      22A     -0.809561    23A     -0.771267    24A     -0.731564
      25A     -0.702959    26A     -0.674562    27A     -0.658879
      28A     -0.638892    29A     -0.615873    30A     -0.604859
      31A     -0.598731    32A     -0.549455    33A     -0.501741
      34A     -0.463877    35A     -0.444642    36A     -0.436484
      37A     -0.433854    38A     -0.413390    39A     -0.303804

  @DF-RHF Final Energy:  -539.54468842526637

   => Energetics <=

    Nuclear Repulsion Energy =            595.1525728018863219
    One-Electron Energy =               -1915.3904945557569590
    Two-Electron Energy =                 780.6932333286041512
    Total Energy =                       -539.5446884252663722
  Basis Set: (AUG-CC-PVTZ AUX)
    Blend: AUG-CC-PVTZ-RI
    Molecular point group: c1

    Geometry (in Angstrom), charge = 0, multiplicity = 1:

       Center              X                  Y                   Z               Mass
    ------------   -----------------  -----------------  -----------------  -----------------
         O            0.199457521231     2.669503002245    -0.005805196714    15.994914619570
         C            0.231992521231     1.445017002245     0.006976803286    12.000000000000
         N            1.489009521231     0.763100002245    -0.002447196714    14.003074004430
         C            1.692668521231    -0.594358997755     0.004570803286    12.000000000000
         N            0.727126521231    -1.480725997755     0.013886803286    14.003074004430
         C           -0.501683478769    -0.884276997755    -0.000937196714    12.000000000000
         C           -0.830503478769     0.469961002245     0.017845803286    12.000000000000
         N           -2.194810478769     0.659844002245     0.016007803286    14.003074004430
         C           -2.685071478769    -0.569895997755     0.003105803286    12.000000000000
         N           -1.707177478769    -1.535828997755    -0.004706196714    14.003074004430
         N            3.012793521231    -1.009864997755    -0.077136196714    14.003074004430
         H            2.130061521231     1.263921902245    -0.082353096714     1.007825032230
         H           -3.737808478769    -0.821356997755    -0.000802196714     1.007825032230
         H           -1.829775478769    -2.541706997755    -0.018429196714     1.007825032230
         H            3.085925521231    -2.011540997755     0.070630803286     1.007825032230
         H            3.665268521231    -0.492454997755     0.503065803286     1.007825032230

  Basis Set: AUG-CC-PVTZ
    Blend: AUG-CC-PVTZ
  Basis Set: (AUG-CC-PVTZ AUX)
    Blend: AUG-CC-PVTZ-JKFIT
	 Reference Energy          =    -539.5446884252663722 [Eh]
	 Singles Energy            =      -0.0000000000000000 [Eh]
	 Same-Spin Energy          =      -0.5715257703525568 [Eh]
	 Opposite-Spin Energy      =      -1.6605809573058838 [Eh]
	 Correlation Energy        =      -2.2321067276584405 [Eh]
	 Total Energy              =    -541.7767951529248194 [Eh]

	 ================> DF-SCS-MP2 Energies <==================
	-----------------------------------------------------------
	 SCS Same-Spin Scale       =       0.3333333333333333 [-]
	 SCS Opposite-Spin Scale   =       1.2000000000000000 [-]
	 SCS Same-Spin Energy      =      -0.1905085901175189 [Eh]
	 SCS Opposite-Spin Energy  =      -1.9926971487670606 [Eh]
	 SCS Correlation Energy    =      -2.1832057388845794 [Eh]
	 SCS Total Energy          =    -541.7278941641509391 [Eh]
	-----------------------------------------------------------

  Dipole Moment: [D]
     X:     2.5061      Y:    -5.7791      Z:     0.8692     Total:     6.3588

*** Psi4 exiting successfully. Buy a developer a beer!
