                               Psi4 1.4a3.dev225

  ==> Input File <==

--------------------------------------------------------------------------
#psi4
#
memory 32 gb

molecule  {
0 1
  O        0.1763800     2.6970850    -0.0086780
  C        0.2088860     1.4725900     0.0042210
  N        1.4659360     0.7906750    -0.0050880
  C        1.6696170    -0.5667500     0.0018210
  N        0.7040680    -1.4531450     0.0111020
  C       -0.5247290    -0.8567090    -0.0037110
  C       -0.8488659     0.4781086     0.0149483
  N       -2.2178950     0.6873840     0.0133320
  C       -2.7081200    -0.5423560     0.0003580
  N       -1.7302140    -1.5082770    -0.0075250
  N        2.9897250    -0.9823190    -0.0798750
  H        2.2637990     1.4140370    -0.1048620
  H       -3.7608500    -0.7938460    -0.0035590
  H       -1.8527810    -2.5141570    -0.0214260
  H        3.0628080    -1.9839860     0.0679760
  H        3.6422460    -0.4648460     0.5002060
units angstrom
no_reorient  #important for SAPT in psi4, default
symmetry c1  #important for SAPT in psi4, default
}

set PROPERTIES_ORIGIN ["COM"]
properties('MP2/aug-cc-pvtz', properties = ['dipole'])
--------------------------------------------------------------------------

    Molecular point group: c1
  Charge       = 0
  Multiplicity = 1
  Basis Set: AUG-CC-PVTZ
    Blend: AUG-CC-PVTZ
  Basis Set: (AUG-CC-PVTZ AUX)
    Blend: AUG-CC-PVTZ-JKFIT

    Orbital Energies [Eh]
    ---------------------

    Doubly Occupied:

       1A    -20.526576     2A    -15.634809     3A    -15.631704
       4A    -15.612074     5A    -15.572861     6A    -15.565137
       7A    -11.398209     8A    -11.369683     9A    -11.324692
      10A    -11.314492    11A    -11.250492    12A     -1.394172
      13A     -1.361703    14A     -1.335819    15A     -1.220798
      16A     -1.217775    17A     -1.176591    18A     -1.032901
      19A     -0.906010    20A     -0.884864    21A     -0.845223
      22A     -0.799024    23A     -0.739523    24A     -0.729264
      25A     -0.701754    26A     -0.674270    27A     -0.656504
      28A     -0.632922    29A     -0.616218    30A     -0.599368
      31A     -0.595827    32A     -0.547785    33A     -0.499318
      34A     -0.462257    35A     -0.443553    36A     -0.435250
      37A     -0.432773    38A     -0.411330    39A     -0.305430

  @DF-RHF Final Energy:  -539.58761285149592

   => Energetics <=

    Nuclear Repulsion Energy =            593.8361727255676215
    One-Electron Energy =               -1913.1296654912050599
    Two-Electron Energy =                 779.7058799141415193
    Total Energy =                       -539.5876128514959191
  Basis Set: (AUG-CC-PVTZ AUX)
    Blend: AUG-CC-PVTZ-RI
    Molecular point group: c1

    Geometry (in Angstrom), charge = 0, multiplicity = 1:

       Center              X                  Y                   Z               Mass
    ------------   -----------------  -----------------  -----------------  -----------------
         O            0.198025092941     2.670243852787    -0.005775926550    15.994914619570
         C            0.230531092941     1.445748852787     0.007123073450    12.000000000000
         N            1.487581092941     0.763833852787    -0.002185926550    14.003074004430
         C            1.691262092941    -0.593591147213     0.004723073450    12.000000000000
         N            0.725713092941    -1.479986147213     0.014004073450    14.003074004430
         C           -0.503083907059    -0.883550147213    -0.000808926550    12.000000000000
         C           -0.827220807059     0.451267452787     0.017850373450    12.000000000000
         N           -2.196249907059     0.660542852787     0.016234073450    14.003074004430
         C           -2.686474907059    -0.569197147213     0.003260073450    12.000000000000
         N           -1.708568907059    -1.535118147213    -0.004622926550    14.003074004430
         N            3.011370092941    -1.009160147213    -0.076972926550    14.003074004430
         H            2.285444092941     1.387195852787    -0.101959926550     1.007825032230
         H           -3.739204907059    -0.820687147213    -0.000656926550     1.007825032230
         H           -1.831135907059    -2.540998147213    -0.018523926550     1.007825032230
         H            3.084453092941    -2.010827147213     0.070878073450     1.007825032230
         H            3.663891092941    -0.491687147213     0.503108073450     1.007825032230

  Basis Set: AUG-CC-PVTZ
    Blend: AUG-CC-PVTZ
  Basis Set: (AUG-CC-PVTZ AUX)
    Blend: AUG-CC-PVTZ-JKFIT
	 Reference Energy          =    -539.5876128514959191 [Eh]
	 Singles Energy            =      -0.0000000000000000 [Eh]
	 Same-Spin Energy          =      -0.5726974427889493 [Eh]
	 Opposite-Spin Energy      =      -1.6629568387295250 [Eh]
	 Correlation Energy        =      -2.2356542815184746 [Eh]
	 Total Energy              =    -541.8232671330143830 [Eh]

	 ================> DF-SCS-MP2 Energies <==================
	-----------------------------------------------------------
	 SCS Same-Spin Scale       =       0.3333333333333333 [-]
	 SCS Opposite-Spin Scale   =       1.2000000000000000 [-]
	 SCS Same-Spin Energy      =      -0.1908991475963164 [Eh]
	 SCS Opposite-Spin Energy  =      -1.9955482064754300 [Eh]
	 SCS Correlation Energy    =      -2.1864473540717464 [Eh]
	 SCS Total Energy          =    -541.7740602055677073 [Eh]
	-----------------------------------------------------------

  Dipole Moment: [D]
     X:     2.6882      Y:    -5.5857      Z:     0.8431     Total:     6.2559

*** Psi4 exiting successfully. Buy a developer a beer!
