                               Psi4 1.3.2 release

  ==> Input File <==

--------------------------------------------------------------------------
#psi4
#
memory 32 gb

molecule  {
0 1
  O        0.1763910     2.6970700    -0.0085580
  C        0.2089260     1.4725840     0.0042240
  N        1.4659430     0.7906670    -0.0052000
  C        1.6696020    -0.5667920     0.0018180
  N        0.7040600    -1.4531590     0.0111340
  C       -0.5247500    -0.8567100    -0.0036900
  C       -0.8535700     0.4975280     0.0150930
  N       -2.4159674     0.7149810     0.0129881
  C       -2.7081380    -0.5423290     0.0003530
  N       -1.7302440    -1.5082620    -0.0074590
  N        2.9897270    -0.9822980    -0.0798890
  H        2.2638450     1.4140280    -0.1046570
  H       -3.7608750    -0.7937900    -0.0035550
  H       -1.8528420    -2.5141400    -0.0211820
  H        3.0628590    -1.9839740     0.0678780
  H        3.6422020    -0.4648880     0.5003130
units angstrom
no_reorient  #important for SAPT in psi4, default
symmetry c1  #important for SAPT in psi4, default
}

set PROPERTIES_ORIGIN ["COM"]
properties('MP2/aug-cc-pvtz', properties = ['dipole'])
--------------------------------------------------------------------------

    Molecular point group: c1
  Charge       = 0
  Multiplicity = 1
  Basis Set: AUG-CC-PVTZ
    Blend: AUG-CC-PVTZ
  Basis Set: (AUG-CC-PVTZ AUX)
    Blend: AUG-CC-PVTZ-JKFIT

    Orbital Energies [Eh]
    ---------------------

    Doubly Occupied:

       1A    -20.521349     2A    -15.634101     3A    -15.633741
       4A    -15.616438     5A    -15.581399     6A    -15.578850
       7A    -11.404629     8A    -11.368008     9A    -11.339883
      10A    -11.316361    11A    -11.260158    12A     -1.392236
      13A     -1.356909    14A     -1.333745    15A     -1.224163
      16A     -1.220055    17A     -1.169056    18A     -1.036303
      19A     -0.906458    20A     -0.889604    21A     -0.830617
      22A     -0.801290    23A     -0.738321    24A     -0.727604
      25A     -0.703232    26A     -0.674178    27A     -0.656013
      28A     -0.634725    29A     -0.612052    30A     -0.597683
      31A     -0.565326    32A     -0.547652    33A     -0.502928
      34A     -0.466774    35A     -0.446168    36A     -0.436929
      37A     -0.434441    38A     -0.401546    39A     -0.318992

  @DF-RHF Final Energy:  -539.56209912984832

   => Energetics <=

    Nuclear Repulsion Energy =            588.9189784982203264
    One-Electron Energy =               -1903.2023229014353092
    Two-Electron Energy =                 774.7212452733665486
    Total Energy =                       -539.5620991298483204
  Basis Set: (AUG-CC-PVTZ AUX)
    Blend: AUG-CC-PVTZ-RI
    Molecular point group: c1

    Geometry (in Angstrom), charge = 0, multiplicity = 1:

       Center              X                  Y                   Z               Mass
    ------------   -----------------  -----------------  -----------------  -----------------
         O            0.216775014744     2.666129518539    -0.005650005717    15.994914619570
         C            0.249310014744     1.441643518539     0.007131994283    12.000000000000
         N            1.506327014744     0.759726518539    -0.002292005717    14.003074004430
         C            1.709986014744    -0.597732481461     0.004725994283    12.000000000000
         N            0.744444014744    -1.484099481461     0.014041994283    14.003074004430
         C           -0.484365985256    -0.887650481461    -0.000782005717    12.000000000000
         C           -0.813185985256     0.466587518539     0.018000994283    12.000000000000
         N           -2.375583385256     0.684040518539     0.015896094283    14.003074004430
         C           -2.667753985256    -0.573269481461     0.003260994283    12.000000000000
         N           -1.689859985256    -1.539202481461    -0.004551005717    14.003074004430
         N            3.030111014744    -1.013238481461    -0.076981005717    14.003074004430
         H            2.304229014744     1.383087518539    -0.101749005717     1.007825032230
         H           -3.720490985256    -0.824730481461    -0.000647005717     1.007825032230
         H           -1.812457985256    -2.545080481461    -0.018274005717     1.007825032230
         H            3.103243014744    -2.014914481461     0.070785994283     1.007825032230
         H            3.682586014744    -0.495828481461     0.503220994283     1.007825032230

  Basis Set: AUG-CC-PVTZ
    Blend: AUG-CC-PVTZ
  Basis Set: (AUG-CC-PVTZ AUX)
    Blend: AUG-CC-PVTZ-JKFIT
	 Reference Energy          =    -539.5620991298483204 [Eh]
	 Singles Energy            =      -0.0000000000000000 [Eh]
	 Same-Spin Energy          =      -0.5710725334850648 [Eh]
	 Opposite-Spin Energy      =      -1.6645503413077725 [Eh]
	 Correlation Energy        =      -2.2356228747928375 [Eh]
	 Total Energy              =    -541.7977220046411730 [Eh]

	 ================> DF-SCS-MP2 Energies <==================
	-----------------------------------------------------------
	 SCS Same-Spin Scale       =       0.3333333333333333 [-]
	 SCS Opposite-Spin Scale   =       1.2000000000000000 [-]
	 SCS Same-Spin Energy      =      -0.1903575111616883 [Eh]
	 SCS Opposite-Spin Energy  =      -1.9974604095693269 [Eh]
	 SCS Correlation Energy    =      -2.1878179207310153 [Eh]
	 SCS Total Energy          =    -541.7499170505793700 [Eh]
	-----------------------------------------------------------

  Dipole Moment: [D]
     X:     3.0502      Y:    -5.7080      Z:     0.8414     Total:     6.5263

*** Psi4 exiting successfully. Buy a developer a beer!
