                               Psi4 1.3.2 release

  ==> Input File <==

--------------------------------------------------------------------------
#psi4
#
memory 32 gb

molecule  {
0 1
  O        0.1763910     2.6970700    -0.0085580
  C        0.2089260     1.4725840     0.0042240
  N        1.4659430     0.7906670    -0.0052000
  C        1.6696020    -0.5667920     0.0018180
  N        0.7040600    -1.4531590     0.0111340
  C       -0.5247500    -0.8567100    -0.0036900
  C       -0.8535700     0.4975280     0.0150930
  N       -2.2178770     0.6874110     0.0132550
  C       -2.7081380    -0.5423290     0.0003530
  N       -1.8000082    -1.5741195    -0.0081872
  N        2.9897270    -0.9822980    -0.0798890
  H        2.2638450     1.4140280    -0.1046570
  H       -3.7608750    -0.7937900    -0.0035550
  H       -1.8528420    -2.5141400    -0.0211820
  H        3.0628590    -1.9839740     0.0678780
  H        3.6422020    -0.4648880     0.5003130
units angstrom
no_reorient  #important for SAPT in psi4, default
symmetry c1  #important for SAPT in psi4, default
}

set PROPERTIES_ORIGIN ["COM"]
properties('MP2/aug-cc-pvtz', properties = ['dipole'])
--------------------------------------------------------------------------

    Molecular point group: c1
  Charge       = 0
  Multiplicity = 1
  Basis Set: AUG-CC-PVTZ
    Blend: AUG-CC-PVTZ
  Basis Set: (AUG-CC-PVTZ AUX)
    Blend: AUG-CC-PVTZ-JKFIT

    Orbital Energies [Eh]
    ---------------------

    Doubly Occupied:

       1A    -20.527363     2A    -15.634580     3A    -15.630327
       4A    -15.613068     5A    -15.576026     6A    -15.564827
       7A    -11.399433     8A    -11.371287     9A    -11.335931
      10A    -11.320629    11A    -11.258061    12A     -1.394325
      13A     -1.352584    14A     -1.331656    15A     -1.222317
      16A     -1.218398    17A     -1.183347    18A     -1.029754
      19A     -0.901779    20A     -0.887672    21A     -0.862904
      22A     -0.797452    23A     -0.739627    24A     -0.725615
      25A     -0.705957    26A     -0.682012    27A     -0.652653
      28A     -0.628588    29A     -0.614058    30A     -0.595769
      31A     -0.588055    32A     -0.549085    33A     -0.502920
      34A     -0.463736    35A     -0.445305    36A     -0.434699
      37A     -0.434277    38A     -0.416723    39A     -0.302506

  @DF-RHF Final Energy:  -539.57302043095524

   => Energetics <=

    Nuclear Repulsion Energy =            591.2775818062751796
    One-Electron Energy =               -1907.9105938207173949
    Two-Electron Energy =                 777.0599915834868625
    Total Energy =                       -539.5730204309552391
  Basis Set: (AUG-CC-PVTZ AUX)
    Blend: AUG-CC-PVTZ-RI
    Molecular point group: c1

    Geometry (in Angstrom), charge = 0, multiplicity = 1:

       Center              X                  Y                   Z               Mass
    ------------   -----------------  -----------------  -----------------  -----------------
         O            0.204878501692     2.674790738720    -0.005607240783    15.994914619570
         C            0.237413501692     1.450304738720     0.007174759217    12.000000000000
         N            1.494430501692     0.768387738720    -0.002249240783    14.003074004430
         C            1.698089501692    -0.589071261280     0.004768759217    12.000000000000
         N            0.732547501692    -1.475438261280     0.014084759217    14.003074004430
         C           -0.496262498308    -0.878989261280    -0.000739240783    12.000000000000
         C           -0.825082498308     0.475248738720     0.018043759217    12.000000000000
         N           -2.189389498308     0.665131738720     0.016205759217    14.003074004430
         C           -2.679650498308    -0.564608261280     0.003303759217    12.000000000000
         N           -1.771520698308    -1.596398761280    -0.005236440783    14.003074004430
         N            3.018214501692    -1.004577261280    -0.076938240783    14.003074004430
         H            2.292332501692     1.391748738720    -0.101706240783     1.007825032230
         H           -3.732387498308    -0.816069261280    -0.000604240783     1.007825032230
         H           -1.824354498308    -2.536419261280    -0.018231240783     1.007825032230
         H            3.091346501692    -2.006253261280     0.070828759217     1.007825032230
         H            3.670689501692    -0.487167261280     0.503263759217     1.007825032230

  Basis Set: AUG-CC-PVTZ
    Blend: AUG-CC-PVTZ
  Basis Set: (AUG-CC-PVTZ AUX)
    Blend: AUG-CC-PVTZ-JKFIT
	 Reference Energy          =    -539.5730204309552391 [Eh]
	 Singles Energy            =      -0.0000000000000000 [Eh]
	 Same-Spin Energy          =      -0.5728615575919317 [Eh]
	 Opposite-Spin Energy      =      -1.6644864292308603 [Eh]
	 Correlation Energy        =      -2.2373479868227921 [Eh]
	 Total Energy              =    -541.8103684177780224 [Eh]

	 ================> DF-SCS-MP2 Energies <==================
	-----------------------------------------------------------
	 SCS Same-Spin Scale       =       0.3333333333333333 [-]
	 SCS Opposite-Spin Scale   =       1.2000000000000000 [-]
	 SCS Same-Spin Energy      =      -0.1909538525306439 [Eh]
	 SCS Opposite-Spin Energy  =      -1.9973837150770324 [Eh]
	 SCS Correlation Energy    =      -2.1883375676076762 [Eh]
	 SCS Total Energy          =    -541.7613579985629713 [Eh]
	-----------------------------------------------------------

  Dipole Moment: [D]
     X:     2.8678      Y:    -5.4274      Z:     0.8475     Total:     6.1967

*** Psi4 exiting successfully. Buy a developer a beer!
