                               Psi4 1.3.2 release

  ==> Input File <==

--------------------------------------------------------------------------
#psi4
#
memory 32 gb

molecule  {
0 1
  O        0.1763910     2.6970700    -0.0085580
  C        0.2089260     1.4725840     0.0042240
  N        1.5104461     0.8800155    -0.0057460
  C        1.6696020    -0.5667920     0.0018180
  N        0.7040600    -1.4531590     0.0111340
  C       -0.5247500    -0.8567100    -0.0036900
  C       -0.8535700     0.4975280     0.0150930
  N       -2.2178770     0.6874110     0.0132550
  C       -2.7081380    -0.5423290     0.0003530
  N       -1.7302440    -1.5082620    -0.0074590
  N        2.9897270    -0.9822980    -0.0798890
  H        2.2638450     1.4140280    -0.1046570
  H       -3.7608750    -0.7937900    -0.0035550
  H       -1.8528420    -2.5141400    -0.0211820
  H        3.0628590    -1.9839740     0.0678780
  H        3.6422020    -0.4648880     0.5003130
units angstrom
no_reorient  #important for SAPT in psi4, default
symmetry c1  #important for SAPT in psi4, default
}

set PROPERTIES_ORIGIN ["COM"]
properties('MP2/aug-cc-pvtz', properties = ['dipole'])
--------------------------------------------------------------------------

    Molecular point group: c1
  Charge       = 0
  Multiplicity = 1
  Basis Set: AUG-CC-PVTZ
    Blend: AUG-CC-PVTZ
  Basis Set: (AUG-CC-PVTZ AUX)
    Blend: AUG-CC-PVTZ-JKFIT

    Orbital Energies [Eh]
    ---------------------

    Doubly Occupied:

       1A    -20.517845     2A    -15.638671     3A    -15.622600
       4A    -15.614140     5A    -15.581351     6A    -15.567737
       7A    -11.406644     8A    -11.364786     9A    -11.329888
      10A    -11.315338    11A    -11.254289    12A     -1.388909
      13A     -1.361607    14A     -1.328062    15A     -1.221931
      16A     -1.217038    17A     -1.181378    18A     -1.030462
      19A     -0.912019    20A     -0.875354    21A     -0.846619
      22A     -0.794810    23A     -0.761422    24A     -0.726899
      25A     -0.700870    26A     -0.668839    27A     -0.653085
      28A     -0.640890    29A     -0.610287    30A     -0.603629
      31A     -0.592885    32A     -0.548437    33A     -0.503603
      34A     -0.462567    35A     -0.441591    36A     -0.431404
      37A     -0.428823    38A     -0.414637    39A     -0.304538

  @DF-RHF Final Energy:  -539.57353921590163

   => Energetics <=

    Nuclear Repulsion Energy =            591.8399954965909728
    One-Electron Energy =               -1909.0952980565555208
    Two-Electron Energy =                 777.6817633440629152
    Total Energy =                       -539.5735392159016328
  Basis Set: (AUG-CC-PVTZ AUX)
    Blend: AUG-CC-PVTZ-RI
    Molecular point group: c1

    Geometry (in Angstrom), charge = 0, multiplicity = 1:

       Center              X                  Y                   Z               Mass
    ------------   -----------------  -----------------  -----------------  -----------------
         O            0.194285322544     2.660402326963    -0.005624131680    15.994914619570
         C            0.226820322544     1.435916326963     0.007157868320    12.000000000000
         N            1.528340422544     0.843347826963    -0.002812131680    14.003074004430
         C            1.687496322544    -0.603459673037     0.004751868320    12.000000000000
         N            0.721954322544    -1.489826673037     0.014067868320    14.003074004430
         C           -0.506855677456    -0.893377673037    -0.000756131680    12.000000000000
         C           -0.835675677456     0.460860326963     0.018026868320    12.000000000000
         N           -2.199982677456     0.650743326963     0.016188868320    14.003074004430
         C           -2.690243677456    -0.578996673037     0.003286868320    12.000000000000
         N           -1.712349677456    -1.544929673037    -0.004525131680    14.003074004430
         N            3.007621322544    -1.018965673037    -0.076955131680    14.003074004430
         H            2.281739322544     1.377360326963    -0.101723131680     1.007825032230
         H           -3.742980677456    -0.830457673037    -0.000621131680     1.007825032230
         H           -1.834947677456    -2.550807673037    -0.018248131680     1.007825032230
         H            3.080753322544    -2.020641673037     0.070811868320     1.007825032230
         H            3.660096322544    -0.501555673037     0.503246868320     1.007825032230

  Basis Set: AUG-CC-PVTZ
    Blend: AUG-CC-PVTZ
  Basis Set: (AUG-CC-PVTZ AUX)
    Blend: AUG-CC-PVTZ-JKFIT
	 Reference Energy          =    -539.5735392159016328 [Eh]
	 Singles Energy            =      -0.0000000000000000 [Eh]
	 Same-Spin Energy          =      -0.5720283326327033 [Eh]
	 Opposite-Spin Energy      =      -1.6629410782713969 [Eh]
	 Correlation Energy        =      -2.2349694109041001 [Eh]
	 Total Energy              =    -541.8085086268057466 [Eh]

	 ================> DF-SCS-MP2 Energies <==================
	-----------------------------------------------------------
	 SCS Same-Spin Scale       =       0.3333333333333333 [-]
	 SCS Opposite-Spin Scale   =       1.2000000000000000 [-]
	 SCS Same-Spin Energy      =      -0.1906761108775678 [Eh]
	 SCS Opposite-Spin Energy  =      -1.9955292939256761 [Eh]
	 SCS Correlation Energy    =      -2.1862054048032440 [Eh]
	 SCS Total Energy          =    -541.7597446207048506 [Eh]
	-----------------------------------------------------------

  Dipole Moment: [D]
     X:     2.5830      Y:    -5.9355      Z:     0.8300     Total:     6.5262

*** Psi4 exiting successfully. Buy a developer a beer!
