                               Psi4 1.3.2 release

  ==> Input File <==

--------------------------------------------------------------------------
#psi4
#
memory 32 gb

molecule  {
0 1
  O        0.1763910     2.6970700    -0.0085580
  C        0.1445452     1.3374546     0.0058720
  N        1.4659430     0.7906670    -0.0052000
  C        1.6696020    -0.5667920     0.0018180
  N        0.7040600    -1.4531590     0.0111340
  C       -0.5247500    -0.8567100    -0.0036900
  C       -0.8535700     0.4975280     0.0150930
  N       -2.2178770     0.6874110     0.0132550
  C       -2.7081380    -0.5423290     0.0003530
  N       -1.7302440    -1.5082620    -0.0074590
  N        2.9897270    -0.9822980    -0.0798890
  H        2.2638450     1.4140280    -0.1046570
  H       -3.7608750    -0.7937900    -0.0035550
  H       -1.8528420    -2.5141400    -0.0211820
  H        3.0628590    -1.9839740     0.0678780
  H        3.6422020    -0.4648880     0.5003130
units angstrom
no_reorient  #important for SAPT in psi4, default
symmetry c1  #important for SAPT in psi4, default
}

set PROPERTIES_ORIGIN ["COM"]
properties('MP2/aug-cc-pvtz', properties = ['dipole'])
--------------------------------------------------------------------------

    Molecular point group: c1
  Charge       = 0
  Multiplicity = 1
  Basis Set: AUG-CC-PVTZ
    Blend: AUG-CC-PVTZ
  Basis Set: (AUG-CC-PVTZ AUX)
    Blend: AUG-CC-PVTZ-JKFIT

    Orbital Energies [Eh]
    ---------------------

    Doubly Occupied:

       1A    -20.488153     2A    -15.648691     3A    -15.639512
       4A    -15.617677     5A    -15.585302     6A    -15.575499
       7A    -11.404939     8A    -11.355433     9A    -11.349540
      10A    -11.329172    11A    -11.250712    12A     -1.392435
      13A     -1.354323    14A     -1.286716    15A     -1.229097
      16A     -1.202842    17A     -1.191327    18A     -1.064227
      19A     -0.932284    20A     -0.885859    21A     -0.857911
      22A     -0.804988    23A     -0.757273    24A     -0.739820
      25A     -0.704820    26A     -0.679887    27A     -0.666529
      28A     -0.645904    29A     -0.617539    30A     -0.603544
      31A     -0.550981    32A     -0.529358    33A     -0.508808
      34A     -0.469405    35A     -0.445019    36A     -0.426692
      37A     -0.406730    38A     -0.404148    39A     -0.315062

  @DF-RHF Final Energy:  -539.54312276616258

   => Energetics <=

    Nuclear Repulsion Energy =            594.9278039769732231
    One-Electron Energy =               -1915.1055338020933050
    Two-Electron Energy =                 780.6346070589573856
    Total Energy =                       -539.5431227661625826
  Basis Set: (AUG-CC-PVTZ AUX)
    Blend: AUG-CC-PVTZ-RI
    Molecular point group: c1

    Geometry (in Angstrom), charge = 0, multiplicity = 1:

       Center              X                  Y                   Z               Mass
    ------------   -----------------  -----------------  -----------------  -----------------
         O            0.203525675119     2.679420649917    -0.005805672796    15.994914619570
         C            0.171679875119     1.319805249917     0.008624327204    12.000000000000
         N            1.493077675119     0.773017649917    -0.002447672796    14.003074004430
         C            1.696736675119    -0.584441350083     0.004570327204    12.000000000000
         N            0.731194675119    -1.470808350083     0.013886327204    14.003074004430
         C           -0.497615324881    -0.874359350083    -0.000937672796    12.000000000000
         C           -0.826435324881     0.479878649917     0.017845327204    12.000000000000
         N           -2.190742324881     0.669761649917     0.016007327204    14.003074004430
         C           -2.681003324881    -0.559978350083     0.003105327204    12.000000000000
         N           -1.703109324881    -1.525911350083    -0.004706672796    14.003074004430
         N            3.016861675119    -0.999947350083    -0.077136672796    14.003074004430
         H            2.290979675119     1.396378649917    -0.101904672796     1.007825032230
         H           -3.733740324881    -0.811439350083    -0.000802672796     1.007825032230
         H           -1.825707324881    -2.531789350083    -0.018429672796     1.007825032230
         H            3.089993675119    -2.001623350083     0.070630327204     1.007825032230
         H            3.669336675119    -0.482537350083     0.503065327204     1.007825032230

  Basis Set: AUG-CC-PVTZ
    Blend: AUG-CC-PVTZ
  Basis Set: (AUG-CC-PVTZ AUX)
    Blend: AUG-CC-PVTZ-JKFIT
	 Reference Energy          =    -539.5431227661625826 [Eh]
	 Singles Energy            =      -0.0000000000000000 [Eh]
	 Same-Spin Energy          =      -0.5756442781164890 [Eh]
	 Opposite-Spin Energy      =      -1.6683319030161203 [Eh]
	 Correlation Energy        =      -2.2439761811326093 [Eh]
	 Total Energy              =    -541.7870989472951351 [Eh]

	 ================> DF-SCS-MP2 Energies <==================
	-----------------------------------------------------------
	 SCS Same-Spin Scale       =       0.3333333333333333 [-]
	 SCS Opposite-Spin Scale   =       1.2000000000000000 [-]
	 SCS Same-Spin Energy      =      -0.1918814260388297 [Eh]
	 SCS Opposite-Spin Energy  =      -2.0019982836193444 [Eh]
	 SCS Correlation Energy    =      -2.1938797096581739 [Eh]
	 SCS Total Energy          =    -541.7370024758207592 [Eh]
	-----------------------------------------------------------

  Dipole Moment: [D]
     X:     2.4069      Y:    -6.9497      Z:     0.8467     Total:     7.4032

*** Psi4 exiting successfully. Buy a developer a beer!
