                               Psi4 1.3.2 release

  ==> Input File <==

--------------------------------------------------------------------------
#psi4
#
memory 32 gb

molecule  {
0 1
  O        0.1763910     2.6970700    -0.0085580
  C        0.2089260     1.4725840     0.0042240
  N        1.4659430     0.7906670    -0.0052000
  C        1.6696020    -0.5667920     0.0018180
  N        0.7040600    -1.4531590     0.0111340
  C       -0.6147071    -0.8130460    -0.0047752
  C       -0.8535700     0.4975280     0.0150930
  N       -2.2178770     0.6874110     0.0132550
  C       -2.7081380    -0.5423290     0.0003530
  N       -1.7302440    -1.5082620    -0.0074590
  N        2.9897270    -0.9822980    -0.0798890
  H        2.2638450     1.4140280    -0.1046570
  H       -3.7608750    -0.7937900    -0.0035550
  H       -1.8528420    -2.5141400    -0.0211820
  H        3.0628590    -1.9839740     0.0678780
  H        3.6422020    -0.4648880     0.5003130
units angstrom
no_reorient  #important for SAPT in psi4, default
symmetry c1  #important for SAPT in psi4, default
}

set PROPERTIES_ORIGIN ["COM"]
properties('MP2/aug-cc-pvtz', properties = ['dipole'])
--------------------------------------------------------------------------

    Molecular point group: c1
  Charge       = 0
  Multiplicity = 1
  Basis Set: AUG-CC-PVTZ
    Blend: AUG-CC-PVTZ
  Basis Set: (AUG-CC-PVTZ AUX)
    Blend: AUG-CC-PVTZ-JKFIT

    Orbital Energies [Eh]
    ---------------------

    Doubly Occupied:

       1A    -20.530715     2A    -15.640462     3A    -15.627285
       4A    -15.607166     5A    -15.569920     6A    -15.567094
       7A    -11.390336     8A    -11.373353     9A    -11.320028
      10A    -11.314920    11A    -11.247744    12A     -1.397193
      13A     -1.376312    14A     -1.331432    15A     -1.217694
      16A     -1.202432    17A     -1.177729    18A     -1.039365
      19A     -0.912548    20A     -0.872823    21A     -0.854566
      22A     -0.791598    23A     -0.746972    24A     -0.726612
      25A     -0.707680    26A     -0.677755    27A     -0.657834
      28A     -0.621227    29A     -0.620155    30A     -0.604642
      31A     -0.600820    32A     -0.546166    33A     -0.493110
      34A     -0.453946    35A     -0.443722    36A     -0.435096
      37A     -0.427683    38A     -0.413640    39A     -0.316048

  @DF-RHF Final Energy:  -539.57566901241682

   => Energetics <=

    Nuclear Repulsion Energy =            594.1419912242001828
    One-Electron Energy =               -1913.7236716140569115
    Two-Electron Energy =                 780.0060113774399042
    Total Energy =                       -539.5756690124168244
  Basis Set: (AUG-CC-PVTZ AUX)
    Blend: AUG-CC-PVTZ-RI
    Molecular point group: c1

    Geometry (in Angstrom), charge = 0, multiplicity = 1:

       Center              X                  Y                   Z               Mass
    ------------   -----------------  -----------------  -----------------  -----------------
         O            0.205557563892     2.665216550724    -0.005588535900    15.994914619570
         C            0.238092563892     1.440730550724     0.007193464100    12.000000000000
         N            1.495109563892     0.758813550724    -0.002230535900    14.003074004430
         C            1.698768563892    -0.598645449276     0.004787464100    12.000000000000
         N            0.733226563892    -1.485012449276     0.014103464100    14.003074004430
         C           -0.585540536108    -0.844899449276    -0.001805735900    12.000000000000
         C           -0.824403436108     0.465674550724     0.018062464100    12.000000000000
         N           -2.188710436108     0.655557550724     0.016224464100    14.003074004430
         C           -2.678971436108    -0.574182449276     0.003322464100    12.000000000000
         N           -1.701077436108    -1.540115449276    -0.004489535900    14.003074004430
         N            3.018893563892    -1.014151449276    -0.076919535900    14.003074004430
         H            2.293011563892     1.382174550724    -0.101687535900     1.007825032230
         H           -3.731708436108    -0.825643449276    -0.000585535900     1.007825032230
         H           -1.823675436108    -2.545993449276    -0.018212535900     1.007825032230
         H            3.092025563892    -2.015827449276     0.070847464100     1.007825032230
         H            3.671368563892    -0.496741449276     0.503282464100     1.007825032230

  Basis Set: AUG-CC-PVTZ
    Blend: AUG-CC-PVTZ
  Basis Set: (AUG-CC-PVTZ AUX)
    Blend: AUG-CC-PVTZ-JKFIT
	 Reference Energy          =    -539.5756690124168244 [Eh]
	 Singles Energy            =      -0.0000000000000000 [Eh]
	 Same-Spin Energy          =      -0.5716750517853794 [Eh]
	 Opposite-Spin Energy      =      -1.6629160266601657 [Eh]
	 Correlation Energy        =      -2.2345910784455452 [Eh]
	 Total Energy              =    -541.8102600908623572 [Eh]

	 ================> DF-SCS-MP2 Energies <==================
	-----------------------------------------------------------
	 SCS Same-Spin Scale       =       0.3333333333333333 [-]
	 SCS Opposite-Spin Scale   =       1.2000000000000000 [-]
	 SCS Same-Spin Energy      =      -0.1905583505951264 [Eh]
	 SCS Opposite-Spin Energy  =      -1.9954992319921987 [Eh]
	 SCS Correlation Energy    =      -2.1860575825873250 [Eh]
	 SCS Total Energy          =    -541.7617265950041201 [Eh]
	-----------------------------------------------------------

  Dipole Moment: [D]
     X:     2.3100      Y:    -5.5084      Z:     0.8406     Total:     6.0320

*** Psi4 exiting successfully. Buy a developer a beer!
