                               Psi4 1.3.2 release

  ==> Input File <==

--------------------------------------------------------------------------
#psi4
#
memory 32 gb

molecule  {
0 1
  O        0.1763910     2.6970700    -0.0085580
  C        0.2089260     1.4725840     0.0042240
  N        1.4659430     0.7906670    -0.0052000
  C        1.6696020    -0.5667920     0.0018180
  N        0.7040600    -1.4531590     0.0111340
  C       -0.5247500    -0.8567100    -0.0036900
  C       -0.8535700     0.4975280     0.0150930
  N       -2.2178770     0.6874110     0.0132550
  C       -2.6738314    -0.5087941     0.0009585
  N       -1.7302440    -1.5082620    -0.0074590
  N        2.9897270    -0.9822980    -0.0798890
  H        2.2638450     1.4140280    -0.1046570
  H       -3.7608750    -0.7937900    -0.0035550
  H       -1.8528420    -2.5141400    -0.0211820
  H        3.0628590    -1.9839740     0.0678780
  H        3.6422020    -0.4648880     0.5003130
units angstrom
no_reorient  #important for SAPT in psi4, default
symmetry c1  #important for SAPT in psi4, default
}

set PROPERTIES_ORIGIN ["COM"]
properties('MP2/aug-cc-pvtz', properties = ['dipole'])
--------------------------------------------------------------------------

    Molecular point group: c1
  Charge       = 0
  Multiplicity = 1
  Basis Set: AUG-CC-PVTZ
    Blend: AUG-CC-PVTZ
  Basis Set: (AUG-CC-PVTZ AUX)
    Blend: AUG-CC-PVTZ-JKFIT

    Orbital Energies [Eh]
    ---------------------

    Doubly Occupied:

       1A    -20.523357     2A    -15.633373     3A    -15.631749
       4A    -15.612599     5A    -15.573596     6A    -15.562301
       7A    -11.398944     8A    -11.367128     9A    -11.328340
      10A    -11.313172    11A    -11.250890    12A     -1.394180
      13A     -1.364949    14A     -1.337724    15A     -1.222724
      16A     -1.220638    17A     -1.185394    18A     -1.032294
      19A     -0.904045    20A     -0.886370    21A     -0.844327
      22A     -0.798145    23A     -0.742437    24A     -0.728738
      25A     -0.699542    26A     -0.674412    27A     -0.657010
      28A     -0.632269    29A     -0.614316    30A     -0.601166
      31A     -0.592882    32A     -0.547731    33A     -0.501212
      34A     -0.464738    35A     -0.443613    36A     -0.434676
      37A     -0.433778    38A     -0.414436    39A     -0.305921

  @DF-RHF Final Energy:  -539.58732144408043

   => Energetics <=

    Nuclear Repulsion Energy =            594.7186555079221080
    One-Electron Energy =               -1914.8617234858234042
    Two-Electron Energy =                 780.5557465338209795
    Total Energy =                       -539.5873214440804304
  Basis Set: (AUG-CC-PVTZ AUX)
    Blend: AUG-CC-PVTZ-RI
    Molecular point group: c1

    Geometry (in Angstrom), charge = 0, multiplicity = 1:

       Center              X                  Y                   Z               Mass
    ------------   -----------------  -----------------  -----------------  -----------------
         O            0.195685533263     2.666021249002    -0.005722852214    15.994914619570
         C            0.228220533263     1.441535249002     0.007059147786    12.000000000000
         N            1.485237533263     0.759618249002    -0.002364852214    14.003074004430
         C            1.688896533263    -0.597840750998     0.004653147786    12.000000000000
         N            0.723354533263    -1.484207750998     0.013969147786    14.003074004430
         C           -0.505455466737    -0.887758750998    -0.000854852214    12.000000000000
         C           -0.834275466737     0.466479249002     0.017928147786    12.000000000000
         N           -2.198582466737     0.656362249002     0.016090147786    14.003074004430
         C           -2.654536866737    -0.539842850998     0.003793647786    12.000000000000
         N           -1.710949466737    -1.539310750998    -0.004623852214    14.003074004430
         N            3.009021533263    -1.013346750998    -0.077053852214    14.003074004430
         H            2.283139533263     1.382979249002    -0.101821852214     1.007825032230
         H           -3.741580466737    -0.824838750998    -0.000719852214     1.007825032230
         H           -1.833547466737    -2.545188750998    -0.018346852214     1.007825032230
         H            3.082153533263    -2.015022750998     0.070713147786     1.007825032230
         H            3.661496533263    -0.495936750998     0.503148147786     1.007825032230

  Basis Set: AUG-CC-PVTZ
    Blend: AUG-CC-PVTZ
  Basis Set: (AUG-CC-PVTZ AUX)
    Blend: AUG-CC-PVTZ-JKFIT
	 Reference Energy          =    -539.5873214440804304 [Eh]
	 Singles Energy            =      -0.0000000000000000 [Eh]
	 Same-Spin Energy          =      -0.5720655866508784 [Eh]
	 Opposite-Spin Energy      =      -1.6612626713554091 [Eh]
	 Correlation Energy        =      -2.2333282580062876 [Eh]
	 Total Energy              =    -541.8206497020867118 [Eh]

	 ================> DF-SCS-MP2 Energies <==================
	-----------------------------------------------------------
	 SCS Same-Spin Scale       =       0.3333333333333333 [-]
	 SCS Opposite-Spin Scale   =       1.2000000000000000 [-]
	 SCS Same-Spin Energy      =      -0.1906885288836261 [Eh]
	 SCS Opposite-Spin Energy  =      -1.9935152056264909 [Eh]
	 SCS Correlation Energy    =      -2.1842037345101168 [Eh]
	 SCS Total Energy          =    -541.7715251785905366 [Eh]
	-----------------------------------------------------------

  Dipole Moment: [D]
     X:     2.6726      Y:    -5.5893      Z:     0.8446     Total:     6.2528

*** Psi4 exiting successfully. Buy a developer a beer!
