                               Psi4 1.3.2 release

  ==> Input File <==

--------------------------------------------------------------------------
#psi4
#
memory 32 gb

molecule  {
0 1
  O        0.1763910     2.6970700    -0.0085580
  C        0.2089260     1.4725840     0.0042240
  N        1.4659430     0.7906670    -0.0052000
  C        1.6696020    -0.5667920     0.0018180
  N        0.7040600    -1.4531590     0.0111340
  C       -0.5994576    -0.7342866    -0.0016123
  C       -0.8535700     0.4975280     0.0150930
  N       -2.2178770     0.6874110     0.0132550
  C       -2.7081380    -0.5423290     0.0003530
  N       -1.7302440    -1.5082620    -0.0074590
  N        2.9897270    -0.9822980    -0.0798890
  H        2.2638450     1.4140280    -0.1046570
  H       -3.7608750    -0.7937900    -0.0035550
  H       -1.8528420    -2.5141400    -0.0211820
  H        3.0628590    -1.9839740     0.0678780
  H        3.6422020    -0.4648880     0.5003130
units angstrom
no_reorient  #important for SAPT in psi4, default
symmetry c1  #important for SAPT in psi4, default
}

set PROPERTIES_ORIGIN ["COM"]
properties('MP2/aug-cc-pvtz', properties = ['dipole'])
--------------------------------------------------------------------------

    Molecular point group: c1
  Charge       = 0
  Multiplicity = 1
  Basis Set: AUG-CC-PVTZ
    Blend: AUG-CC-PVTZ
  Basis Set: (AUG-CC-PVTZ AUX)
    Blend: AUG-CC-PVTZ-JKFIT

    Orbital Energies [Eh]
    ---------------------

    Doubly Occupied:

       1A    -20.536304     2A    -15.632809     3A    -15.628435
       4A    -15.606400     5A    -15.570782     6A    -15.562088
       7A    -11.388471     8A    -11.377282     9A    -11.317822
      10A    -11.312564    11A    -11.244057    12A     -1.398856
      13A     -1.369153    14A     -1.331688    15A     -1.218842
      16A     -1.195059    17A     -1.173650    18A     -1.053184
      19A     -0.909985    20A     -0.870609    21A     -0.851983
      22A     -0.787584    23A     -0.742073    24A     -0.723436
      25A     -0.714581    26A     -0.680283    27A     -0.656931
      28A     -0.625538    29A     -0.608782    30A     -0.605416
      31A     -0.592354    32A     -0.546386    33A     -0.495451
      34A     -0.453444    35A     -0.447104    36A     -0.437562
      37A     -0.423770    38A     -0.417014    39A     -0.327361

  @DF-RHF Final Energy:  -539.56025415765771

   => Energetics <=

    Nuclear Repulsion Energy =            594.9175216680573612
    One-Electron Energy =               -1915.2853676206154887
    Two-Electron Energy =                 780.8075917949004179
    Total Energy =                       -539.5602541576577096
  Basis Set: (AUG-CC-PVTZ AUX)
    Blend: AUG-CC-PVTZ-RI
    Molecular point group: c1

    Geometry (in Angstrom), charge = 0, multiplicity = 1:

       Center              X                  Y                   Z               Mass
    ------------   -----------------  -----------------  -----------------  -----------------
         O            0.204346079516     2.658959572949    -0.005839809970    15.994914619570
         C            0.236881079516     1.434473572949     0.006942190030    12.000000000000
         N            1.493898079516     0.752556572949    -0.002481809970    14.003074004430
         C            1.697557079516    -0.604902427051     0.004536190030    12.000000000000
         N            0.732015079516    -1.491269427051     0.013852190030    14.003074004430
         C           -0.571502520484    -0.772397027051     0.001105890030    12.000000000000
         C           -0.825614920484     0.459417572949     0.017811190030    12.000000000000
         N           -2.189921920484     0.649300572949     0.015973190030    14.003074004430
         C           -2.680182920484    -0.580439427051     0.003071190030    12.000000000000
         N           -1.702288920484    -1.546372427051    -0.004740809970    14.003074004430
         N            3.017682079516    -1.020408427051    -0.077170809970    14.003074004430
         H            2.291800079516     1.375917572949    -0.101938809970     1.007825032230
         H           -3.732919920484    -0.831900427051    -0.000836809970     1.007825032230
         H           -1.824886920484    -2.552250427051    -0.018463809970     1.007825032230
         H            3.090814079516    -2.022084427051     0.070596190030     1.007825032230
         H            3.670157079516    -0.502998427051     0.503031190030     1.007825032230

  Basis Set: AUG-CC-PVTZ
    Blend: AUG-CC-PVTZ
  Basis Set: (AUG-CC-PVTZ AUX)
    Blend: AUG-CC-PVTZ-JKFIT
	 Reference Energy          =    -539.5602541576577096 [Eh]
	 Singles Energy            =      -0.0000000000000000 [Eh]
	 Same-Spin Energy          =      -0.5707137602659719 [Eh]
	 Opposite-Spin Energy      =      -1.6631670008857029 [Eh]
	 Correlation Energy        =      -2.2338807611516747 [Eh]
	 Total Energy              =    -541.7941349188093909 [Eh]

	 ================> DF-SCS-MP2 Energies <==================
	-----------------------------------------------------------
	 SCS Same-Spin Scale       =       0.3333333333333333 [-]
	 SCS Opposite-Spin Scale   =       1.2000000000000000 [-]
	 SCS Same-Spin Energy      =      -0.1902379200886573 [Eh]
	 SCS Opposite-Spin Energy  =      -1.9958004010628434 [Eh]
	 SCS Correlation Energy    =      -2.1860383211515009 [Eh]
	 SCS Total Energy          =    -541.7462924788092096 [Eh]
	-----------------------------------------------------------

  Dipole Moment: [D]
     X:     2.4514      Y:    -5.2624      Z:     0.8445     Total:     5.8664

*** Psi4 exiting successfully. Buy a developer a beer!
