                               Psi4 1.3.2 release

  ==> Input File <==

--------------------------------------------------------------------------
#psi4
#
memory 32 gb

molecule  {
0 1
  O        0.1763910     2.6970700    -0.0085580
  C        0.2089260     1.4725840     0.0042240
  N        1.4659430     0.7906670    -0.0052000
  C        1.6696020    -0.5667920     0.0018180
  N        0.7040600    -1.4531590     0.0111340
  C       -0.5247500    -0.8567100    -0.0036900
  C       -0.8771631     0.5946956     0.0164407
  N       -2.2178770     0.6874110     0.0132550
  C       -2.7081380    -0.5423290     0.0003530
  N       -1.7302440    -1.5082620    -0.0074590
  N        2.9897270    -0.9822980    -0.0798890
  H        2.2638450     1.4140280    -0.1046570
  H       -3.7608750    -0.7937900    -0.0035550
  H       -1.8528420    -2.5141400    -0.0211820
  H        3.0628590    -1.9839740     0.0678780
  H        3.6422020    -0.4648880     0.5003130
units angstrom
no_reorient  #important for SAPT in psi4, default
symmetry c1  #important for SAPT in psi4, default
}

set PROPERTIES_ORIGIN ["COM"]
properties('MP2/aug-cc-pvtz', properties = ['dipole'])
--------------------------------------------------------------------------

    Molecular point group: c1
  Charge       = 0
  Multiplicity = 1
  Basis Set: AUG-CC-PVTZ
    Blend: AUG-CC-PVTZ
  Basis Set: (AUG-CC-PVTZ AUX)
    Blend: AUG-CC-PVTZ-JKFIT

    Orbital Energies [Eh]
    ---------------------

    Doubly Occupied:

       1A    -20.513568     2A    -15.642683     3A    -15.633447
       4A    -15.614069     5A    -15.576955     6A    -15.566499
       7A    -11.400760     8A    -11.360021     9A    -11.339631
      10A    -11.313722    11A    -11.256435    12A     -1.390916
      13A     -1.357688    14A     -1.336110    15A     -1.221502
      16A     -1.220527    17A     -1.185769    18A     -1.026240
      19A     -0.912108    20A     -0.887478    21A     -0.843377
      22A     -0.800136    23A     -0.744341    24A     -0.735976
      25A     -0.696965    26A     -0.665542    27A     -0.656085
      28A     -0.639518    29A     -0.613911    30A     -0.604959
      31A     -0.596977    32A     -0.549185    33A     -0.501890
      34A     -0.464848    35A     -0.440311    36A     -0.432348
      37A     -0.420301    38A     -0.416158    39A     -0.291757

  @DF-RHF Final Energy:  -539.57336983627874

   => Energetics <=

    Nuclear Repulsion Energy =            592.7949213557603798
    One-Electron Energy =               -1910.9951537504300632
    Two-Electron Energy =                 778.6268625583909397
    Total Energy =                       -539.5733698362787436
  Basis Set: (AUG-CC-PVTZ AUX)
    Blend: AUG-CC-PVTZ-RI
    Molecular point group: c1

    Geometry (in Angstrom), charge = 0, multiplicity = 1:

       Center              X                  Y                   Z               Mass
    ------------   -----------------  -----------------  -----------------  -----------------
         O            0.200285328793     2.660965999855    -0.005781815702    15.994914619570
         C            0.232820328793     1.436479999855     0.007000184298    12.000000000000
         N            1.489837328793     0.754562999855    -0.002423815702    14.003074004430
         C            1.693496328793    -0.602896000145     0.004594184298    12.000000000000
         N            0.727954328793    -1.489263000145     0.013910184298    14.003074004430
         C           -0.500855671207    -0.892814000145    -0.000913815702    12.000000000000
         C           -0.853268771207     0.558591599855     0.019216884298    12.000000000000
         N           -2.193982671207     0.651306999855     0.016031184298    14.003074004430
         C           -2.684243671207    -0.578433000145     0.003129184298    12.000000000000
         N           -1.706349671207    -1.544366000145    -0.004682815702    14.003074004430
         N            3.013621328793    -1.018402000145    -0.077112815702    14.003074004430
         H            2.287739328793     1.377923999855    -0.101880815702     1.007825032230
         H           -3.736980671207    -0.829894000145    -0.000778815702     1.007825032230
         H           -1.828947671207    -2.550244000145    -0.018405815702     1.007825032230
         H            3.086753328793    -2.020078000145     0.070654184298     1.007825032230
         H            3.666096328793    -0.500992000145     0.503089184298     1.007825032230

  Basis Set: AUG-CC-PVTZ
    Blend: AUG-CC-PVTZ
  Basis Set: (AUG-CC-PVTZ AUX)
    Blend: AUG-CC-PVTZ-JKFIT
	 Reference Energy          =    -539.5733698362787436 [Eh]
	 Singles Energy            =      -0.0000000000000000 [Eh]
	 Same-Spin Energy          =      -0.5748723085468821 [Eh]
	 Opposite-Spin Energy      =      -1.6649087771977720 [Eh]
	 Correlation Energy        =      -2.2397810857446538 [Eh]
	 Total Energy              =    -541.8131509220233966 [Eh]

	 ================> DF-SCS-MP2 Energies <==================
	-----------------------------------------------------------
	 SCS Same-Spin Scale       =       0.3333333333333333 [-]
	 SCS Opposite-Spin Scale   =       1.2000000000000000 [-]
	 SCS Same-Spin Energy      =      -0.1916241028489607 [Eh]
	 SCS Opposite-Spin Energy  =      -1.9978905326373262 [Eh]
	 SCS Correlation Energy    =      -2.1895146354862867 [Eh]
	 SCS Total Energy          =    -541.7628844717650054 [Eh]
	-----------------------------------------------------------

  Dipole Moment: [D]
     X:     2.5732      Y:    -5.8414      Z:     0.8455     Total:     6.4388

*** Psi4 exiting successfully. Buy a developer a beer!
