                               Psi4 1.4a3.dev225

  ==> Input File <==

--------------------------------------------------------------------------
#psi4
#
memory 32 gb

molecule  {
0 1
  O        0.1763800     2.6970850    -0.0086780
  C        0.2088860     1.4725900     0.0042210
  N        1.4659360     0.7906750    -0.0050880
  C        1.6770363    -0.6161958     0.0020727
  N        0.7040680    -1.4531450     0.0111020
  C       -0.5247290    -0.8567090    -0.0037110
  C       -0.8535850     0.4975420     0.0152200
  N       -2.2178950     0.6873840     0.0133320
  C       -2.7081200    -0.5423560     0.0003580
  N       -1.7302140    -1.5082770    -0.0075250
  N        2.9897250    -0.9823190    -0.0798750
  H        2.2637990     1.4140370    -0.1048620
  H       -3.7608500    -0.7938460    -0.0035590
  H       -1.8527810    -2.5141570    -0.0214260
  H        3.0628080    -1.9839860     0.0679760
  H        3.6422460    -0.4648460     0.5002060
units angstrom
no_reorient  #important for SAPT in psi4, default
symmetry c1  #important for SAPT in psi4, default
}

set PROPERTIES_ORIGIN ["COM"]
properties('MP2/aug-cc-pvtz', properties = ['dipole'])
--------------------------------------------------------------------------

    Molecular point group: c1
  Charge       = 0
  Multiplicity = 1
  Basis Set: AUG-CC-PVTZ
    Blend: AUG-CC-PVTZ
  Basis Set: (AUG-CC-PVTZ AUX)
    Blend: AUG-CC-PVTZ-JKFIT

    Orbital Energies [Eh]
    ---------------------

    Doubly Occupied:

       1A    -20.521715     2A    -15.637658     3A    -15.623753
       4A    -15.614452     5A    -15.574561     6A    -15.565768
       7A    -11.397647     8A    -11.364930     9A    -11.328213
      10A    -11.314562    11A    -11.252384    12A     -1.389483
      13A     -1.361042    14A     -1.336039    15A     -1.227735
      16A     -1.211841    17A     -1.178653    18A     -1.032241
      19A     -0.904828    20A     -0.880195    21A     -0.845350
      22A     -0.799312    23A     -0.739778    24A     -0.729702
      25A     -0.701361    26A     -0.669262    27A     -0.654823
      28A     -0.640953    29A     -0.612977    30A     -0.600134
      31A     -0.595330    32A     -0.550289    33A     -0.498449
      34A     -0.465148    35A     -0.440429    36A     -0.432218
      37A     -0.427363    38A     -0.412260    39A     -0.305458

  @DF-RHF Final Energy:  -539.58471976639680

   => Energetics <=

    Nuclear Repulsion Energy =            593.3749141770744018
    One-Electron Energy =               -1912.2426758694441560
    Two-Electron Energy =                 779.2830419259728387
    Total Energy =                       -539.5847197663968018
  Basis Set: (AUG-CC-PVTZ AUX)
    Blend: AUG-CC-PVTZ-RI
    Molecular point group: c1

    Geometry (in Angstrom), charge = 0, multiplicity = 1:

       Center              X                  Y                   Z               Mass
    ------------   -----------------  -----------------  -----------------  -----------------
         O            0.197810577704     2.672628163990    -0.005817507646    15.994914619570
         C            0.230316577704     1.448133163990     0.007081492354    12.000000000000
         N            1.487366577704     0.766218163990    -0.002227507646    14.003074004430
         C            1.698466877704    -0.640652636010     0.004933192354    12.000000000000
         N            0.725498577704    -1.477601836010     0.013962492354    14.003074004430
         C           -0.503298422296    -0.881165836010    -0.000850507646    12.000000000000
         C           -0.832154422296     0.473085163990     0.018080492354    12.000000000000
         N           -2.196464422296     0.662927163990     0.016192492354    14.003074004430
         C           -2.686689422296    -0.566812836010     0.003218492354    12.000000000000
         N           -1.708783422296    -1.532733836010    -0.004664507646    14.003074004430
         N            3.011155577704    -1.006775836010    -0.077014507646    14.003074004430
         H            2.285229577704     1.389580163990    -0.102001507646     1.007825032230
         H           -3.739419422296    -0.818302836010    -0.000698507646     1.007825032230
         H           -1.831350422296    -2.538613836010    -0.018565507646     1.007825032230
         H            3.084238577704    -2.008442836010     0.070836492354     1.007825032230
         H            3.663676577704    -0.489302836010     0.503066492354     1.007825032230

  Basis Set: AUG-CC-PVTZ
    Blend: AUG-CC-PVTZ
  Basis Set: (AUG-CC-PVTZ AUX)
    Blend: AUG-CC-PVTZ-JKFIT
	 Reference Energy          =    -539.5847197663968018 [Eh]
	 Singles Energy            =      -0.0000000000000000 [Eh]
	 Same-Spin Energy          =      -0.5729160295922024 [Eh]
	 Opposite-Spin Energy      =      -1.6631537367704066 [Eh]
	 Correlation Energy        =      -2.2360697663626090 [Eh]
	 Total Energy              =    -541.8207895327593633 [Eh]

	 ================> DF-SCS-MP2 Energies <==================
	-----------------------------------------------------------
	 SCS Same-Spin Scale       =       0.3333333333333333 [-]
	 SCS Opposite-Spin Scale   =       1.2000000000000000 [-]
	 SCS Same-Spin Energy      =      -0.1909720098640675 [Eh]
	 SCS Opposite-Spin Energy  =      -1.9957844841244878 [Eh]
	 SCS Correlation Energy    =      -2.1867564939885553 [Eh]
	 SCS Total Energy          =    -541.7714762603853842 [Eh]
	-----------------------------------------------------------

  Dipole Moment: [D]
     X:     2.7218      Y:    -5.8845      Z:     0.8452     Total:     6.5383

*** Psi4 exiting successfully. Buy a developer a beer!
