                               Psi4 1.4a3.dev225

  ==> Input File <==

--------------------------------------------------------------------------
#psi4
#
memory 32 gb

molecule  {
0 1
  O        0.1763800     2.6970850    -0.0086780
  C        0.2088860     1.4725900     0.0042210
  N        1.4659360     0.7906750    -0.0050880
  C        1.6696170    -0.5667500     0.0018210
  N        0.7040680    -1.4531450     0.0111020
  C       -0.4797504    -0.8785408    -0.0031688
  C       -0.8535850     0.4975420     0.0152200
  N       -2.2178950     0.6873840     0.0133320
  C       -2.7081200    -0.5423560     0.0003580
  N       -1.7302140    -1.5082770    -0.0075250
  N        2.9897250    -0.9823190    -0.0798750
  H        2.2637990     1.4140370    -0.1048620
  H       -3.7608500    -0.7938460    -0.0035590
  H       -1.8527810    -2.5141570    -0.0214260
  H        3.0628080    -1.9839860     0.0679760
  H        3.6422460    -0.4648460     0.5002060
units angstrom
no_reorient  #important for SAPT in psi4, default
symmetry c1  #important for SAPT in psi4, default
}

set PROPERTIES_ORIGIN ["COM"]
properties('MP2/aug-cc-pvtz', properties = ['dipole'])
--------------------------------------------------------------------------

    Molecular point group: c1
  Charge       = 0
  Multiplicity = 1
  Basis Set: AUG-CC-PVTZ
    Blend: AUG-CC-PVTZ
  Basis Set: (AUG-CC-PVTZ AUX)
    Blend: AUG-CC-PVTZ-JKFIT

    Orbital Energies [Eh]
    ---------------------

    Doubly Occupied:

       1A    -20.520758     2A    -15.634822     3A    -15.633276
       4A    -15.615499     5A    -15.575562     6A    -15.564156
       7A    -11.403414     8A    -11.364997     9A    -11.331450
      10A    -11.313832    11A    -11.252741    12A     -1.393885
      13A     -1.357168    14A     -1.334929    15A     -1.232112
      16A     -1.222621    17A     -1.174482    18A     -1.026809
      19A     -0.906021    20A     -0.891739    21A     -0.839746
      22A     -0.802137    23A     -0.739973    24A     -0.731918
      25A     -0.699459    26A     -0.671418    27A     -0.657476
      28A     -0.637438    29A     -0.611193    30A     -0.599216
      31A     -0.593081    32A     -0.549012    33A     -0.502724
      34A     -0.469234    35A     -0.442926    36A     -0.435754
      37A     -0.429490    38A     -0.409840    39A     -0.295743

  @DF-RHF Final Energy:  -539.58191354356586

   => Energetics <=

    Nuclear Repulsion Energy =            593.5046307746450793
    One-Electron Energy =               -1912.4369811249148370
    Two-Electron Energy =                 779.3504368067037831
    Total Energy =                       -539.5819135435658609
  Basis Set: (AUG-CC-PVTZ AUX)
    Blend: AUG-CC-PVTZ-RI
    Molecular point group: c1

    Geometry (in Angstrom), charge = 0, multiplicity = 1:

       Center              X                  Y                   Z               Mass
    ------------   -----------------  -----------------  -----------------  -----------------
         O            0.194826709044     2.670434391763    -0.005840586187    15.994914619570
         C            0.227332709044     1.445939391763     0.007058413813    12.000000000000
         N            1.484382709044     0.764024391763    -0.002250586187    14.003074004430
         C            1.688063709044    -0.593400608237     0.004658413813    12.000000000000
         N            0.722514709044    -1.479795608237     0.013939413813    14.003074004430
         C           -0.461303690956    -0.905191408237    -0.000331386187    12.000000000000
         C           -0.835138290956     0.470891391763     0.018057413813    12.000000000000
         N           -2.199448290956     0.660733391763     0.016169413813    14.003074004430
         C           -2.689673290956    -0.569006608237     0.003195413813    12.000000000000
         N           -1.711767290956    -1.534927608237    -0.004687586187    14.003074004430
         N            3.008171709044    -1.008969608237    -0.077037586187    14.003074004430
         H            2.282245709044     1.387386391763    -0.102024586187     1.007825032230
         H           -3.742403290956    -0.820496608237    -0.000721586187     1.007825032230
         H           -1.834334290956    -2.540807608237    -0.018588586187     1.007825032230
         H            3.081254709044    -2.010636608237     0.070813413813     1.007825032230
         H            3.660692709044    -0.491496608237     0.503043413813     1.007825032230

  Basis Set: AUG-CC-PVTZ
    Blend: AUG-CC-PVTZ
  Basis Set: (AUG-CC-PVTZ AUX)
    Blend: AUG-CC-PVTZ-JKFIT
	 Reference Energy          =    -539.5819135435658609 [Eh]
	 Singles Energy            =      -0.0000000000000000 [Eh]
	 Same-Spin Energy          =      -0.5740721888169160 [Eh]
	 Opposite-Spin Energy      =      -1.6639408229770773 [Eh]
	 Correlation Energy        =      -2.2380130117939934 [Eh]
	 Total Energy              =    -541.8199265553598707 [Eh]

	 ================> DF-SCS-MP2 Energies <==================
	-----------------------------------------------------------
	 SCS Same-Spin Scale       =       0.3333333333333333 [-]
	 SCS Opposite-Spin Scale   =       1.2000000000000000 [-]
	 SCS Same-Spin Energy      =      -0.1913573962723053 [Eh]
	 SCS Opposite-Spin Energy  =      -1.9967289875724927 [Eh]
	 SCS Correlation Energy    =      -2.1880863838447979 [Eh]
	 SCS Total Energy          =    -541.7699999274107086 [Eh]
	-----------------------------------------------------------

  Dipole Moment: [D]
     X:     2.8642      Y:    -5.7088      Z:     0.8450     Total:     6.4427

*** Psi4 exiting successfully. Buy a developer a beer!
