                               Psi4 1.3.2 release

  ==> Input File <==

--------------------------------------------------------------------------
#psi4
#
memory 32 gb

molecule  {
0 1
  O        0.1763910     2.6970700    -0.0085580
  C        0.2089260     1.4725840     0.0042240
  N        1.4659430     0.7906670    -0.0052000
  C        1.6696020    -0.5667920     0.0018180
  N        0.7040600    -1.4531590     0.0111340
  C       -0.5247500    -0.8567100    -0.0036900
  C       -0.8771567     0.4915823     0.0151072
  N       -2.2178770     0.6874110     0.0132550
  C       -2.7081380    -0.5423290     0.0003530
  N       -1.7302440    -1.5082620    -0.0074590
  N        2.9897270    -0.9822980    -0.0798890
  H        2.2638450     1.4140280    -0.1046570
  H       -3.7608750    -0.7937900    -0.0035550
  H       -1.8528420    -2.5141400    -0.0211820
  H        3.0628590    -1.9839740     0.0678780
  H        3.6422020    -0.4648880     0.5003130
units angstrom
no_reorient  #important for SAPT in psi4, default
symmetry c1  #important for SAPT in psi4, default
}

set PROPERTIES_ORIGIN ["COM"]
properties('MP2/aug-cc-pvtz', properties = ['dipole'])
--------------------------------------------------------------------------

    Molecular point group: c1
  Charge       = 0
  Multiplicity = 1
  Basis Set: AUG-CC-PVTZ
    Blend: AUG-CC-PVTZ
  Basis Set: (AUG-CC-PVTZ AUX)
    Blend: AUG-CC-PVTZ-JKFIT

    Orbital Energies [Eh]
    ---------------------

    Doubly Occupied:

       1A    -20.525988     2A    -15.636005     3A    -15.632374
       4A    -15.612111     5A    -15.573337     6A    -15.564395
       7A    -11.398092     8A    -11.369813     9A    -11.324650
      10A    -11.313396    11A    -11.252350    12A     -1.393834
      13A     -1.362492    14A     -1.336580    15A     -1.220359
      16A     -1.219317    17A     -1.181504    18A     -1.028470
      19A     -0.903577    20A     -0.885075    21A     -0.847350
      22A     -0.798832    23A     -0.740553    24A     -0.730323
      25A     -0.699840    26A     -0.671791    27A     -0.656047
      28A     -0.634156    29A     -0.614801    30A     -0.601636
      31A     -0.597304    32A     -0.547557    33A     -0.500845
      34A     -0.462697    35A     -0.445614    36A     -0.433166
      37A     -0.431776    38A     -0.414397    39A     -0.300317

  @DF-RHF Final Energy:  -539.58662532831397

   => Energetics <=

    Nuclear Repulsion Energy =            593.6227231602152870
    One-Electron Energy =               -1912.6932556312083307
    Two-Electron Energy =                 779.4839071426789587
    Total Energy =                       -539.5866253283139713
  Basis Set: (AUG-CC-PVTZ AUX)
    Blend: AUG-CC-PVTZ-RI
    Molecular point group: c1

    Geometry (in Angstrom), charge = 0, multiplicity = 1:

       Center              X                  Y                   Z               Mass
    ------------   -----------------  -----------------  -----------------  -----------------
         O            0.200284820350     2.669157753809    -0.005675876857    15.994914619570
         C            0.232819820350     1.444671753809     0.007106123143    12.000000000000
         N            1.489836820350     0.762754753809    -0.002317876857    14.003074004430
         C            1.693495820350    -0.594704246191     0.004700123143    12.000000000000
         N            0.727953820350    -1.481071246191     0.014016123143    14.003074004430
         C           -0.500856179650    -0.884622246191    -0.000807876857    12.000000000000
         C           -0.853262879650     0.463670053809     0.017989323143    12.000000000000
         N           -2.193983179650     0.659498753809     0.016137123143    14.003074004430
         C           -2.684244179650    -0.570241246191     0.003235123143    12.000000000000
         N           -1.706350179650    -1.536174246191    -0.004576876857    14.003074004430
         N            3.013620820350    -1.010210246191    -0.077006876857    14.003074004430
         H            2.287738820350     1.386115753809    -0.101774876857     1.007825032230
         H           -3.736981179650    -0.821702246191    -0.000672876857     1.007825032230
         H           -1.828948179650    -2.542052246191    -0.018299876857     1.007825032230
         H            3.086752820350    -2.011886246191     0.070760123143     1.007825032230
         H            3.666095820350    -0.492800246191     0.503195123143     1.007825032230

  Basis Set: AUG-CC-PVTZ
    Blend: AUG-CC-PVTZ
  Basis Set: (AUG-CC-PVTZ AUX)
    Blend: AUG-CC-PVTZ-JKFIT
	 Reference Energy          =    -539.5866253283139713 [Eh]
	 Singles Energy            =      -0.0000000000000000 [Eh]
	 Same-Spin Energy          =      -0.5732210295302138 [Eh]
	 Opposite-Spin Energy      =      -1.6632275558070329 [Eh]
	 Correlation Energy        =      -2.2364485853372464 [Eh]
	 Total Energy              =    -541.8230739136512284 [Eh]

	 ================> DF-SCS-MP2 Energies <==================
	-----------------------------------------------------------
	 SCS Same-Spin Scale       =       0.3333333333333333 [-]
	 SCS Opposite-Spin Scale   =       1.2000000000000000 [-]
	 SCS Same-Spin Energy      =      -0.1910736765100713 [Eh]
	 SCS Opposite-Spin Energy  =      -1.9958730669684392 [Eh]
	 SCS Correlation Energy    =      -2.1869467434785106 [Eh]
	 SCS Total Energy          =    -541.7735720717925005 [Eh]
	-----------------------------------------------------------

  Dipole Moment: [D]
     X:     2.6712      Y:    -5.5763      Z:     0.8444     Total:     6.2405

*** Psi4 exiting successfully. Buy a developer a beer!
