                               Psi4 1.4a3.dev225

  ==> Input File <==

--------------------------------------------------------------------------
#psi4
#
memory 32 gb

molecule  {
0 1
  O        0.1763800     2.6970850    -0.0086780
  C        0.2075592     1.5225696     0.0036945
  N        1.4659360     0.7906750    -0.0050880
  C        1.6696170    -0.5667500     0.0018210
  N        0.7040680    -1.4531450     0.0111020
  C       -0.5247290    -0.8567090    -0.0037110
  C       -0.8535850     0.4975420     0.0152200
  N       -2.2178950     0.6873840     0.0133320
  C       -2.7081200    -0.5423560     0.0003580
  N       -1.7302140    -1.5082770    -0.0075250
  N        2.9897250    -0.9823190    -0.0798750
  H        2.2637990     1.4140370    -0.1048620
  H       -3.7608500    -0.7938460    -0.0035590
  H       -1.8527810    -2.5141570    -0.0214260
  H        3.0628080    -1.9839860     0.0679760
  H        3.6422460    -0.4648460     0.5002060
units angstrom
no_reorient  #important for SAPT in psi4, default
symmetry c1  #important for SAPT in psi4, default
}

set PROPERTIES_ORIGIN ["COM"]
properties('MP2/aug-cc-pvtz', properties = ['dipole'])
--------------------------------------------------------------------------

    Molecular point group: c1
  Charge       = 0
  Multiplicity = 1
  Basis Set: AUG-CC-PVTZ
    Blend: AUG-CC-PVTZ
  Basis Set: (AUG-CC-PVTZ AUX)
    Blend: AUG-CC-PVTZ-JKFIT

    Orbital Energies [Eh]
    ---------------------

    Doubly Occupied:

       1A    -20.537418     2A    -15.633133     3A    -15.625383
       4A    -15.609226     5A    -15.568585     6A    -15.562365
       7A    -11.394929     8A    -11.369884     9A    -11.322933
      10A    -11.310418    11A    -11.250151    12A     -1.420734
      13A     -1.365417    14A     -1.334534    15A     -1.216326
      16A     -1.214362    17A     -1.174393    18A     -1.023480
      19A     -0.898716    20A     -0.880445    21A     -0.841816
      22A     -0.795062    23A     -0.732684    24A     -0.727196
      25A     -0.700426    26A     -0.673400    27A     -0.653202
      28A     -0.636030    29A     -0.629259    30A     -0.599239
      31A     -0.594306    32A     -0.560906    33A     -0.496241
      34A     -0.460806    35A     -0.448059    36A     -0.435771
      37A     -0.432654    38A     -0.409170    39A     -0.299236

  @DF-RHF Final Energy:  -539.58654035551706

   => Energetics <=

    Nuclear Repulsion Energy =            593.3285698884216117
    One-Electron Energy =               -1912.1536305148838437
    Two-Electron Energy =                 779.2385202709452869
    Total Energy =                       -539.5865403555170587
  Basis Set: (AUG-CC-PVTZ AUX)
    Blend: AUG-CC-PVTZ-RI
    Molecular point group: c1

    Geometry (in Angstrom), charge = 0, multiplicity = 1:

       Center              X                  Y                   Z               Mass
    ------------   -----------------  -----------------  -----------------  -----------------
         O            0.198505404649     2.664729392312    -0.005755684167    15.994914619570
         C            0.229684604649     1.490213992312     0.006616815833    12.000000000000
         N            1.488061404649     0.758319392312    -0.002165684167    14.003074004430
         C            1.691742404649    -0.599105607688     0.004743315833    12.000000000000
         N            0.726193404649    -1.485500607688     0.014024315833    14.003074004430
         C           -0.502603595351    -0.889064607688    -0.000788684167    12.000000000000
         C           -0.831459595351     0.465186392312     0.018142315833    12.000000000000
         N           -2.195769595351     0.655028392312     0.016254315833    14.003074004430
         C           -2.685994595351    -0.574711607688     0.003280315833    12.000000000000
         N           -1.708088595351    -1.540632607688    -0.004602684167    14.003074004430
         N            3.011850404649    -1.014674607688    -0.076952684167    14.003074004430
         H            2.285924404649     1.381681392312    -0.101939684167     1.007825032230
         H           -3.738724595351    -0.826201607688    -0.000636684167     1.007825032230
         H           -1.830655595351    -2.546512607688    -0.018503684167     1.007825032230
         H            3.084933404649    -2.016341607688     0.070898315833     1.007825032230
         H            3.664371404649    -0.497201607688     0.503128315833     1.007825032230

  Basis Set: AUG-CC-PVTZ
    Blend: AUG-CC-PVTZ
  Basis Set: (AUG-CC-PVTZ AUX)
    Blend: AUG-CC-PVTZ-JKFIT
	 Reference Energy          =    -539.5865403555170587 [Eh]
	 Singles Energy            =      -0.0000000000000000 [Eh]
	 Same-Spin Energy          =      -0.5720268133847644 [Eh]
	 Opposite-Spin Energy      =      -1.6613999002318380 [Eh]
	 Correlation Energy        =      -2.2334267136166024 [Eh]
	 Total Energy              =    -541.8199670691336678 [Eh]

	 ================> DF-SCS-MP2 Energies <==================
	-----------------------------------------------------------
	 SCS Same-Spin Scale       =       0.3333333333333333 [-]
	 SCS Opposite-Spin Scale   =       1.2000000000000000 [-]
	 SCS Same-Spin Energy      =      -0.1906756044615881 [Eh]
	 SCS Opposite-Spin Energy  =      -1.9936798802782056 [Eh]
	 SCS Correlation Energy    =      -2.1843554847397937 [Eh]
	 SCS Total Energy          =    -541.7708958402567987 [Eh]
	-----------------------------------------------------------

  Dipole Moment: [D]
     X:     2.6433      Y:    -5.0958      Z:     0.8406     Total:     5.8018

*** Psi4 exiting successfully. Buy a developer a beer!
