                               Psi4 1.4a3.dev225

  ==> Input File <==

--------------------------------------------------------------------------
#psi4
#
memory 32 gb

molecule  {
0 1
  O        0.1763800     2.6970850    -0.0086780
  C        0.2088860     1.4725900     0.0042210
  N        1.4659360     0.7906750    -0.0050880
  C        1.6696170    -0.5667500     0.0018210
  N        0.7040680    -1.4531450     0.0111020
  C       -0.5247290    -0.8567090    -0.0037110
  C       -0.8388501     0.5110645     0.0150675
  N       -2.2178950     0.6873840     0.0133320
  C       -2.7081200    -0.5423560     0.0003580
  N       -1.7302140    -1.5082770    -0.0075250
  N        2.9897250    -0.9823190    -0.0798750
  H        2.2637990     1.4140370    -0.1048620
  H       -3.7608500    -0.7938460    -0.0035590
  H       -1.8527810    -2.5141570    -0.0214260
  H        3.0628080    -1.9839860     0.0679760
  H        3.6422460    -0.4648460     0.5002060
units angstrom
no_reorient  #important for SAPT in psi4, default
symmetry c1  #important for SAPT in psi4, default
}

set PROPERTIES_ORIGIN ["COM"]
properties('MP2/aug-cc-pvtz', properties = ['dipole'])
--------------------------------------------------------------------------

    Molecular point group: c1
  Charge       = 0
  Multiplicity = 1
  Basis Set: AUG-CC-PVTZ
    Blend: AUG-CC-PVTZ
  Basis Set: (AUG-CC-PVTZ AUX)
    Blend: AUG-CC-PVTZ-JKFIT

    Orbital Energies [Eh]
    ---------------------

    Doubly Occupied:

       1A    -20.522097     2A    -15.637161     3A    -15.631817
       4A    -15.612750     5A    -15.574206     6A    -15.566086
       7A    -11.399190     8A    -11.365707     9A    -11.331169
      10A    -11.314968    11A    -11.251336    12A     -1.393096
      13A     -1.359686    14A     -1.335405    15A     -1.221144
      16A     -1.218083    17A     -1.176694    18A     -1.032916
      19A     -0.909834    20A     -0.885426    21A     -0.843327
      22A     -0.799515    23A     -0.740619    24A     -0.730867
      25A     -0.700888    26A     -0.673739    27A     -0.656582
      28A     -0.634145    29A     -0.613809    30A     -0.602100
      31A     -0.596380    32A     -0.548298    33A     -0.499366
      34A     -0.462701    35A     -0.441387    36A     -0.432594
      37A     -0.432354    38A     -0.411114    39A     -0.303654

  @DF-RHF Final Energy:  -539.58679681348144

   => Energetics <=

    Nuclear Repulsion Energy =            593.6020262469611453
    One-Electron Energy =               -1912.6532225600631136
    Two-Electron Energy =                 779.4643994996206402
    Total Energy =                       -539.5867968134814419
  Basis Set: (AUG-CC-PVTZ AUX)
    Blend: AUG-CC-PVTZ-RI
    Molecular point group: c1

    Geometry (in Angstrom), charge = 0, multiplicity = 1:

       Center              X                  Y                   Z               Mass
    ------------   -----------------  -----------------  -----------------  -----------------
         O            0.197229395691     2.667625697572    -0.005785396299    15.994914619570
         C            0.229735395691     1.443130697572     0.007113603701    12.000000000000
         N            1.486785395691     0.761215697572    -0.002195396299    14.003074004430
         C            1.690466395691    -0.596209302428     0.004713603701    12.000000000000
         N            0.724917395691    -1.482604302428     0.013994603701    14.003074004430
         C           -0.503879604309    -0.886168302428    -0.000818396299    12.000000000000
         C           -0.818000704309     0.481605197572     0.017960103701    12.000000000000
         N           -2.197045604309     0.657924697572     0.016224603701    14.003074004430
         C           -2.687270604309    -0.571815302428     0.003250603701    12.000000000000
         N           -1.709364604309    -1.537736302428    -0.004632396299    14.003074004430
         N            3.010574395691    -1.011778302428    -0.076982396299    14.003074004430
         H            2.284648395691     1.384577697572    -0.101969396299     1.007825032230
         H           -3.740000604309    -0.823305302428    -0.000666396299     1.007825032230
         H           -1.831931604309    -2.543616302428    -0.018533396299     1.007825032230
         H            3.083657395691    -2.013445302428     0.070868603701     1.007825032230
         H            3.663095395691    -0.494305302428     0.503098603701     1.007825032230

  Basis Set: AUG-CC-PVTZ
    Blend: AUG-CC-PVTZ
  Basis Set: (AUG-CC-PVTZ AUX)
    Blend: AUG-CC-PVTZ-JKFIT
	 Reference Energy          =    -539.5867968134814419 [Eh]
	 Singles Energy            =      -0.0000000000000000 [Eh]
	 Same-Spin Energy          =      -0.5730894525949420 [Eh]
	 Opposite-Spin Energy      =      -1.6633564020559706 [Eh]
	 Correlation Energy        =      -2.2364458546509125 [Eh]
	 Total Energy              =    -541.8232426681323659 [Eh]

	 ================> DF-SCS-MP2 Energies <==================
	-----------------------------------------------------------
	 SCS Same-Spin Scale       =       0.3333333333333333 [-]
	 SCS Opposite-Spin Scale   =       1.2000000000000000 [-]
	 SCS Same-Spin Energy      =      -0.1910298175316473 [Eh]
	 SCS Opposite-Spin Energy  =      -1.9960276824671646 [Eh]
	 SCS Correlation Energy    =      -2.1870574999988119 [Eh]
	 SCS Total Energy          =    -541.7738543134802285 [Eh]
	-----------------------------------------------------------

  Dipole Moment: [D]
     X:     2.6556      Y:    -5.7009      Z:     0.8433     Total:     6.3454

*** Psi4 exiting successfully. Buy a developer a beer!
