                               Psi4 1.4a3.dev225

  ==> Input File <==

--------------------------------------------------------------------------
#psi4
#
memory 32 gb

molecule  {
0 1
  O        0.1763800     2.6970850    -0.0086780
  C        0.2088860     1.4725900     0.0042210
  N        1.4659360     0.7906750    -0.0050880
  C        1.6696170    -0.5667500     0.0018210
  N        0.7040680    -1.4531450     0.0111020
  C       -0.5247290    -0.8567090    -0.0037110
  C       -0.8535850     0.4975420     0.0152200
  N       -2.2178950     0.6873840     0.0133320
  C       -2.7081200    -0.5423560     0.0003580
  N       -1.7302140    -1.5082770    -0.0075250
  N        2.9706811    -0.9763240    -0.0786965
  H        2.2637990     1.4140370    -0.1048620
  H       -3.7608500    -0.7938460    -0.0035590
  H       -1.8527810    -2.5141570    -0.0214260
  H        3.0628080    -1.9839860     0.0679760
  H        3.6422460    -0.4648460     0.5002060
units angstrom
no_reorient  #important for SAPT in psi4, default
symmetry c1  #important for SAPT in psi4, default
}

set PROPERTIES_ORIGIN ["COM"]
properties('MP2/aug-cc-pvtz', properties = ['dipole'])
--------------------------------------------------------------------------

    Molecular point group: c1
  Charge       = 0
  Multiplicity = 1
  Basis Set: AUG-CC-PVTZ
    Blend: AUG-CC-PVTZ
  Basis Set: (AUG-CC-PVTZ AUX)
    Blend: AUG-CC-PVTZ-JKFIT

    Orbital Energies [Eh]
    ---------------------

    Doubly Occupied:

       1A    -20.523744     2A    -15.635396     3A    -15.630822
       4A    -15.613918     5A    -15.571791     6A    -15.564562
       7A    -11.397005     8A    -11.367257     9A    -11.326760
      10A    -11.313424    11A    -11.250318    12A     -1.393410
      13A     -1.360319    14A     -1.337722    15A     -1.222559
      16A     -1.217687    17A     -1.177472    18A     -1.030184
      19A     -0.906359    20A     -0.885400    21A     -0.844190
      22A     -0.799290    23A     -0.739575    24A     -0.734522
      25A     -0.698295    26A     -0.671680    27A     -0.656226
      28A     -0.634148    29A     -0.613865    30A     -0.600905
      31A     -0.596605    32A     -0.548620    33A     -0.498908
      34A     -0.462026    35A     -0.442586    36A     -0.432386
      37A     -0.431992    38A     -0.411513    39A     -0.301672

  @DF-RHF Final Energy:  -539.58727514117618

   => Energetics <=

    Nuclear Repulsion Energy =            594.1726885791392760
    One-Electron Energy =               -1913.8297004685982756
    Two-Electron Energy =                 780.0697367482828213
    Total Energy =                       -539.5872751411761783
  Basis Set: (AUG-CC-PVTZ AUX)
    Blend: AUG-CC-PVTZ-RI
    Molecular point group: c1

    Geometry (in Angstrom), charge = 0, multiplicity = 1:

       Center              X                  Y                   Z               Mass
    ------------   -----------------  -----------------  -----------------  -----------------
         O            0.200165467680     2.668144213807    -0.005906764682    15.994914619570
         C            0.232671467680     1.443649213807     0.006992235318    12.000000000000
         N            1.489721467680     0.761734213807    -0.002316764682    14.003074004430
         C            1.693402467680    -0.595690786193     0.004592235318    12.000000000000
         N            0.727853467680    -1.482085786193     0.013873235318    14.003074004430
         C           -0.500943532320    -0.885649786193    -0.000939764682    12.000000000000
         C           -0.829799532320     0.468601213807     0.017991235318    12.000000000000
         N           -2.194109532320     0.658443213807     0.016103235318    14.003074004430
         C           -2.684334532320    -0.571296786193     0.003129235318    12.000000000000
         N           -1.706428532320    -1.537217786193    -0.004753764682    14.003074004430
         N            2.994466567680    -1.005264786193    -0.075925264682    14.003074004430
         H            2.287584467680     1.385096213807    -0.102090764682     1.007825032230
         H           -3.737064532320    -0.822786786193    -0.000787764682     1.007825032230
         H           -1.828995532320    -2.543097786193    -0.018654764682     1.007825032230
         H            3.086593467680    -2.012926786193     0.070747235318     1.007825032230
         H            3.666031467680    -0.493786786193     0.502977235318     1.007825032230

  Basis Set: AUG-CC-PVTZ
    Blend: AUG-CC-PVTZ
  Basis Set: (AUG-CC-PVTZ AUX)
    Blend: AUG-CC-PVTZ-JKFIT
	 Reference Energy          =    -539.5872751411761783 [Eh]
	 Singles Energy            =      -0.0000000000000000 [Eh]
	 Same-Spin Energy          =      -0.5731185452562091 [Eh]
	 Opposite-Spin Energy      =      -1.6631164487605994 [Eh]
	 Correlation Energy        =      -2.2362349940168085 [Eh]
	 Total Energy              =    -541.8235101351930325 [Eh]

	 ================> DF-SCS-MP2 Energies <==================
	-----------------------------------------------------------
	 SCS Same-Spin Scale       =       0.3333333333333333 [-]
	 SCS Opposite-Spin Scale   =       1.2000000000000000 [-]
	 SCS Same-Spin Energy      =      -0.1910395150854030 [Eh]
	 SCS Opposite-Spin Energy  =      -1.9957397385127191 [Eh]
	 SCS Correlation Energy    =      -2.1867792535981221 [Eh]
	 SCS Total Energy          =    -541.7740543947743390 [Eh]
	-----------------------------------------------------------

  Dipole Moment: [D]
     X:     2.8200      Y:    -5.6733      Z:     0.8338     Total:     6.3901

*** Psi4 exiting successfully. Buy a developer a beer!
