                               Psi4 1.4a3.dev225

  ==> Input File <==

--------------------------------------------------------------------------
#psi4
#
memory 32 gb

molecule  {
0 1
  O        0.1763800     2.6970850    -0.0086780
  C        0.2088860     1.4725900     0.0042210
  N        1.4659360     0.7906750    -0.0050880
  C        1.6696170    -0.5667500     0.0018210
  N        0.7040680    -1.4531450     0.0111020
  C       -0.5247290    -0.8567090    -0.0037110
  C       -0.8535850     0.4975420     0.0152200
  N       -2.2178950     0.6873840     0.0133320
  C       -2.7081200    -0.5423560     0.0003580
  N       -1.7444428    -1.4942226    -0.0074103
  N        2.9897250    -0.9823190    -0.0798750
  H        2.2637990     1.4140370    -0.1048620
  H       -3.7608500    -0.7938460    -0.0035590
  H       -1.8527810    -2.5141570    -0.0214260
  H        3.0628080    -1.9839860     0.0679760
  H        3.6422460    -0.4648460     0.5002060
units angstrom
no_reorient  #important for SAPT in psi4, default
symmetry c1  #important for SAPT in psi4, default
}

set PROPERTIES_ORIGIN ["COM"]
properties('MP2/aug-cc-pvtz', properties = ['dipole'])
--------------------------------------------------------------------------

    Molecular point group: c1
  Charge       = 0
  Multiplicity = 1
  Basis Set: AUG-CC-PVTZ
    Blend: AUG-CC-PVTZ
  Basis Set: (AUG-CC-PVTZ AUX)
    Blend: AUG-CC-PVTZ-JKFIT

    Orbital Energies [Eh]
    ---------------------

    Doubly Occupied:

       1A    -20.524640     2A    -15.637523     3A    -15.632149
       4A    -15.612341     5A    -15.574166     6A    -15.562674
       7A    -11.398583     8A    -11.368062     9A    -11.326935
      10A    -11.312603    11A    -11.251585    12A     -1.393870
      13A     -1.362765    14A     -1.336852    15A     -1.220882
      16A     -1.217968    17A     -1.177079    18A     -1.032153
      19A     -0.907997    20A     -0.885105    21A     -0.843273
      22A     -0.799198    23A     -0.741264    24A     -0.730408
      25A     -0.700690    26A     -0.672781    27A     -0.656625
      28A     -0.635225    29A     -0.613803    30A     -0.601523
      31A     -0.597224    32A     -0.547895    33A     -0.499032
      34A     -0.462699    35A     -0.442885    36A     -0.432763
      37A     -0.432382    38A     -0.411924    39A     -0.302528

  @DF-RHF Final Energy:  -539.58669284019379

   => Energetics <=

    Nuclear Repulsion Energy =            593.8270443392907509
    One-Electron Energy =               -1913.1073713414637041
    Two-Electron Energy =                 779.6936341619791619
    Total Energy =                       -539.5866928401937912
  Basis Set: (AUG-CC-PVTZ AUX)
    Blend: AUG-CC-PVTZ-RI
    Molecular point group: c1

    Geometry (in Angstrom), charge = 0, multiplicity = 1:

       Center              X                  Y                   Z               Mass
    ------------   -----------------  -----------------  -----------------  -----------------
         O            0.199719082608     2.667397065078    -0.005808144832    15.994914619570
         C            0.232225082608     1.442902065078     0.007090855168    12.000000000000
         N            1.489275082608     0.760987065078    -0.002218144832    14.003074004430
         C            1.692956082608    -0.596437934922     0.004690855168    12.000000000000
         N            0.727407082608    -1.482832934922     0.013971855168    14.003074004430
         C           -0.501389917392    -0.886396934922    -0.000841144832    12.000000000000
         C           -0.830245917392     0.467854065078     0.018089855168    12.000000000000
         N           -2.194555917392     0.657696065078     0.016201855168    14.003074004430
         C           -2.684780917392    -0.572043934922     0.003227855168    12.000000000000
         N           -1.721103717392    -1.523910534922    -0.004540444832    14.003074004430
         N            3.013064082608    -1.012006934922    -0.077005144832    14.003074004430
         H            2.287138082608     1.384349065078    -0.101992144832     1.007825032230
         H           -3.737510917392    -0.823533934922    -0.000689144832     1.007825032230
         H           -1.829441917392    -2.543844934922    -0.018556144832     1.007825032230
         H            3.086147082608    -2.013673934922     0.070845855168     1.007825032230
         H            3.665585082608    -0.494533934922     0.503075855168     1.007825032230

  Basis Set: AUG-CC-PVTZ
    Blend: AUG-CC-PVTZ
  Basis Set: (AUG-CC-PVTZ AUX)
    Blend: AUG-CC-PVTZ-JKFIT
	 Reference Energy          =    -539.5866928401937912 [Eh]
	 Singles Energy            =      -0.0000000000000000 [Eh]
	 Same-Spin Energy          =      -0.5732751262956235 [Eh]
	 Opposite-Spin Energy      =      -1.6633242855452657 [Eh]
	 Correlation Energy        =      -2.2365994118408894 [Eh]
	 Total Energy              =    -541.8232922520346619 [Eh]

	 ================> DF-SCS-MP2 Energies <==================
	-----------------------------------------------------------
	 SCS Same-Spin Scale       =       0.3333333333333333 [-]
	 SCS Opposite-Spin Scale   =       1.2000000000000000 [-]
	 SCS Same-Spin Energy      =      -0.1910917087652078 [Eh]
	 SCS Opposite-Spin Energy  =      -1.9959891426543188 [Eh]
	 SCS Correlation Energy    =      -2.1870808514195268 [Eh]
	 SCS Total Energy          =    -541.7737736916133144 [Eh]
	-----------------------------------------------------------

  Dipole Moment: [D]
     X:     2.6843      Y:    -5.6671      Z:     0.8435     Total:     6.3272

*** Psi4 exiting successfully. Buy a developer a beer!
