                               Psi4 1.3.2 release

  ==> Input File <==

--------------------------------------------------------------------------
#psi4
#
memory 32 gb

molecule  {
0 1
  O        0.1763910     2.6970700    -0.0085580
  C        0.2089260     1.4725840     0.0042240
  N        1.4659430     0.7906670    -0.0052000
  C        1.5274292    -0.5804374     0.0174579
  N        0.7040600    -1.4531590     0.0111340
  C       -0.5247500    -0.8567100    -0.0036900
  C       -0.8535700     0.4975280     0.0150930
  N       -2.2178770     0.6874110     0.0132550
  C       -2.7081380    -0.5423290     0.0003530
  N       -1.7302440    -1.5082620    -0.0074590
  N        2.9897270    -0.9822980    -0.0798890
  H        2.2638450     1.4140280    -0.1046570
  H       -3.7608750    -0.7937900    -0.0035550
  H       -1.8528420    -2.5141400    -0.0211820
  H        3.0628590    -1.9839740     0.0678780
  H        3.6422020    -0.4648880     0.5003130
units angstrom
no_reorient  #important for SAPT in psi4, default
symmetry c1  #important for SAPT in psi4, default
}

set PROPERTIES_ORIGIN ["COM"]
properties('MP2/aug-cc-pvtz', properties = ['dipole'])
--------------------------------------------------------------------------

    Molecular point group: c1
  Charge       = 0
  Multiplicity = 1
  Basis Set: AUG-CC-PVTZ
    Blend: AUG-CC-PVTZ
  Basis Set: (AUG-CC-PVTZ AUX)
    Blend: AUG-CC-PVTZ-JKFIT

    Orbital Energies [Eh]
    ---------------------

    Doubly Occupied:

       1A    -20.527834     2A    -15.645514     3A    -15.630837
       4A    -15.588097     5A    -15.583124     6A    -15.573205
       7A    -11.388569     8A    -11.369095     9A    -11.336821
      10A    -11.321785    11A    -11.262508    12A     -1.405067
      13A     -1.371620    14A     -1.345494    15A     -1.242938
      16A     -1.190317    17A     -1.177847    18A     -1.040800
      19A     -0.914350    20A     -0.878649    21A     -0.854603
      22A     -0.811437    23A     -0.746415    24A     -0.709822
      25A     -0.694477    26A     -0.673141    27A     -0.662488
      28A     -0.621253    29A     -0.614699    30A     -0.607926
      31A     -0.599263    32A     -0.551998    33A     -0.515124
      34A     -0.457114    35A     -0.447366    36A     -0.437726
      37A     -0.432209    38A     -0.420971    39A     -0.319428

  @DF-RHF Final Energy:  -539.55925840296266

   => Energetics <=

    Nuclear Repulsion Energy =            595.4615050945089934
    One-Electron Energy =               -1916.0976660441986041
    Two-Electron Energy =                 781.0769025467269557
    Total Energy =                       -539.5592584029626551
  Basis Set: (AUG-CC-PVTZ AUX)
    Blend: AUG-CC-PVTZ-RI
    Molecular point group: c1

    Geometry (in Angstrom), charge = 0, multiplicity = 1:

       Center              X                  Y                   Z               Mass
    ------------   -----------------  -----------------  -----------------  -----------------
         O            0.209705798571     2.669769450340    -0.006917248142    15.994914619570
         C            0.242240798571     1.445283450340     0.005864751858    12.000000000000
         N            1.499257798571     0.763366450340    -0.003559248142    14.003074004430
         C            1.560743998571    -0.607737949660     0.019098651858    12.000000000000
         N            0.737374798571    -1.480459549660     0.012774751858    14.003074004430
         C           -0.491435201429    -0.884010549660    -0.002049248142    12.000000000000
         C           -0.820255201429     0.470227450340     0.016733751858    12.000000000000
         N           -2.184562201429     0.660110450340     0.014895751858    14.003074004430
         C           -2.674823201429    -0.569629549660     0.001993751858    12.000000000000
         N           -1.696929201429    -1.535562549660    -0.005818248142    14.003074004430
         N            3.023041798571    -1.009598549660    -0.078248248142    14.003074004430
         H            2.297159798571     1.386727450340    -0.103016248142     1.007825032230
         H           -3.727560201429    -0.821090549660    -0.001914248142     1.007825032230
         H           -1.819527201429    -2.541440549660    -0.019541248142     1.007825032230
         H            3.096173798571    -2.011274549660     0.069518751858     1.007825032230
         H            3.675516798571    -0.492188549660     0.501953751858     1.007825032230

  Basis Set: AUG-CC-PVTZ
    Blend: AUG-CC-PVTZ
  Basis Set: (AUG-CC-PVTZ AUX)
    Blend: AUG-CC-PVTZ-JKFIT
	 Reference Energy          =    -539.5592584029626551 [Eh]
	 Singles Energy            =      -0.0000000000000000 [Eh]
	 Same-Spin Energy          =      -0.5722139494585802 [Eh]
	 Opposite-Spin Energy      =      -1.6634206474384099 [Eh]
	 Correlation Energy        =      -2.2356345968969902 [Eh]
	 Total Energy              =    -541.7948929998595986 [Eh]

	 ================> DF-SCS-MP2 Energies <==================
	-----------------------------------------------------------
	 SCS Same-Spin Scale       =       0.3333333333333333 [-]
	 SCS Opposite-Spin Scale   =       1.2000000000000000 [-]
	 SCS Same-Spin Energy      =      -0.1907379831528601 [Eh]
	 SCS Opposite-Spin Energy  =      -1.9961047769260918 [Eh]
	 SCS Correlation Energy    =      -2.1868427600789517 [Eh]
	 SCS Total Energy          =    -541.7461011630416579 [Eh]
	-----------------------------------------------------------

  Dipole Moment: [D]
     X:     1.4080      Y:    -5.5600      Z:     0.8827     Total:     5.8030

*** Psi4 exiting successfully. Buy a developer a beer!
