                               Psi4 1.3.2 release

  ==> Input File <==

--------------------------------------------------------------------------
#psi4
#
memory 32 gb

molecule  {
0 1
  O        0.1763910     2.6970700    -0.0085580
  C        0.2089260     1.4725840     0.0042240
  N        1.4659430     0.7906670    -0.0052000
  C        1.6696020    -0.5667920     0.0018180
  N        0.7040600    -1.4531590     0.0111340
  C       -0.5247500    -0.8567100    -0.0036900
  C       -0.8535700     0.4975280     0.0150930
  N       -2.2178770     0.6874110     0.0132550
  C       -2.7081380    -0.5423290     0.0003530
  N       -1.7302440    -1.5082620    -0.0074590
  N        2.9897270    -0.9822980    -0.0798890
  H        2.2638450     1.4140280    -0.1046570
  H       -3.7608750    -0.7937900    -0.0035550
  H       -1.8528420    -2.5141400    -0.0211820
  H        3.0756402    -1.9811236     0.0798123
  H        3.6422020    -0.4648880     0.5003130
units angstrom
no_reorient  #important for SAPT in psi4, default
symmetry c1  #important for SAPT in psi4, default
}

set PROPERTIES_ORIGIN ["COM"]
properties('MP2/aug-cc-pvtz', properties = ['dipole'])
--------------------------------------------------------------------------

    Molecular point group: c1
  Charge       = 0
  Multiplicity = 1
  Basis Set: AUG-CC-PVTZ
    Blend: AUG-CC-PVTZ
  Basis Set: (AUG-CC-PVTZ AUX)
    Blend: AUG-CC-PVTZ-JKFIT

    Orbital Energies [Eh]
    ---------------------

    Doubly Occupied:

       1A    -20.524439     2A    -15.636230     3A    -15.632095
       4A    -15.612440     5A    -15.573594     6A    -15.565316
       7A    -11.398775     8A    -11.368071     9A    -11.327571
      10A    -11.314330    11A    -11.251490    12A     -1.393586
      13A     -1.360971    14A     -1.335847    15A     -1.220839
      16A     -1.218364    17A     -1.178272    18A     -1.031463
      19A     -0.906858    20A     -0.885634    21A     -0.844985
      22A     -0.798858    23A     -0.740386    24A     -0.731010
      25A     -0.699796    26A     -0.672950    27A     -0.656413
      28A     -0.633871    29A     -0.614669    30A     -0.601470
      31A     -0.596695    32A     -0.548009    33A     -0.499749
      34A     -0.462754    35A     -0.443237    36A     -0.433173
      37A     -0.432635    38A     -0.412240    39A     -0.302938

  @DF-RHF Final Energy:  -539.58755680976117

   => Energetics <=

    Nuclear Repulsion Energy =            593.6313221794806623
    One-Electron Energy =               -1912.7137143089234996
    Two-Electron Energy =                 779.4948353196815560
    Total Energy =                       -539.5875568097611676
  Basis Set: (AUG-CC-PVTZ AUX)
    Blend: AUG-CC-PVTZ-RI
    Molecular point group: c1

    Geometry (in Angstrom), charge = 0, multiplicity = 1:

       Center              X                  Y                   Z               Mass
    ------------   -----------------  -----------------  -----------------  -----------------
         O            0.198325715620     2.668666384101    -0.005754376245    15.994914619570
         C            0.230860715620     1.444180384101     0.007027623755    12.000000000000
         N            1.487877715620     0.762263384101    -0.002396376245    14.003074004430
         C            1.691536715620    -0.595195615899     0.004621623755    12.000000000000
         N            0.725994715620    -1.481562615899     0.013937623755    14.003074004430
         C           -0.502815284380    -0.885113615899    -0.000886376245    12.000000000000
         C           -0.831635284380     0.469124384101     0.017896623755    12.000000000000
         N           -2.195942284380     0.659007384101     0.016058623755    14.003074004430
         C           -2.686203284380    -0.570732615899     0.003156623755    12.000000000000
         N           -1.708309284380    -1.536665615899    -0.004655376245    14.003074004430
         N            3.011661715620    -1.010701615899    -0.077085376245    14.003074004430
         H            2.285779715620     1.385624384101    -0.101853376245     1.007825032230
         H           -3.738940284380    -0.822193615899    -0.000751376245     1.007825032230
         H           -1.830907284380    -2.542543615899    -0.018378376245     1.007825032230
         H            3.097574915620    -2.009527215899     0.082615923755     1.007825032230
         H            3.664136715620    -0.493291615899     0.503116623755     1.007825032230

  Basis Set: AUG-CC-PVTZ
    Blend: AUG-CC-PVTZ
  Basis Set: (AUG-CC-PVTZ AUX)
    Blend: AUG-CC-PVTZ-JKFIT
	 Reference Energy          =    -539.5875568097611676 [Eh]
	 Singles Energy            =      -0.0000000000000000 [Eh]
	 Same-Spin Energy          =      -0.5730239079328283 [Eh]
	 Opposite-Spin Energy      =      -1.6631960031006299 [Eh]
	 Correlation Energy        =      -2.2362199110334582 [Eh]
	 Total Energy              =    -541.8237767207946263 [Eh]

	 ================> DF-SCS-MP2 Energies <==================
	-----------------------------------------------------------
	 SCS Same-Spin Scale       =       0.3333333333333333 [-]
	 SCS Opposite-Spin Scale   =       1.2000000000000000 [-]
	 SCS Same-Spin Energy      =      -0.1910079693109428 [Eh]
	 SCS Opposite-Spin Energy  =      -1.9958352037207558 [Eh]
	 SCS Correlation Energy    =      -2.1868431730316988 [Eh]
	 SCS Total Energy          =    -541.7743999827928292 [Eh]
	-----------------------------------------------------------

  Dipole Moment: [D]
     X:     2.6726      Y:    -5.6324      Z:     0.8570     Total:     6.2930

*** Psi4 exiting successfully. Buy a developer a beer!
