                               Psi4 1.3.2 release

  ==> Input File <==

--------------------------------------------------------------------------
#psi4
#
memory 32 gb

molecule  {
0 1
  O        0.1763910     2.6970700    -0.0085580
  C        0.2089260     1.4725840     0.0042240
  N        1.4659430     0.7906670    -0.0052000
  C        1.6696020    -0.5667920     0.0018180
  N        0.6594972    -1.5374106     0.0085801
  C       -0.5247500    -0.8567100    -0.0036900
  C       -0.8535700     0.4975280     0.0150930
  N       -2.2178770     0.6874110     0.0132550
  C       -2.7081380    -0.5423290     0.0003530
  N       -1.7302440    -1.5082620    -0.0074590
  N        2.9897270    -0.9822980    -0.0798890
  H        2.2638450     1.4140280    -0.1046570
  H       -3.7608750    -0.7937900    -0.0035550
  H       -1.8528420    -2.5141400    -0.0211820
  H        3.0628590    -1.9839740     0.0678780
  H        3.6422020    -0.4648880     0.5003130
units angstrom
no_reorient  #important for SAPT in psi4, default
symmetry c1  #important for SAPT in psi4, default
}

set PROPERTIES_ORIGIN ["COM"]
properties('MP2/aug-cc-pvtz', properties = ['dipole'])
--------------------------------------------------------------------------

    Molecular point group: c1
  Charge       = 0
  Multiplicity = 1
  Basis Set: AUG-CC-PVTZ
    Blend: AUG-CC-PVTZ
  Basis Set: (AUG-CC-PVTZ AUX)
    Blend: AUG-CC-PVTZ-JKFIT

    Orbital Energies [Eh]
    ---------------------

    Doubly Occupied:

       1A    -20.525564     2A    -15.641823     3A    -15.629442
       4A    -15.621051     5A    -15.582824     6A    -15.562549
       7A    -11.415355     8A    -11.368958     9A    -11.324956
      10A    -11.311057    11A    -11.248893    12A     -1.392893
      13A     -1.357985    14A     -1.331258    15A     -1.226397
      16A     -1.212079    17A     -1.170995    18A     -1.025298
      19A     -0.904202    20A     -0.889401    21A     -0.841770
      22A     -0.791666    23A     -0.743257    24A     -0.728263
      25A     -0.703278    26A     -0.673853    27A     -0.652822
      28A     -0.621943    29A     -0.613555    30A     -0.600023
      31A     -0.593645    32A     -0.546147    33A     -0.505185
      34A     -0.463044    35A     -0.445592    36A     -0.435735
      37A     -0.433376    38A     -0.408906    39A     -0.296590

  @DF-RHF Final Energy:  -539.57345447396347

   => Energetics <=

    Nuclear Repulsion Energy =            591.5779234438952017
    One-Electron Energy =               -1908.6194957718109890
    Two-Electron Energy =                 777.4681178539522080
    Total Energy =                       -539.5734544739634657
  Basis Set: (AUG-CC-PVTZ AUX)
    Blend: AUG-CC-PVTZ-RI
    Molecular point group: c1

    Geometry (in Angstrom), charge = 0, multiplicity = 1:

       Center              X                  Y                   Z               Mass
    ------------   -----------------  -----------------  -----------------  -----------------
         O            0.202542199487     2.676495968445    -0.005437988799    15.994914619570
         C            0.235077199487     1.452009968445     0.007344011201    12.000000000000
         N            1.492094199487     0.770092968445    -0.002079988799    14.003074004430
         C            1.695753199487    -0.587366031555     0.004938011201    12.000000000000
         N            0.685648399487    -1.557984631555     0.011700111201    14.003074004430
         C           -0.498598800513    -0.877284031555    -0.000569988799    12.000000000000
         C           -0.827418800513     0.476953968445     0.018213011201    12.000000000000
         N           -2.191725800513     0.666836968445     0.016375011201    14.003074004430
         C           -2.681986800513    -0.562903031555     0.003473011201    12.000000000000
         N           -1.704092800513    -1.528836031555    -0.004338988799    14.003074004430
         N            3.015878199487    -1.002872031555    -0.076768988799    14.003074004430
         H            2.289996199487     1.393453968445    -0.101536988799     1.007825032230
         H           -3.734723800513    -0.814364031555    -0.000434988799     1.007825032230
         H           -1.826690800513    -2.534714031555    -0.018061988799     1.007825032230
         H            3.089010199487    -2.004548031555     0.070998011201     1.007825032230
         H            3.668353199487    -0.485462031555     0.503433011201     1.007825032230

  Basis Set: AUG-CC-PVTZ
    Blend: AUG-CC-PVTZ
  Basis Set: (AUG-CC-PVTZ AUX)
    Blend: AUG-CC-PVTZ-JKFIT
	 Reference Energy          =    -539.5734544739634657 [Eh]
	 Singles Energy            =      -0.0000000000000000 [Eh]
	 Same-Spin Energy          =      -0.5741584262366022 [Eh]
	 Opposite-Spin Energy      =      -1.6662713009859580 [Eh]
	 Correlation Energy        =      -2.2404297272225602 [Eh]
	 Total Energy              =    -541.8138842011860561 [Eh]

	 ================> DF-SCS-MP2 Energies <==================
	-----------------------------------------------------------
	 SCS Same-Spin Scale       =       0.3333333333333333 [-]
	 SCS Opposite-Spin Scale   =       1.2000000000000000 [-]
	 SCS Same-Spin Energy      =      -0.1913861420788674 [Eh]
	 SCS Opposite-Spin Energy  =      -1.9995255611831495 [Eh]
	 SCS Correlation Energy    =      -2.1909117032620169 [Eh]
	 SCS Total Energy          =    -541.7643661772254973 [Eh]
	-----------------------------------------------------------

  Dipole Moment: [D]
     X:     3.0387      Y:    -5.4524      Z:     0.8380     Total:     6.2980

*** Psi4 exiting successfully. Buy a developer a beer!
