                               Psi4 1.3.2 release

  ==> Input File <==

--------------------------------------------------------------------------
#psi4
#
memory 32 gb

molecule  {
0 1
  O        0.1763910     2.6970700    -0.0085580
  C        0.2089260     1.4725840     0.0042240
  N        1.4659430     0.7906670    -0.0052000
  C        1.6696020    -0.5667920     0.0018180
  N        0.7040600    -1.4531590     0.0111340
  C       -0.5247500    -0.8567100    -0.0036900
  C       -0.8535700     0.4975280     0.0150930
  N       -2.2178770     0.6874110     0.0132550
  C       -2.7081380    -0.5423290     0.0003530
  N       -1.6591007    -1.5785351    -0.0080273
  N        2.9897270    -0.9822980    -0.0798890
  H        2.2638450     1.4140280    -0.1046570
  H       -3.7608750    -0.7937900    -0.0035550
  H       -1.8528420    -2.5141400    -0.0211820
  H        3.0628590    -1.9839740     0.0678780
  H        3.6422020    -0.4648880     0.5003130
units angstrom
no_reorient  #important for SAPT in psi4, default
symmetry c1  #important for SAPT in psi4, default
}

set PROPERTIES_ORIGIN ["COM"]
properties('MP2/aug-cc-pvtz', properties = ['dipole'])
--------------------------------------------------------------------------

    Molecular point group: c1
  Charge       = 0
  Multiplicity = 1
  Basis Set: AUG-CC-PVTZ
    Blend: AUG-CC-PVTZ
  Basis Set: (AUG-CC-PVTZ AUX)
    Blend: AUG-CC-PVTZ-JKFIT

    Orbital Energies [Eh]
    ---------------------

    Doubly Occupied:

       1A    -20.523509     2A    -15.631183     3A    -15.629798
       4A    -15.612390     5A    -15.577624     6A    -15.570697
       7A    -11.398347     8A    -11.368017     9A    -11.331390
      10A    -11.322211    11A    -11.251437    12A     -1.392622
      13A     -1.355503    14A     -1.330344    15A     -1.221629
      16A     -1.220223    17A     -1.183387    18A     -1.028644
      19A     -0.906356    20A     -0.886161    21A     -0.850196
      22A     -0.798917    23A     -0.737825    24A     -0.732038
      25A     -0.699827    26A     -0.677709    27A     -0.654409
      28A     -0.622192    29A     -0.618439    30A     -0.602024
      31A     -0.590412    32A     -0.548169    33A     -0.502462
      34A     -0.462686    35A     -0.445303    36A     -0.435282
      37A     -0.434715    38A     -0.411932    39A     -0.304264

  @DF-RHF Final Energy:  -539.57630591887062

   => Energetics <=

    Nuclear Repulsion Energy =            592.8597526297259037
    One-Electron Energy =               -1911.1315679217259458
    Two-Electron Energy =                 778.6955093731295392
    Total Energy =                       -539.5763059188706166
  Basis Set: (AUG-CC-PVTZ AUX)
    Blend: AUG-CC-PVTZ-RI
    Molecular point group: c1

    Geometry (in Angstrom), charge = 0, multiplicity = 1:

       Center              X                  Y                   Z               Mass
    ------------   -----------------  -----------------  -----------------  -----------------
         O            0.191815636019     2.675200088043    -0.005622064353    15.994914619570
         C            0.224350636019     1.450714088043     0.007159935647    12.000000000000
         N            1.481367636019     0.768797088043    -0.002264064353    14.003074004430
         C            1.685026636019    -0.588661911957     0.004753935647    12.000000000000
         N            0.719484636019    -1.475028911957     0.014069935647    14.003074004430
         C           -0.509325363981    -0.878579911957    -0.000754064353    12.000000000000
         C           -0.838145363981     0.475658088043     0.018028935647    12.000000000000
         N           -2.202452363981     0.665541088043     0.016190935647    14.003074004430
         C           -2.692713363981    -0.564198911957     0.003288935647    12.000000000000
         N           -1.643676063981    -1.600405011957    -0.005091364353    14.003074004430
         N            3.005151636019    -1.004167911957    -0.076953064353    14.003074004430
         H            2.279269636019     1.392158088043    -0.101721064353     1.007825032230
         H           -3.745450363981    -0.815659911957    -0.000619064353     1.007825032230
         H           -1.837417363981    -2.536009911957    -0.018246064353     1.007825032230
         H            3.078283636019    -2.005843911957     0.070813935647     1.007825032230
         H            3.657626636019    -0.486757911957     0.503248935647     1.007825032230

  Basis Set: AUG-CC-PVTZ
    Blend: AUG-CC-PVTZ
  Basis Set: (AUG-CC-PVTZ AUX)
    Blend: AUG-CC-PVTZ-JKFIT
	 Reference Energy          =    -539.5763059188706166 [Eh]
	 Singles Energy            =      -0.0000000000000000 [Eh]
	 Same-Spin Energy          =      -0.5722790956049075 [Eh]
	 Opposite-Spin Energy      =      -1.6635695063874101 [Eh]
	 Correlation Energy        =      -2.2358486019923176 [Eh]
	 Total Energy              =    -541.8121545208629186 [Eh]

	 ================> DF-SCS-MP2 Energies <==================
	-----------------------------------------------------------
	 SCS Same-Spin Scale       =       0.3333333333333333 [-]
	 SCS Opposite-Spin Scale   =       1.2000000000000000 [-]
	 SCS Same-Spin Energy      =      -0.1907596985349692 [Eh]
	 SCS Opposite-Spin Energy  =      -1.9962834076648921 [Eh]
	 SCS Correlation Energy    =      -2.1870431061998614 [Eh]
	 SCS Total Energy          =    -541.7633490250705108 [Eh]
	-----------------------------------------------------------

  Dipole Moment: [D]
     X:     2.5675      Y:    -5.4711      Z:     0.8436     Total:     6.1022

*** Psi4 exiting successfully. Buy a developer a beer!
