                               Psi4 1.3.2 release

  ==> Input File <==

--------------------------------------------------------------------------
#psi4
#
memory 32 gb

molecule  {
0 1
  O        0.1763910     2.6970700    -0.0085580
  C        0.2089260     1.4725840     0.0042240
  N        1.4659430     0.7906670    -0.0052000
  C        1.6849247    -0.5837751     0.0021505
  N        0.7040600    -1.4531590     0.0111340
  C       -0.5247500    -0.8567100    -0.0036900
  C       -0.8535700     0.4975280     0.0150930
  N       -2.2178770     0.6874110     0.0132550
  C       -2.7081380    -0.5423290     0.0003530
  N       -1.7302440    -1.5082620    -0.0074590
  N        2.9897270    -0.9822980    -0.0798890
  H        2.2638450     1.4140280    -0.1046570
  H       -3.7608750    -0.7937900    -0.0035550
  H       -1.8528420    -2.5141400    -0.0211820
  H        3.0628590    -1.9839740     0.0678780
  H        3.6422020    -0.4648880     0.5003130
units angstrom
no_reorient  #important for SAPT in psi4, default
symmetry c1  #important for SAPT in psi4, default
}

set PROPERTIES_ORIGIN ["COM"]
properties('MP2/aug-cc-pvtz', properties = ['dipole'])
--------------------------------------------------------------------------

    Molecular point group: c1
  Charge       = 0
  Multiplicity = 1
  Basis Set: AUG-CC-PVTZ
    Blend: AUG-CC-PVTZ
  Basis Set: (AUG-CC-PVTZ AUX)
    Blend: AUG-CC-PVTZ-JKFIT

    Orbital Energies [Eh]
    ---------------------

    Doubly Occupied:

       1A    -20.523081     2A    -15.635915     3A    -15.629117
       4A    -15.615330     5A    -15.573042     6A    -15.564755
       7A    -11.399308     8A    -11.366756     9A    -11.327049
      10A    -11.313692    11A    -11.250763    12A     -1.391305
      13A     -1.360174    14A     -1.336165    15A     -1.225455
      16A     -1.214980    17A     -1.177195    18A     -1.030722
      19A     -0.905272    20A     -0.883910    21A     -0.844282
      22A     -0.798984    23A     -0.737333    24A     -0.734784
      25A     -0.702260    26A     -0.671836    27A     -0.655102
      28A     -0.636508    29A     -0.613581    30A     -0.600409
      31A     -0.596042    32A     -0.549212    33A     -0.497636
      34A     -0.463809    35A     -0.441579    36A     -0.432082
      37A     -0.430439    38A     -0.411455    39A     -0.302333

  @DF-RHF Final Energy:  -539.58664418413503

   => Energetics <=

    Nuclear Repulsion Energy =            593.4065923512760037
    One-Electron Energy =               -1912.2991704290413963
    Two-Electron Energy =                 779.3059338936303675
    Total Energy =                       -539.5866441841350252
  Basis Set: (AUG-CC-PVTZ AUX)
    Blend: AUG-CC-PVTZ-RI
    Molecular point group: c1

    Geometry (in Angstrom), charge = 0, multiplicity = 1:

       Center              X                  Y                   Z               Mass
    ------------   -----------------  -----------------  -----------------  -----------------
         O            0.197193694072     2.670034611257    -0.005701163947    15.994914619570
         C            0.229728694072     1.445548611257     0.007080836053    12.000000000000
         N            1.486745694072     0.763631611257    -0.002343163947    14.003074004430
         C            1.705727394072    -0.610810488743     0.005007336053    12.000000000000
         N            0.724862694072    -1.480194388743     0.013990836053    14.003074004430
         C           -0.503947305928    -0.883745388743    -0.000833163947    12.000000000000
         C           -0.832767305928     0.470492611257     0.017949836053    12.000000000000
         N           -2.197074305928     0.660375611257     0.016111836053    14.003074004430
         C           -2.687335305928    -0.569364388743     0.003209836053    12.000000000000
         N           -1.709441305928    -1.535297388743    -0.004602163947    14.003074004430
         N            3.010529694072    -1.009333388743    -0.077032163947    14.003074004430
         H            2.284647694072     1.386992611257    -0.101800163947     1.007825032230
         H           -3.740072305928    -0.820825388743    -0.000698163947     1.007825032230
         H           -1.832039305928    -2.541175388743    -0.018325163947     1.007825032230
         H            3.083661694072    -2.011009388743     0.070734836053     1.007825032230
         H            3.663004694072    -0.491923388743     0.503169836053     1.007825032230

  Basis Set: AUG-CC-PVTZ
    Blend: AUG-CC-PVTZ
  Basis Set: (AUG-CC-PVTZ AUX)
    Blend: AUG-CC-PVTZ-JKFIT
	 Reference Energy          =    -539.5866441841350252 [Eh]
	 Singles Energy            =      -0.0000000000000000 [Eh]
	 Same-Spin Energy          =      -0.5731208049210273 [Eh]
	 Opposite-Spin Energy      =      -1.6632771128162700 [Eh]
	 Correlation Energy        =      -2.2363979177372975 [Eh]
	 Total Energy              =    -541.8230421018723746 [Eh]

	 ================> DF-SCS-MP2 Energies <==================
	-----------------------------------------------------------
	 SCS Same-Spin Scale       =       0.3333333333333333 [-]
	 SCS Opposite-Spin Scale   =       1.2000000000000000 [-]
	 SCS Same-Spin Energy      =      -0.1910402683070091 [Eh]
	 SCS Opposite-Spin Energy  =      -1.9959325353795239 [Eh]
	 SCS Correlation Energy    =      -2.1869728036865328 [Eh]
	 SCS Total Energy          =    -541.7736169878215833 [Eh]
	-----------------------------------------------------------

  Dipole Moment: [D]
     X:     2.8030      Y:    -5.7345      Z:     0.8422     Total:     6.4382

*** Psi4 exiting successfully. Buy a developer a beer!
