                               Psi4 1.3.2 release

  ==> Input File <==

--------------------------------------------------------------------------
#psi4
#
memory 32 gb

molecule  {
0 1
  O        0.1763910     2.6970700    -0.0085580
  C        0.2089260     1.4725840     0.0042240
  N        1.4659430     0.7906670    -0.0052000
  C        1.6696020    -0.5667920     0.0018180
  N        0.7040600    -1.4531590     0.0111340
  C       -0.5247500    -0.8567100    -0.0036900
  C       -0.8535700     0.4975280     0.0150930
  N       -2.2178770     0.6874110     0.0132550
  C       -2.7081380    -0.5423290     0.0003530
  N       -1.7302440    -1.5082620    -0.0074590
  N        2.9897270    -0.9822980    -0.0798890
  H        2.2638450     1.4140280    -0.1046570
  H       -3.7608750    -0.7937900    -0.0035550
  H       -1.8528420    -2.5141400    -0.0211820
  H        3.0484509    -1.7866294     0.0387658
  H        3.6422020    -0.4648880     0.5003130
units angstrom
no_reorient  #important for SAPT in psi4, default
symmetry c1  #important for SAPT in psi4, default
}

set PROPERTIES_ORIGIN ["COM"]
properties('MP2/aug-cc-pvtz', properties = ['dipole'])
--------------------------------------------------------------------------

    Molecular point group: c1
  Charge       = 0
  Multiplicity = 1
  Basis Set: AUG-CC-PVTZ
    Blend: AUG-CC-PVTZ
  Basis Set: (AUG-CC-PVTZ AUX)
    Blend: AUG-CC-PVTZ-JKFIT

    Orbital Energies [Eh]
    ---------------------

    Doubly Occupied:

       1A    -20.525023     2A    -15.636925     3A    -15.632663
       4A    -15.592493     5A    -15.575170     6A    -15.565942
       7A    -11.399704     8A    -11.368644     9A    -11.328491
      10A    -11.315035    11A    -11.252418    12A     -1.395471
      13A     -1.362220    14A     -1.344646    15A     -1.251195
      16A     -1.219464    17A     -1.179069    18A     -1.036145
      19A     -0.911326    20A     -0.896422    21A     -0.845679
      22A     -0.804360    23A     -0.756061    24A     -0.737867
      25A     -0.722352    26A     -0.680136    27A     -0.658296
      28A     -0.635010    29A     -0.616012    30A     -0.602269
      31A     -0.598077    32A     -0.549910    33A     -0.500613
      34A     -0.466627    35A     -0.443891    36A     -0.434145
      37A     -0.433383    38A     -0.412907    39A     -0.304033

  @DF-RHF Final Energy:  -539.54273689573245

   => Energetics <=

    Nuclear Repulsion Energy =            594.9263555910093828
    One-Electron Energy =               -1914.9579992895528449
    Two-Electron Energy =                 780.4889068028111296
    Total Energy =                       -539.5427368957324461
  Basis Set: (AUG-CC-PVTZ AUX)
    Blend: AUG-CC-PVTZ-RI
    Molecular point group: c1

    Geometry (in Angstrom), charge = 0, multiplicity = 1:

       Center              X                  Y                   Z               Mass
    ------------   -----------------  -----------------  -----------------  -----------------
         O            0.198507126836     2.667368688707    -0.005480507647    15.994914619570
         C            0.231042126836     1.442882688707     0.007301492353    12.000000000000
         N            1.488059126836     0.760965688707    -0.002122507647    14.003074004430
         C            1.691718126836    -0.596493311293     0.004895492353    12.000000000000
         N            0.726176126836    -1.482860311293     0.014211492353    14.003074004430
         C           -0.502633873164    -0.886411311293    -0.000612507647    12.000000000000
         C           -0.831453873164     0.467826688707     0.018170492353    12.000000000000
         N           -2.195760873164     0.657709688707     0.016332492353    14.003074004430
         C           -2.686021873164    -0.572030311293     0.003430492353    12.000000000000
         N           -1.708127873164    -1.537963311293    -0.004381507647    14.003074004430
         N            3.011843126836    -1.011999311293    -0.076811507647    14.003074004430
         H            2.285961126836     1.384326688707    -0.101579507647     1.007825032230
         H           -3.738758873164    -0.823491311293    -0.000477507647     1.007825032230
         H           -1.830725873164    -2.543841311293    -0.018104507647     1.007825032230
         H            3.070567026836    -1.816330711293     0.041843292353     1.007825032230
         H            3.664318126836    -0.494589311293     0.503390492353     1.007825032230

  Basis Set: AUG-CC-PVTZ
    Blend: AUG-CC-PVTZ
  Basis Set: (AUG-CC-PVTZ AUX)
    Blend: AUG-CC-PVTZ-JKFIT
	 Reference Energy          =    -539.5427368957324461 [Eh]
	 Singles Energy            =      -0.0000000000000000 [Eh]
	 Same-Spin Energy          =      -0.5720140776409183 [Eh]
	 Opposite-Spin Energy      =      -1.6606584250699434 [Eh]
	 Correlation Energy        =      -2.2326725027108618 [Eh]
	 Total Energy              =    -541.7754093984433439 [Eh]

	 ================> DF-SCS-MP2 Energies <==================
	-----------------------------------------------------------
	 SCS Same-Spin Scale       =       0.3333333333333333 [-]
	 SCS Opposite-Spin Scale   =       1.2000000000000000 [-]
	 SCS Same-Spin Energy      =      -0.1906713592136394 [Eh]
	 SCS Opposite-Spin Energy  =      -1.9927901100839320 [Eh]
	 SCS Correlation Energy    =      -2.1834614692975713 [Eh]
	 SCS Total Energy          =    -541.7261983650299726 [Eh]
	-----------------------------------------------------------

  Dipole Moment: [D]
     X:     2.5997      Y:    -5.4482      Z:     0.8429     Total:     6.0952

*** Psi4 exiting successfully. Buy a developer a beer!
