                               Psi4 1.3.2 release

  ==> Input File <==

--------------------------------------------------------------------------
#psi4
#
memory 32 gb

molecule  {
0 1
  O        0.1763910     2.6970700    -0.0085580
  C        0.2089260     1.4725840     0.0042240
  N        1.4659430     0.7906670    -0.0052000
  C        1.6696020    -0.5667920     0.0018180
  N        0.7040600    -1.4531590     0.0111340
  C       -0.5482225    -0.8150410    -0.0029917
  C       -0.8535700     0.4975280     0.0150930
  N       -2.2178770     0.6874110     0.0132550
  C       -2.7081380    -0.5423290     0.0003530
  N       -1.7302440    -1.5082620    -0.0074590
  N        2.9897270    -0.9822980    -0.0798890
  H        2.2638450     1.4140280    -0.1046570
  H       -3.7608750    -0.7937900    -0.0035550
  H       -1.8528420    -2.5141400    -0.0211820
  H        3.0628590    -1.9839740     0.0678780
  H        3.6422020    -0.4648880     0.5003130
units angstrom
no_reorient  #important for SAPT in psi4, default
symmetry c1  #important for SAPT in psi4, default
}

set PROPERTIES_ORIGIN ["COM"]
properties('MP2/aug-cc-pvtz', properties = ['dipole'])
--------------------------------------------------------------------------

    Molecular point group: c1
  Charge       = 0
  Multiplicity = 1
  Basis Set: AUG-CC-PVTZ
    Blend: AUG-CC-PVTZ
  Basis Set: (AUG-CC-PVTZ AUX)
    Blend: AUG-CC-PVTZ-JKFIT

    Orbital Energies [Eh]
    ---------------------

    Doubly Occupied:

       1A    -20.528517     2A    -15.635189     3A    -15.630666
       4A    -15.610239     5A    -15.572761     6A    -15.564218
       7A    -11.395003     8A    -11.371207     9A    -11.322765
      10A    -11.315544    11A    -11.249677    12A     -1.394961
      13A     -1.363133    14A     -1.334650    15A     -1.219998
      16A     -1.209294    17A     -1.177256    18A     -1.038498
      19A     -0.907279    20A     -0.879992    21A     -0.847800
      22A     -0.795473    23A     -0.739598    24A     -0.727827
      25A     -0.704704    26A     -0.677064    27A     -0.655817
      28A     -0.625831    29A     -0.617225    30A     -0.602883
      31A     -0.597021    32A     -0.547447    33A     -0.498569
      34A     -0.458665    35A     -0.444282    36A     -0.436355
      37A     -0.430235    38A     -0.413432    39A     -0.311194

  @DF-RHF Final Energy:  -539.58583517444390

   => Energetics <=

    Nuclear Repulsion Energy =            594.0459220551520048
    One-Electron Energy =               -1913.5589753260335328
    Two-Electron Energy =                 779.9272180964376275
    Total Energy =                       -539.5858351744439005
  Basis Set: (AUG-CC-PVTZ AUX)
    Blend: AUG-CC-PVTZ-RI
    Molecular point group: c1

    Geometry (in Angstrom), charge = 0, multiplicity = 1:

       Center              X                  Y                   Z               Mass
    ------------   -----------------  -----------------  -----------------  -----------------
         O            0.200275747822     2.665375041909    -0.005730224636    15.994914619570
         C            0.232810747822     1.440889041909     0.007051775364    12.000000000000
         N            1.489827747822     0.758972041909    -0.002372224636    14.003074004430
         C            1.693486747822    -0.598486958091     0.004645775364    12.000000000000
         N            0.727944747822    -1.484853958091     0.013961775364    14.003074004430
         C           -0.524337752178    -0.846735958091    -0.000163924636    12.000000000000
         C           -0.829685252178     0.465833041909     0.017920775364    12.000000000000
         N           -2.193992252178     0.655716041909     0.016082775364    14.003074004430
         C           -2.684253252178    -0.574023958091     0.003180775364    12.000000000000
         N           -1.706359252178    -1.539956958091    -0.004631224636    14.003074004430
         N            3.013611747822    -1.013992958091    -0.077061224636    14.003074004430
         H            2.287729747822     1.382333041909    -0.101829224636     1.007825032230
         H           -3.736990252178    -0.825484958091    -0.000727224636     1.007825032230
         H           -1.828957252178    -2.545834958091    -0.018354224636     1.007825032230
         H            3.086743747822    -2.015668958091     0.070705775364     1.007825032230
         H            3.666086747822    -0.496582958091     0.503140775364     1.007825032230

  Basis Set: AUG-CC-PVTZ
    Blend: AUG-CC-PVTZ
  Basis Set: (AUG-CC-PVTZ AUX)
    Blend: AUG-CC-PVTZ-JKFIT
	 Reference Energy          =    -539.5858351744439005 [Eh]
	 Singles Energy            =      -0.0000000000000000 [Eh]
	 Same-Spin Energy          =      -0.5720800185502017 [Eh]
	 Opposite-Spin Energy      =      -1.6628772304907844 [Eh]
	 Correlation Energy        =      -2.2349572490409861 [Eh]
	 Total Energy              =    -541.8207924234849315 [Eh]

	 ================> DF-SCS-MP2 Energies <==================
	-----------------------------------------------------------
	 SCS Same-Spin Scale       =       0.3333333333333333 [-]
	 SCS Opposite-Spin Scale   =       1.2000000000000000 [-]
	 SCS Same-Spin Energy      =      -0.1906933395167339 [Eh]
	 SCS Opposite-Spin Energy  =      -1.9954526765889411 [Eh]
	 SCS Correlation Energy    =      -2.1861460161056749 [Eh]
	 SCS Total Energy          =    -541.7719811905495817 [Eh]
	-----------------------------------------------------------

  Dipole Moment: [D]
     X:     2.5980      Y:    -5.5118      Z:     0.8442     Total:     6.1516

*** Psi4 exiting successfully. Buy a developer a beer!
