                               Psi4 1.4a3.dev225

  ==> Input File <==

--------------------------------------------------------------------------
#psi4
#
memory 32 gb

molecule  {
0 1
  O        0.1763800     2.6970850    -0.0086780
  C        0.2088860     1.4725900     0.0042210
  N        1.4659360     0.7906750    -0.0050880
  C        1.6725847    -0.5865283     0.0019217
  N        0.7040680    -1.4531450     0.0111020
  C       -0.5247290    -0.8567090    -0.0037110
  C       -0.8535850     0.4975420     0.0152200
  N       -2.2178950     0.6873840     0.0133320
  C       -2.7081200    -0.5423560     0.0003580
  N       -1.7302140    -1.5082770    -0.0075250
  N        2.9897250    -0.9823190    -0.0798750
  H        2.2637990     1.4140370    -0.1048620
  H       -3.7608500    -0.7938460    -0.0035590
  H       -1.8527810    -2.5141570    -0.0214260
  H        3.0628080    -1.9839860     0.0679760
  H        3.6422460    -0.4648460     0.5002060
units angstrom
no_reorient  #important for SAPT in psi4, default
symmetry c1  #important for SAPT in psi4, default
}

set PROPERTIES_ORIGIN ["COM"]
properties('MP2/aug-cc-pvtz', properties = ['dipole'])
--------------------------------------------------------------------------

    Molecular point group: c1
  Charge       = 0
  Multiplicity = 1
  Basis Set: AUG-CC-PVTZ
    Blend: AUG-CC-PVTZ
  Basis Set: (AUG-CC-PVTZ AUX)
    Blend: AUG-CC-PVTZ-JKFIT

    Orbital Energies [Eh]
    ---------------------

    Doubly Occupied:

       1A    -20.523335     2A    -15.636820     3A    -15.628739
       4A    -15.613206     5A    -15.574003     6A    -15.565502
       7A    -11.398231     8A    -11.366805     9A    -11.327839
      10A    -11.314414    11A    -11.251841    12A     -1.391748
      13A     -1.361027    14A     -1.335618    15A     -1.222884
      16A     -1.216565    17A     -1.178503    18A     -1.031696
      19A     -0.905856    20A     -0.883159    21A     -0.845151
      22A     -0.799317    23A     -0.737713    24A     -0.732282
      25A     -0.701039    26A     -0.671700    27A     -0.655621
      28A     -0.636899    29A     -0.613999    30A     -0.600932
      31A     -0.596035    32A     -0.548973    33A     -0.499332
      34A     -0.463552    35A     -0.442078    36A     -0.432854
      37A     -0.430616    38A     -0.412273    39A     -0.303953

  @DF-RHF Final Energy:  -539.58716814551326

   => Energetics <=

    Nuclear Repulsion Energy =            593.5393061293716528
    One-Electron Energy =               -1912.5487320611302948
    Two-Electron Energy =                 779.4222577862453818
    Total Energy =                       -539.5871681455132602
  Basis Set: (AUG-CC-PVTZ AUX)
    Blend: AUG-CC-PVTZ-RI
    Molecular point group: c1

    Geometry (in Angstrom), charge = 0, multiplicity = 1:

       Center              X                  Y                   Z               Mass
    ------------   -----------------  -----------------  -----------------  -----------------
         O            0.198164231518     2.670271253092    -0.005805511571    15.994914619570
         C            0.230670231518     1.445776253092     0.007093488429    12.000000000000
         N            1.487720231518     0.763861253092    -0.002215511571    14.003074004430
         C            1.694368931518    -0.613342046908     0.004794188429    12.000000000000
         N            0.725852231518    -1.479958746908     0.013974488429    14.003074004430
         C           -0.502944768482    -0.883522746908    -0.000838511571    12.000000000000
         C           -0.831800768482     0.470728253092     0.018092488429    12.000000000000
         N           -2.196110768482     0.660570253092     0.016204488429    14.003074004430
         C           -2.686335768482    -0.569169746908     0.003230488429    12.000000000000
         N           -1.708429768482    -1.535090746908    -0.004652511571    14.003074004430
         N            3.011509231518    -1.009132746908    -0.077002511571    14.003074004430
         H            2.285583231518     1.387223253092    -0.101989511571     1.007825032230
         H           -3.739065768482    -0.820659746908    -0.000686511571     1.007825032230
         H           -1.830996768482    -2.540970746908    -0.018553511571     1.007825032230
         H            3.084592231518    -2.010799746908     0.070848488429     1.007825032230
         H            3.664030231518    -0.491659746908     0.503078488429     1.007825032230

  Basis Set: AUG-CC-PVTZ
    Blend: AUG-CC-PVTZ
  Basis Set: (AUG-CC-PVTZ AUX)
    Blend: AUG-CC-PVTZ-JKFIT
	 Reference Energy          =    -539.5871681455132602 [Eh]
	 Singles Energy            =      -0.0000000000000000 [Eh]
	 Same-Spin Energy          =      -0.5729733267203246 [Eh]
	 Opposite-Spin Energy      =      -1.6631460338316348 [Eh]
	 Correlation Energy        =      -2.2361193605519594 [Eh]
	 Total Energy              =    -541.8232875060651850 [Eh]

	 ================> DF-SCS-MP2 Energies <==================
	-----------------------------------------------------------
	 SCS Same-Spin Scale       =       0.3333333333333333 [-]
	 SCS Opposite-Spin Scale   =       1.2000000000000000 [-]
	 SCS Same-Spin Energy      =      -0.1909911089067749 [Eh]
	 SCS Opposite-Spin Energy  =      -1.9957752405979616 [Eh]
	 SCS Correlation Energy    =      -2.1867663495047367 [Eh]
	 SCS Total Energy          =    -541.7739344950180111 [Eh]
	-----------------------------------------------------------

  Dipole Moment: [D]
     X:     2.6890      Y:    -5.7332      Z:     0.8441     Total:     6.3885

*** Psi4 exiting successfully. Buy a developer a beer!
