                               Psi4 1.3.2 release

  ==> Input File <==

--------------------------------------------------------------------------
#psi4
#
memory 32 gb

molecule  {
0 1
  O        0.1763910     2.6970700    -0.0085580
  C        0.2089260     1.4725840     0.0042240
  N        1.4659430     0.7906670    -0.0052000
  C        1.6696020    -0.5667920     0.0018180
  N        0.7777246    -1.3855349     0.0104232
  C       -0.5247500    -0.8567100    -0.0036900
  C       -0.8535700     0.4975280     0.0150930
  N       -2.2178770     0.6874110     0.0132550
  C       -2.7081380    -0.5423290     0.0003530
  N       -1.7302440    -1.5082620    -0.0074590
  N        2.9897270    -0.9822980    -0.0798890
  H        2.2638450     1.4140280    -0.1046570
  H       -3.7608750    -0.7937900    -0.0035550
  H       -1.8528420    -2.5141400    -0.0211820
  H        3.0628590    -1.9839740     0.0678780
  H        3.6422020    -0.4648880     0.5003130
units angstrom
no_reorient  #important for SAPT in psi4, default
symmetry c1  #important for SAPT in psi4, default
}

set PROPERTIES_ORIGIN ["COM"]
properties('MP2/aug-cc-pvtz', properties = ['dipole'])
--------------------------------------------------------------------------

    Molecular point group: c1
  Charge       = 0
  Multiplicity = 1
  Basis Set: AUG-CC-PVTZ
    Blend: AUG-CC-PVTZ
  Basis Set: (AUG-CC-PVTZ AUX)
    Blend: AUG-CC-PVTZ-JKFIT

    Orbital Energies [Eh]
    ---------------------

    Doubly Occupied:

       1A    -20.525414     2A    -15.645658     3A    -15.620024
       4A    -15.598871     5A    -15.569875     6A    -15.564862
       7A    -11.374449     8A    -11.368430     9A    -11.334025
      10A    -11.319338    11A    -11.257244    12A     -1.396840
      13A     -1.364677    14A     -1.345723    15A     -1.219535
      16A     -1.212484    17A     -1.185749    18A     -1.039871
      19A     -0.909991    20A     -0.875874    21A     -0.849260
      22A     -0.805867    23A     -0.737605    24A     -0.730101
      25A     -0.696601    26A     -0.671782    27A     -0.659666
      28A     -0.640882    29A     -0.615653    30A     -0.604346
      31A     -0.601108    32A     -0.550642    33A     -0.495929
      34A     -0.458210    35A     -0.440675    36A     -0.434741
      37A     -0.428377    38A     -0.416613    39A     -0.314477

  @DF-RHF Final Energy:  -539.57920799436226

   => Energetics <=

    Nuclear Repulsion Energy =            595.2745756839900650
    One-Electron Energy =               -1915.9446279156445598
    Two-Electron Energy =                 781.0908442372923446
    Total Energy =                       -539.5792079943622639
  Basis Set: (AUG-CC-PVTZ AUX)
    Blend: AUG-CC-PVTZ-RI
    Molecular point group: c1

    Geometry (in Angstrom), charge = 0, multiplicity = 1:

       Center              X                  Y                   Z               Mass
    ------------   -----------------  -----------------  -----------------  -----------------
         O            0.191581898260     2.662416292998    -0.005608853854    15.994914619570
         C            0.224116898260     1.437930292998     0.007173146146    12.000000000000
         N            1.481133898260     0.756013292998    -0.002250853854    14.003074004430
         C            1.684792898260    -0.601445707002     0.004767146146    12.000000000000
         N            0.792915498260    -1.420188607002     0.013372346146    14.003074004430
         C           -0.509559101740    -0.891363707002    -0.000740853854    12.000000000000
         C           -0.838379101740     0.462874292998     0.018042146146    12.000000000000
         N           -2.202686101740     0.652757292998     0.016204146146    14.003074004430
         C           -2.692947101740    -0.576982707002     0.003302146146    12.000000000000
         N           -1.715053101740    -1.542915707002    -0.004509853854    14.003074004430
         N            3.004917898260    -1.016951707002    -0.076939853854    14.003074004430
         H            2.279035898260     1.379374292998    -0.101707853854     1.007825032230
         H           -3.745684101740    -0.828443707002    -0.000605853854     1.007825032230
         H           -1.837651101740    -2.548793707002    -0.018232853854     1.007825032230
         H            3.078049898260    -2.018627707002     0.070827146146     1.007825032230
         H            3.657392898260    -0.499541707002     0.503262146146     1.007825032230

  Basis Set: AUG-CC-PVTZ
    Blend: AUG-CC-PVTZ
  Basis Set: (AUG-CC-PVTZ AUX)
    Blend: AUG-CC-PVTZ-JKFIT
	 Reference Energy          =    -539.5792079943622639 [Eh]
	 Singles Energy            =      -0.0000000000000000 [Eh]
	 Same-Spin Energy          =      -0.5716533674083941 [Eh]
	 Opposite-Spin Energy      =      -1.6608929971559965 [Eh]
	 Correlation Energy        =      -2.2325463645643904 [Eh]
	 Total Energy              =    -541.8117543589266916 [Eh]

	 ================> DF-SCS-MP2 Energies <==================
	-----------------------------------------------------------
	 SCS Same-Spin Scale       =       0.3333333333333333 [-]
	 SCS Opposite-Spin Scale   =       1.2000000000000000 [-]
	 SCS Same-Spin Energy      =      -0.1905511224694647 [Eh]
	 SCS Opposite-Spin Energy  =      -1.9930715965871957 [Eh]
	 SCS Correlation Energy    =      -2.1836227190566602 [Eh]
	 SCS Total Energy          =    -541.7628307134189072 [Eh]
	-----------------------------------------------------------

  Dipole Moment: [D]
     X:     2.0868      Y:    -5.7765      Z:     0.8566     Total:     6.2013

*** Psi4 exiting successfully. Buy a developer a beer!
