                               Psi4 1.3.2 release

  ==> Input File <==

--------------------------------------------------------------------------
#psi4
#
memory 32 gb

molecule  {
0 1
  O        0.1763910     2.6970700    -0.0085580
  C        0.2089260     1.4725840     0.0042240
  N        1.5538400     0.7429839    -0.0058590
  C        1.6696020    -0.5667920     0.0018180
  N        0.7040600    -1.4531590     0.0111340
  C       -0.5247500    -0.8567100    -0.0036900
  C       -0.8535700     0.4975280     0.0150930
  N       -2.2178770     0.6874110     0.0132550
  C       -2.7081380    -0.5423290     0.0003530
  N       -1.7302440    -1.5082620    -0.0074590
  N        2.9897270    -0.9822980    -0.0798890
  H        2.2638450     1.4140280    -0.1046570
  H       -3.7608750    -0.7937900    -0.0035550
  H       -1.8528420    -2.5141400    -0.0211820
  H        3.0628590    -1.9839740     0.0678780
  H        3.6422020    -0.4648880     0.5003130
units angstrom
no_reorient  #important for SAPT in psi4, default
symmetry c1  #important for SAPT in psi4, default
}

set PROPERTIES_ORIGIN ["COM"]
properties('MP2/aug-cc-pvtz', properties = ['dipole'])
--------------------------------------------------------------------------

    Molecular point group: c1
  Charge       = 0
  Multiplicity = 1
  Basis Set: AUG-CC-PVTZ
    Blend: AUG-CC-PVTZ
  Basis Set: (AUG-CC-PVTZ AUX)
    Blend: AUG-CC-PVTZ-JKFIT

    Orbital Energies [Eh]
    ---------------------

    Doubly Occupied:

       1A    -20.537933     2A    -15.636787     3A    -15.626729
       4A    -15.602760     5A    -15.568274     6A    -15.566892
       7A    -11.390484     8A    -11.379850     9A    -11.330517
      10A    -11.315824    11A    -11.253371    12A     -1.394643
      13A     -1.364215    14A     -1.343071    15A     -1.220132
      16A     -1.210247    17A     -1.180040    18A     -1.031174
      19A     -0.905482    20A     -0.886266    21A     -0.846485
      22A     -0.802545    23A     -0.744656    24A     -0.727623
      25A     -0.698763    26A     -0.671072    27A     -0.654745
      28A     -0.629292    29A     -0.617783    30A     -0.603406
      31A     -0.597985    32A     -0.546313    33A     -0.500328
      34A     -0.459368    35A     -0.446627    36A     -0.437773
      37A     -0.434482    38A     -0.413624    39A     -0.302844

  @DF-RHF Final Energy:  -539.57664354870599

   => Energetics <=

    Nuclear Repulsion Energy =            592.8405639453504818
    One-Electron Energy =               -1911.0736064876141427
    Two-Electron Energy =                 778.6563989935577865
    Total Energy =                       -539.5766435487059880
  Basis Set: (AUG-CC-PVTZ AUX)
    Blend: AUG-CC-PVTZ-RI
    Molecular point group: c1

    Geometry (in Angstrom), charge = 0, multiplicity = 1:

       Center              X                  Y                   Z               Mass
    ------------   -----------------  -----------------  -----------------  -----------------
         O            0.190262479993     2.673105876340    -0.005613655987    15.994914619570
         C            0.222797479993     1.448619876340     0.007168344013    12.000000000000
         N            1.567711479993     0.719019776340    -0.002914655987    14.003074004430
         C            1.683473479993    -0.590756123660     0.004762344013    12.000000000000
         N            0.717931479993    -1.477123123660     0.014078344013    14.003074004430
         C           -0.510878520007    -0.880674123660    -0.000745655987    12.000000000000
         C           -0.839698520007     0.473563876340     0.018037344013    12.000000000000
         N           -2.204005520007     0.663446876340     0.016199344013    14.003074004430
         C           -2.694266520007    -0.566293123660     0.003297344013    12.000000000000
         N           -1.716372520007    -1.532226123660    -0.004514655987    14.003074004430
         N            3.003598479993    -1.006262123660    -0.076944655987    14.003074004430
         H            2.277716479993     1.390063876340    -0.101712655987     1.007825032230
         H           -3.747003520007    -0.817754123660    -0.000610655987     1.007825032230
         H           -1.838970520007    -2.538104123660    -0.018237655987     1.007825032230
         H            3.076730479993    -2.007938123660     0.070822344013     1.007825032230
         H            3.656073479993    -0.488852123660     0.503257344013     1.007825032230

  Basis Set: AUG-CC-PVTZ
    Blend: AUG-CC-PVTZ
  Basis Set: (AUG-CC-PVTZ AUX)
    Blend: AUG-CC-PVTZ-JKFIT
	 Reference Energy          =    -539.5766435487059880 [Eh]
	 Singles Energy            =      -0.0000000000000000 [Eh]
	 Same-Spin Energy          =      -0.5731217103721600 [Eh]
	 Opposite-Spin Energy      =      -1.6639399478461692 [Eh]
	 Correlation Energy        =      -2.2370616582183294 [Eh]
	 Total Energy              =    -541.8137052069242827 [Eh]

	 ================> DF-SCS-MP2 Energies <==================
	-----------------------------------------------------------
	 SCS Same-Spin Scale       =       0.3333333333333333 [-]
	 SCS Opposite-Spin Scale   =       1.2000000000000000 [-]
	 SCS Same-Spin Energy      =      -0.1910405701240533 [Eh]
	 SCS Opposite-Spin Energy  =      -1.9967279374154030 [Eh]
	 SCS Correlation Energy    =      -2.1877685075394564 [Eh]
	 SCS Total Energy          =    -541.7644120562454191 [Eh]
	-----------------------------------------------------------

  Dipole Moment: [D]
     X:     2.3313      Y:    -5.1786      Z:     0.8377     Total:     5.7406

*** Psi4 exiting successfully. Buy a developer a beer!
