                               Psi4 1.4a3.dev225

  ==> Input File <==

--------------------------------------------------------------------------
#psi4
#
memory 32 gb

molecule  {
0 1
  O        0.1763800     2.6970850    -0.0086780
  C        0.2088860     1.4725900     0.0042210
  N        1.4659360     0.7906750    -0.0050880
  C        1.6696170    -0.5667500     0.0018210
  N        0.7040680    -1.4531450     0.0111020
  C       -0.5247290    -0.8567090    -0.0037110
  C       -0.8535850     0.4975420     0.0152200
  N       -2.2178950     0.6873840     0.0133320
  C       -2.7081200    -0.5423560     0.0003580
  N       -1.7302140    -1.5082770    -0.0075250
  N        2.9897250    -0.9823190    -0.0798750
  H        2.2637990     1.4140370    -0.1048620
  H       -3.7608500    -0.7938460    -0.0035590
  H       -1.8527810    -2.5141570    -0.0214260
  H        3.0664076    -2.0333217     0.0752582
  H        3.6422460    -0.4648460     0.5002060
units angstrom
no_reorient  #important for SAPT in psi4, default
symmetry c1  #important for SAPT in psi4, default
}

set PROPERTIES_ORIGIN ["COM"]
properties('MP2/aug-cc-pvtz', properties = ['dipole'])
--------------------------------------------------------------------------

    Molecular point group: c1
  Charge       = 0
  Multiplicity = 1
  Basis Set: AUG-CC-PVTZ
    Blend: AUG-CC-PVTZ
  Basis Set: (AUG-CC-PVTZ AUX)
    Blend: AUG-CC-PVTZ-JKFIT

    Orbital Energies [Eh]
    ---------------------

    Doubly Occupied:

       1A    -20.524289     2A    -15.636081     3A    -15.631890
       4A    -15.616507     5A    -15.573254     6A    -15.565175
       7A    -11.398384     8A    -11.367906     9A    -11.327389
      10A    -11.314160    11A    -11.251264    12A     -1.393275
      13A     -1.360763    14A     -1.334674    15A     -1.218486
      16A     -1.214974    17A     -1.178085    18A     -1.030484
      19A     -0.906372    20A     -0.883080    21A     -0.844837
      22A     -0.798316    23A     -0.739729    24A     -0.728840
      25A     -0.694464    26A     -0.668518    27A     -0.655218
      28A     -0.633542    29A     -0.614196    30A     -0.601277
      31A     -0.596290    32A     -0.547466    33A     -0.499601
      34A     -0.461655    35A     -0.443090    36A     -0.432910
      37A     -0.432457    38A     -0.412096    39A     -0.302670

  @DF-RHF Final Energy:  -539.58400141479683

   => Energetics <=

    Nuclear Repulsion Energy =            593.3916847127168239
    One-Electron Energy =               -1912.2840446264924594
    Two-Electron Energy =                 779.3083584989788051
    Total Energy =                       -539.5840014147968304
  Basis Set: (AUG-CC-PVTZ AUX)
    Blend: AUG-CC-PVTZ-RI
    Molecular point group: c1

    Geometry (in Angstrom), charge = 0, multiplicity = 1:

       Center              X                  Y                   Z               Mass
    ------------   -----------------  -----------------  -----------------  -----------------
         O            0.198375980992     2.669029157232    -0.005846099505    15.994914619570
         C            0.230881980992     1.444534157232     0.007052900495    12.000000000000
         N            1.487931980992     0.762619157232    -0.002256099505    14.003074004430
         C            1.691612980992    -0.594805842768     0.004652900495    12.000000000000
         N            0.726063980992    -1.481200842768     0.013933900495    14.003074004430
         C           -0.502733019008    -0.884764842768    -0.000879099505    12.000000000000
         C           -0.831589019008     0.469486157232     0.018051900495    12.000000000000
         N           -2.195899019008     0.659328157232     0.016163900495    14.003074004430
         C           -2.686124019008    -0.570411842768     0.003189900495    12.000000000000
         N           -1.708218019008    -1.536332842768    -0.004693099505    14.003074004430
         N            3.011720980992    -1.010374842768    -0.077043099505    14.003074004430
         H            2.285794980992     1.385981157232    -0.102030099505     1.007825032230
         H           -3.738854019008    -0.821901842768    -0.000727099505     1.007825032230
         H           -1.830785019008    -2.542212842768    -0.018594099505     1.007825032230
         H            3.088403580992    -2.061377542768     0.078090100495     1.007825032230
         H            3.664241980992    -0.492901842768     0.503037900495     1.007825032230

  Basis Set: AUG-CC-PVTZ
    Blend: AUG-CC-PVTZ
  Basis Set: (AUG-CC-PVTZ AUX)
    Blend: AUG-CC-PVTZ-JKFIT
	 Reference Energy          =    -539.5840014147968304 [Eh]
	 Singles Energy            =      -0.0000000000000000 [Eh]
	 Same-Spin Energy          =      -0.5733432667523214 [Eh]
	 Opposite-Spin Energy      =      -1.6640677528887398 [Eh]
	 Correlation Energy        =      -2.2374110196410610 [Eh]
	 Total Energy              =    -541.8214124344378888 [Eh]

	 ================> DF-SCS-MP2 Energies <==================
	-----------------------------------------------------------
	 SCS Same-Spin Scale       =       0.3333333333333333 [-]
	 SCS Opposite-Spin Scale   =       1.2000000000000000 [-]
	 SCS Same-Spin Energy      =      -0.1911144222507738 [Eh]
	 SCS Opposite-Spin Energy  =      -1.9968813034664876 [Eh]
	 SCS Correlation Energy    =      -2.1879957257172613 [Eh]
	 SCS Total Energy          =    -541.7719971405141450 [Eh]
	-----------------------------------------------------------

  Dipole Moment: [D]
     X:     2.6817      Y:    -5.6816      Z:     0.8451     Total:     6.3392

*** Psi4 exiting successfully. Buy a developer a beer!
