                               Psi4 1.4a3.dev225

  ==> Input File <==

--------------------------------------------------------------------------
#psi4
#
memory 32 gb

molecule  {
0 1
  O        0.1763800     2.6970850    -0.0086780
  C        0.2088860     1.4725900     0.0042210
  N        1.4659360     0.7906750    -0.0050880
  C        1.6696170    -0.5667500     0.0018210
  N        0.7040680    -1.4531450     0.0111020
  C       -0.5247290    -0.8567090    -0.0037110
  C       -0.8535850     0.4975420     0.0152200
  N       -2.2178950     0.6873840     0.0133320
  C       -2.6896058    -0.4959127     0.0008480
  N       -1.7302140    -1.5082770    -0.0075250
  N        2.9897250    -0.9823190    -0.0798750
  H        2.2637990     1.4140370    -0.1048620
  H       -3.7608500    -0.7938460    -0.0035590
  H       -1.8527810    -2.5141570    -0.0214260
  H        3.0628080    -1.9839860     0.0679760
  H        3.6422460    -0.4648460     0.5002060
units angstrom
no_reorient  #important for SAPT in psi4, default
symmetry c1  #important for SAPT in psi4, default
}

set PROPERTIES_ORIGIN ["COM"]
properties('MP2/aug-cc-pvtz', properties = ['dipole'])
--------------------------------------------------------------------------

    Molecular point group: c1
  Charge       = 0
  Multiplicity = 1
  Basis Set: AUG-CC-PVTZ
    Blend: AUG-CC-PVTZ
  Basis Set: (AUG-CC-PVTZ AUX)
    Blend: AUG-CC-PVTZ-JKFIT

    Orbital Energies [Eh]
    ---------------------

    Doubly Occupied:

       1A    -20.523044     2A    -15.631728     3A    -15.631241
       4A    -15.612888     5A    -15.573556     6A    -15.563263
       7A    -11.399412     8A    -11.367037     9A    -11.328994
      10A    -11.313224    11A    -11.250504    12A     -1.393534
      13A     -1.362063    14A     -1.337133    15A     -1.223447
      16A     -1.220667    17A     -1.183435    18A     -1.032788
      19A     -0.902438    20A     -0.886947    21A     -0.842080
      22A     -0.798248    23A     -0.741867    24A     -0.729335
      25A     -0.698956    26A     -0.673090    27A     -0.656227
      28A     -0.631494    29A     -0.614451    30A     -0.601350
      31A     -0.596222    32A     -0.547671    33A     -0.500567
      34A     -0.465249    35A     -0.443325    36A     -0.435238
      37A     -0.433397    38A     -0.413074    39A     -0.306950

  @DF-RHF Final Energy:  -539.58799063784534

   => Energetics <=

    Nuclear Repulsion Energy =            594.3953037800250740
    One-Electron Energy =               -1914.2343230111428056
    Two-Electron Energy =                 780.2510285932722809
    Total Energy =                       -539.5879906378453370
  Basis Set: (AUG-CC-PVTZ AUX)
    Blend: AUG-CC-PVTZ-RI
    Molecular point group: c1

    Geometry (in Angstrom), charge = 0, multiplicity = 1:

       Center              X                  Y                   Z               Mass
    ------------   -----------------  -----------------  -----------------  -----------------
         O            0.196929152214     2.665010330848    -0.005836439199    15.994914619570
         C            0.229435152214     1.440515330848     0.007062560801    12.000000000000
         N            1.486485152214     0.758600330848    -0.002246439199    14.003074004430
         C            1.690166152214    -0.598824669152     0.004662560801    12.000000000000
         N            0.724617152214    -1.485219669152     0.013943560801    14.003074004430
         C           -0.504179847786    -0.888783669152    -0.000869439199    12.000000000000
         C           -0.833035847786     0.465467330848     0.018061560801    12.000000000000
         N           -2.197345847786     0.655309330848     0.016173560801    14.003074004430
         C           -2.669056647786    -0.527987369152     0.003689560801    12.000000000000
         N           -1.709664847786    -1.540351669152    -0.004683439199    14.003074004430
         N            3.010274152214    -1.014393669152    -0.077033439199    14.003074004430
         H            2.284348152214     1.381962330848    -0.102020439199     1.007825032230
         H           -3.740300847786    -0.825920669152    -0.000717439199     1.007825032230
         H           -1.832231847786    -2.546231669152    -0.018584439199     1.007825032230
         H            3.083357152214    -2.016060669152     0.070817560801     1.007825032230
         H            3.662795152214    -0.496920669152     0.503047560801     1.007825032230

  Basis Set: AUG-CC-PVTZ
    Blend: AUG-CC-PVTZ
  Basis Set: (AUG-CC-PVTZ AUX)
    Blend: AUG-CC-PVTZ-JKFIT
	 Reference Energy          =    -539.5879906378453370 [Eh]
	 Singles Energy            =      -0.0000000000000000 [Eh]
	 Same-Spin Energy          =      -0.5717593450288755 [Eh]
	 Opposite-Spin Energy      =      -1.6609345689293056 [Eh]
	 Correlation Energy        =      -2.2326939139581810 [Eh]
	 Total Energy              =    -541.8206845518035379 [Eh]

	 ================> DF-SCS-MP2 Energies <==================
	-----------------------------------------------------------
	 SCS Same-Spin Scale       =       0.3333333333333333 [-]
	 SCS Opposite-Spin Scale   =       1.2000000000000000 [-]
	 SCS Same-Spin Energy      =      -0.1905864483429585 [Eh]
	 SCS Opposite-Spin Energy  =      -1.9931214827151666 [Eh]
	 SCS Correlation Energy    =      -2.1837079310581253 [Eh]
	 SCS Total Energy          =    -541.7716985689035027 [Eh]
	-----------------------------------------------------------

  Dipole Moment: [D]
     X:     2.6507      Y:    -5.5426      Z:     0.8440     Total:     6.2015

*** Psi4 exiting successfully. Buy a developer a beer!
