                               Psi4 1.4a3.dev225

  ==> Input File <==

--------------------------------------------------------------------------
#psi4
#
memory 32 gb

molecule  {
0 1
  O        0.1763800     2.6970850    -0.0086780
  C        0.2088860     1.4725900     0.0042210
  N        1.4659360     0.7906750    -0.0050880
  C        1.6696170    -0.5667500     0.0018210
  N        0.7040680    -1.4531450     0.0111020
  C       -0.5247290    -0.8567090    -0.0037110
  C       -0.8535850     0.4975420     0.0152200
  N       -2.2178950     0.6873840     0.0133320
  C       -2.7081200    -0.5423560     0.0003580
  N       -1.7302140    -1.5082770    -0.0075250
  N        2.9897250    -0.9823190    -0.0798750
  H        2.2245885     1.3834022    -0.0999587
  H       -3.7608500    -0.7938460    -0.0035590
  H       -1.8527810    -2.5141570    -0.0214260
  H        3.0628080    -1.9839860     0.0679760
  H        3.6422460    -0.4648460     0.5002060
units angstrom
no_reorient  #important for SAPT in psi4, default
symmetry c1  #important for SAPT in psi4, default
}

set PROPERTIES_ORIGIN ["COM"]
properties('MP2/aug-cc-pvtz', properties = ['dipole'])
--------------------------------------------------------------------------

    Molecular point group: c1
  Charge       = 0
  Multiplicity = 1
  Basis Set: AUG-CC-PVTZ
    Blend: AUG-CC-PVTZ
  Basis Set: (AUG-CC-PVTZ AUX)
    Blend: AUG-CC-PVTZ-JKFIT

    Orbital Energies [Eh]
    ---------------------

    Doubly Occupied:

       1A    -20.524828     2A    -15.636459     3A    -15.627732
       4A    -15.612796     5A    -15.573894     6A    -15.565482
       7A    -11.398999     8A    -11.368269     9A    -11.327844
      10A    -11.314499    11A    -11.251589    12A     -1.395105
      13A     -1.361268    14A     -1.337112    15A     -1.224580
      16A     -1.219518    17A     -1.179199    18A     -1.031910
      19A     -0.909484    20A     -0.887875    21A     -0.845474
      22A     -0.801106    23A     -0.749377    24A     -0.730668
      25A     -0.701416    26A     -0.673537    27A     -0.657000
      28A     -0.635330    29A     -0.614978    30A     -0.602511
      31A     -0.597206    32A     -0.548331    33A     -0.500322
      34A     -0.462901    35A     -0.443589    36A     -0.433681
      37A     -0.433191    38A     -0.412532    39A     -0.303140

  @DF-RHF Final Energy:  -539.58734229524134

   => Energetics <=

    Nuclear Repulsion Energy =            593.9914346458234604
    One-Electron Energy =               -1913.3680878949601265
    Two-Electron Energy =                 779.7893109538954377
    Total Energy =                       -539.5873422952413421
  Basis Set: (AUG-CC-PVTZ AUX)
    Blend: AUG-CC-PVTZ-RI
    Molecular point group: c1

    Geometry (in Angstrom), charge = 0, multiplicity = 1:

       Center              X                  Y                   Z               Mass
    ------------   -----------------  -----------------  -----------------  -----------------
         O            0.198661616603     2.668904381934    -0.005830227116    15.994914619570
         C            0.231167616603     1.444409381934     0.007068772884    12.000000000000
         N            1.488217616603     0.762494381934    -0.002240227116    14.003074004430
         C            1.691898616603    -0.594930618066     0.004668772884    12.000000000000
         N            0.726349616603    -1.481325618066     0.013949772884    14.003074004430
         C           -0.502447383397    -0.884889618066    -0.000863227116    12.000000000000
         C           -0.831303383397     0.469361381934     0.018067772884    12.000000000000
         N           -2.195613383397     0.659203381934     0.016179772884    14.003074004430
         C           -2.685838383397    -0.570536618066     0.003205772884    12.000000000000
         N           -1.707932383397    -1.536457618066    -0.004677227116    14.003074004430
         N            3.012006616603    -1.010499618066    -0.077027227116    14.003074004430
         H            2.246870116603     1.355221581934    -0.097110927116     1.007825032230
         H           -3.738568383397    -0.822026618066    -0.000711227116     1.007825032230
         H           -1.830499383397    -2.542337618066    -0.018578227116     1.007825032230
         H            3.085089616603    -2.012166618066     0.070823772884     1.007825032230
         H            3.664527616603    -0.493026618066     0.503053772884     1.007825032230

  Basis Set: AUG-CC-PVTZ
    Blend: AUG-CC-PVTZ
  Basis Set: (AUG-CC-PVTZ AUX)
    Blend: AUG-CC-PVTZ-JKFIT
	 Reference Energy          =    -539.5873422952413421 [Eh]
	 Singles Energy            =      -0.0000000000000000 [Eh]
	 Same-Spin Energy          =      -0.5726050963568242 [Eh]
	 Opposite-Spin Energy      =      -1.6623511722227853 [Eh]
	 Correlation Energy        =      -2.2349562685796096 [Eh]
	 Total Energy              =    -541.8222985638209366 [Eh]

	 ================> DF-SCS-MP2 Energies <==================
	-----------------------------------------------------------
	 SCS Same-Spin Scale       =       0.3333333333333333 [-]
	 SCS Opposite-Spin Scale   =       1.2000000000000000 [-]
	 SCS Same-Spin Energy      =      -0.1908683654522747 [Eh]
	 SCS Opposite-Spin Energy  =      -1.9948214066673422 [Eh]
	 SCS Correlation Energy    =      -2.1856897721196171 [Eh]
	 SCS Total Energy          =    -541.7730320673609867 [Eh]
	-----------------------------------------------------------

  Dipole Moment: [D]
     X:     2.6279      Y:    -5.6714      Z:     0.8501     Total:     6.3082

*** Psi4 exiting successfully. Buy a developer a beer!
