                               Psi4 1.3.2 release

  ==> Input File <==

--------------------------------------------------------------------------
#psi4
#
memory 32 gb

molecule  {
0 1
  O        0.1763910     2.6970700    -0.0085580
  C        0.2089260     1.4725840     0.0042240
  N        1.4889743     0.8349528    -0.0054789
  C        1.6696020    -0.5667920     0.0018180
  N        0.7040600    -1.4531590     0.0111340
  C       -0.5247500    -0.8567100    -0.0036900
  C       -0.8535700     0.4975280     0.0150930
  N       -2.2178770     0.6874110     0.0132550
  C       -2.7081380    -0.5423290     0.0003530
  N       -1.7302440    -1.5082620    -0.0074590
  N        2.9897270    -0.9822980    -0.0798890
  H        2.2638450     1.4140280    -0.1046570
  H       -3.7608750    -0.7937900    -0.0035550
  H       -1.8528420    -2.5141400    -0.0211820
  H        3.0628590    -1.9839740     0.0678780
  H        3.6422020    -0.4648880     0.5003130
units angstrom
no_reorient  #important for SAPT in psi4, default
symmetry c1  #important for SAPT in psi4, default
}

set PROPERTIES_ORIGIN ["COM"]
properties('MP2/aug-cc-pvtz', properties = ['dipole'])
--------------------------------------------------------------------------

    Molecular point group: c1
  Charge       = 0
  Multiplicity = 1
  Basis Set: AUG-CC-PVTZ
    Blend: AUG-CC-PVTZ
  Basis Set: (AUG-CC-PVTZ AUX)
    Blend: AUG-CC-PVTZ-JKFIT

    Orbital Energies [Eh]
    ---------------------

    Doubly Occupied:

       1A    -20.521046     2A    -15.637450     3A    -15.627408
       4A    -15.613259     5A    -15.577578     6A    -15.566512
       7A    -11.402831     8A    -11.366162     9A    -11.328717
      10A    -11.314790    11A    -11.252824    12A     -1.390905
      13A     -1.361169    14A     -1.331682    15A     -1.220280
      16A     -1.218604    17A     -1.179810    18A     -1.030583
      19A     -0.908185    20A     -0.881000    21A     -0.845816
      22A     -0.797376    23A     -0.750490    24A     -0.728556
      25A     -0.701095    26A     -0.671281    27A     -0.654367
      28A     -0.637626    29A     -0.612001    30A     -0.603214
      31A     -0.594938    32A     -0.548080    33A     -0.501905
      34A     -0.462437    35A     -0.441997    36A     -0.432830
      37A     -0.430857    38A     -0.413469    39A     -0.303712

  @DF-RHF Final Energy:  -539.58460870918395

   => Energetics <=

    Nuclear Repulsion Energy =            592.7257242097635981
    One-Electron Energy =               -1910.8949806379778238
    Two-Electron Energy =                 778.5846477190303858
    Total Energy =                       -539.5846087091839536
  Basis Set: (AUG-CC-PVTZ AUX)
    Blend: AUG-CC-PVTZ-RI
    Molecular point group: c1

    Geometry (in Angstrom), charge = 0, multiplicity = 1:

       Center              X                  Y                   Z               Mass
    ------------   -----------------  -----------------  -----------------  -----------------
         O            0.196275871232     2.664579876043    -0.005648893254    15.994914619570
         C            0.228810871232     1.440093876043     0.007133106746    12.000000000000
         N            1.508859171232     0.802462676043    -0.002569793254    14.003074004430
         C            1.689486871232    -0.599282123957     0.004727106746    12.000000000000
         N            0.723944871232    -1.485649123957     0.014043106746    14.003074004430
         C           -0.504865128768    -0.889200123957    -0.000780893254    12.000000000000
         C           -0.833685128768     0.465037876043     0.018002106746    12.000000000000
         N           -2.197992128768     0.654920876043     0.016164106746    14.003074004430
         C           -2.688253128768    -0.574819123957     0.003262106746    12.000000000000
         N           -1.710359128768    -1.540752123957    -0.004549893254    14.003074004430
         N            3.009611871232    -1.014788123957    -0.076979893254    14.003074004430
         H            2.283729871232     1.381537876043    -0.101747893254     1.007825032230
         H           -3.740990128768    -0.826280123957    -0.000645893254     1.007825032230
         H           -1.832957128768    -2.546630123957    -0.018272893254     1.007825032230
         H            3.082743871232    -2.016464123957     0.070787106746     1.007825032230
         H            3.662086871232    -0.497378123957     0.503222106746     1.007825032230

  Basis Set: AUG-CC-PVTZ
    Blend: AUG-CC-PVTZ
  Basis Set: (AUG-CC-PVTZ AUX)
    Blend: AUG-CC-PVTZ-JKFIT
	 Reference Energy          =    -539.5846087091839536 [Eh]
	 Singles Energy            =      -0.0000000000000000 [Eh]
	 Same-Spin Energy          =      -0.5724422051143496 [Eh]
	 Opposite-Spin Energy      =      -1.6628394652987395 [Eh]
	 Correlation Energy        =      -2.2352816704130891 [Eh]
	 Total Energy              =    -541.8198903795970409 [Eh]

	 ================> DF-SCS-MP2 Energies <==================
	-----------------------------------------------------------
	 SCS Same-Spin Scale       =       0.3333333333333333 [-]
	 SCS Opposite-Spin Scale   =       1.2000000000000000 [-]
	 SCS Same-Spin Energy      =      -0.1908140683714499 [Eh]
	 SCS Opposite-Spin Energy  =      -1.9954073583584873 [Eh]
	 SCS Correlation Energy    =      -2.1862214267299374 [Eh]
	 SCS Total Energy          =    -541.7708301359139114 [Eh]
	-----------------------------------------------------------

  Dipole Moment: [D]
     X:     2.6294      Y:    -5.7837      Z:     0.8372     Total:     6.4083

*** Psi4 exiting successfully. Buy a developer a beer!
