                               Psi4 1.3.2 release

  ==> Input File <==

--------------------------------------------------------------------------
#psi4
#
memory 32 gb

molecule  {
0 1
  O        0.1763910     2.6970700    -0.0085580
  C        0.2089260     1.4725840     0.0042240
  N        1.4659430     0.7906670    -0.0052000
  C        1.6696020    -0.5667920     0.0018180
  N        0.7040600    -1.4531590     0.0111340
  C       -0.5247500    -0.8567100    -0.0036900
  C       -0.8535700     0.4975280     0.0150930
  N       -2.2178770     0.6874110     0.0132550
  C       -2.7081380    -0.5423290     0.0003530
  N       -1.5879574    -1.6488082    -0.0085957
  N        2.9897270    -0.9822980    -0.0798890
  H        2.2638450     1.4140280    -0.1046570
  H       -3.7608750    -0.7937900    -0.0035550
  H       -1.8528420    -2.5141400    -0.0211820
  H        3.0628590    -1.9839740     0.0678780
  H        3.6422020    -0.4648880     0.5003130
units angstrom
no_reorient  #important for SAPT in psi4, default
symmetry c1  #important for SAPT in psi4, default
}

set PROPERTIES_ORIGIN ["COM"]
properties('MP2/aug-cc-pvtz', properties = ['dipole'])
--------------------------------------------------------------------------

    Molecular point group: c1
  Charge       = 0
  Multiplicity = 1
  Basis Set: AUG-CC-PVTZ
    Blend: AUG-CC-PVTZ
  Basis Set: (AUG-CC-PVTZ AUX)
    Blend: AUG-CC-PVTZ-JKFIT

    Orbital Energies [Eh]
    ---------------------

    Doubly Occupied:

       1A    -20.522995     2A    -15.630348     3A    -15.623757
       4A    -15.612059     5A    -15.588422     6A    -15.567654
       7A    -11.397511     8A    -11.368278     9A    -11.336185
      10A    -11.328998    11A    -11.252193    12A     -1.392178
      13A     -1.353349    14A     -1.325050    15A     -1.226871
      16A     -1.219753    17A     -1.186251    18A     -1.027937
      19A     -0.914777    20A     -0.886781    21A     -0.849741
      22A     -0.798191    23A     -0.742797    24A     -0.733706
      25A     -0.696974    26A     -0.681785    27A     -0.652661
      28A     -0.621601    29A     -0.611107    30A     -0.593798
      31A     -0.583924    32A     -0.548448    33A     -0.502793
      34A     -0.464132    35A     -0.447054    36A     -0.438354
      37A     -0.436477    38A     -0.409422    39A     -0.305006

  @DF-RHF Final Energy:  -539.54346392561035

   => Energetics <=

    Nuclear Repulsion Energy =            592.1355057169605516
    One-Electron Energy =               -1909.5993087217239008
    Two-Electron Energy =                 777.9203390791529955
    Total Energy =                       -539.5434639256103537
  Basis Set: (AUG-CC-PVTZ AUX)
    Blend: AUG-CC-PVTZ-RI
    Molecular point group: c1

    Geometry (in Angstrom), charge = 0, multiplicity = 1:

       Center              X                  Y                   Z               Mass
    ------------   -----------------  -----------------  -----------------  -----------------
         O            0.185220278274     2.681714773675    -0.005569370686    15.994914619570
         C            0.217755278274     1.457228773675     0.007212629314    12.000000000000
         N            1.474772278274     0.775311773675    -0.002211370686    14.003074004430
         C            1.678431278274    -0.582147226325     0.004806629314    12.000000000000
         N            0.712889278274    -1.468514226325     0.014122629314    14.003074004430
         C           -0.515920721726    -0.872065226325    -0.000701370686    12.000000000000
         C           -0.844740721726     0.482172773675     0.018081629314    12.000000000000
         N           -2.209047721726     0.672055773675     0.016243629314    14.003074004430
         C           -2.699308721726    -0.557684226325     0.003341629314    12.000000000000
         N           -1.579128121726    -1.664163426325    -0.005607070686    14.003074004430
         N            2.998556278274    -0.997653226325    -0.076900370686    14.003074004430
         H            2.272674278274     1.398672773675    -0.101668370686     1.007825032230
         H           -3.752045721726    -0.809145226325    -0.000566370686     1.007825032230
         H           -1.844012721726    -2.529495226325    -0.018193370686     1.007825032230
         H            3.071688278274    -1.999329226325     0.070866629314     1.007825032230
         H            3.651031278274    -0.480243226325     0.503301629314     1.007825032230

  Basis Set: AUG-CC-PVTZ
    Blend: AUG-CC-PVTZ
  Basis Set: (AUG-CC-PVTZ AUX)
    Blend: AUG-CC-PVTZ-JKFIT
	 Reference Energy          =    -539.5434639256103537 [Eh]
	 Singles Energy            =      -0.0000000000000000 [Eh]
	 Same-Spin Energy          =      -0.5723899461598354 [Eh]
	 Opposite-Spin Energy      =      -1.6656838312408588 [Eh]
	 Correlation Energy        =      -2.2380737774006940 [Eh]
	 Total Energy              =    -541.7815377030110540 [Eh]

	 ================> DF-SCS-MP2 Energies <==================
	-----------------------------------------------------------
	 SCS Same-Spin Scale       =       0.3333333333333333 [-]
	 SCS Opposite-Spin Scale   =       1.2000000000000000 [-]
	 SCS Same-Spin Energy      =      -0.1907966487199451 [Eh]
	 SCS Opposite-Spin Energy  =      -1.9988205974890305 [Eh]
	 SCS Correlation Energy    =      -2.1896172462089756 [Eh]
	 SCS Total Energy          =    -541.7330811718193218 [Eh]
	-----------------------------------------------------------

  Dipole Moment: [D]
     X:     2.4394      Y:    -5.3005      Z:     0.8436     Total:     5.8956

*** Psi4 exiting successfully. Buy a developer a beer!
