                               Psi4 1.3.2 release

  ==> Input File <==

--------------------------------------------------------------------------
#psi4
#
memory 32 gb

molecule  {
0 1
  O        0.1763910     2.6970700    -0.0085580
  C        0.2089260     1.4725840     0.0042240
  N        1.4659430     0.7906670    -0.0052000
  C        1.6831080    -0.5329643     0.0336770
  N        0.7040600    -1.4531590     0.0111340
  C       -0.5247500    -0.8567100    -0.0036900
  C       -0.8535700     0.4975280     0.0150930
  N       -2.2178770     0.6874110     0.0132550
  C       -2.7081380    -0.5423290     0.0003530
  N       -1.7302440    -1.5082620    -0.0074590
  N        2.9897270    -0.9822980    -0.0798890
  H        2.2638450     1.4140280    -0.1046570
  H       -3.7608750    -0.7937900    -0.0035550
  H       -1.8528420    -2.5141400    -0.0211820
  H        3.0628590    -1.9839740     0.0678780
  H        3.6422020    -0.4648880     0.5003130
units angstrom
no_reorient  #important for SAPT in psi4, default
symmetry c1  #important for SAPT in psi4, default
}

set PROPERTIES_ORIGIN ["COM"]
properties('MP2/aug-cc-pvtz', properties = ['dipole'])
--------------------------------------------------------------------------

    Molecular point group: c1
  Charge       = 0
  Multiplicity = 1
  Basis Set: AUG-CC-PVTZ
    Blend: AUG-CC-PVTZ
  Basis Set: (AUG-CC-PVTZ AUX)
    Blend: AUG-CC-PVTZ-JKFIT

    Orbital Energies [Eh]
    ---------------------

    Doubly Occupied:

       1A    -20.525635     2A    -15.637307     3A    -15.634165
       4A    -15.614511     5A    -15.571842     6A    -15.564081
       7A    -11.400253     8A    -11.369706     9A    -11.326173
      10A    -11.313344    11A    -11.249630    12A     -1.396269
      13A     -1.359683    14A     -1.337769    15A     -1.226377
      16A     -1.213131    17A     -1.175908    18A     -1.029749
      19A     -0.908649    20A     -0.888662    21A     -0.843587
      22A     -0.797775    23A     -0.745617    24A     -0.728540
      25A     -0.701970    26A     -0.675533    27A     -0.657191
      28A     -0.627325    29A     -0.615018    30A     -0.601880
      31A     -0.597439    32A     -0.546513    33A     -0.498015
      34A     -0.462770    35A     -0.444558    36A     -0.434979
      37A     -0.431853    38A     -0.411063    39A     -0.299221

  @DF-RHF Final Energy:  -539.58437778780592

   => Energetics <=

    Nuclear Repulsion Energy =            593.6149006419719854
    One-Electron Energy =               -1912.6711805384802574
    Two-Electron Energy =                 779.4719021087024657
    Total Energy =                       -539.5843777878059200
  Basis Set: (AUG-CC-PVTZ AUX)
    Blend: AUG-CC-PVTZ-RI
    Molecular point group: c1

    Geometry (in Angstrom), charge = 0, multiplicity = 1:

       Center              X                  Y                   Z               Mass
    ------------   -----------------  -----------------  -----------------  -----------------
         O            0.197338020356     2.665997987739    -0.008205761618    15.994914619570
         C            0.229873020356     1.441511987739     0.004576238382    12.000000000000
         N            1.486890020356     0.759594987739    -0.004847761618    14.003074004430
         C            1.704055020356    -0.564036312261     0.034029238382    12.000000000000
         N            0.725007020356    -1.484231012261     0.011486238382    14.003074004430
         C           -0.503802979644    -0.887782012261    -0.003337761618    12.000000000000
         C           -0.832622979644     0.466455987739     0.015445238382    12.000000000000
         N           -2.196929979644     0.656338987739     0.013607238382    14.003074004430
         C           -2.687190979644    -0.573401012261     0.000705238382    12.000000000000
         N           -1.709296979644    -1.539334012261    -0.007106761618    14.003074004430
         N            3.010674020356    -1.013370012261    -0.079536761618    14.003074004430
         H            2.284792020356     1.382955987739    -0.104304761618     1.007825032230
         H           -3.739927979644    -0.824862012261    -0.003202761618     1.007825032230
         H           -1.831894979644    -2.545212012261    -0.020829761618     1.007825032230
         H            3.083806020356    -2.015046012261     0.068230238382     1.007825032230
         H            3.663149020356    -0.495960012261     0.500665238382     1.007825032230

  Basis Set: AUG-CC-PVTZ
    Blend: AUG-CC-PVTZ
  Basis Set: (AUG-CC-PVTZ AUX)
    Blend: AUG-CC-PVTZ-JKFIT
	 Reference Energy          =    -539.5843777878059200 [Eh]
	 Singles Energy            =      -0.0000000000000000 [Eh]
	 Same-Spin Energy          =      -0.5734249597240328 [Eh]
	 Opposite-Spin Energy      =      -1.6637544709507082 [Eh]
	 Correlation Energy        =      -2.2371794306747410 [Eh]
	 Total Energy              =    -541.8215572184806206 [Eh]

	 ================> DF-SCS-MP2 Energies <==================
	-----------------------------------------------------------
	 SCS Same-Spin Scale       =       0.3333333333333333 [-]
	 SCS Opposite-Spin Scale   =       1.2000000000000000 [-]
	 SCS Same-Spin Energy      =      -0.1911416532413443 [Eh]
	 SCS Opposite-Spin Energy  =      -1.9965053651408498 [Eh]
	 SCS Correlation Energy    =      -2.1876470183821941 [Eh]
	 SCS Total Energy          =    -541.7720248061881421 [Eh]
	-----------------------------------------------------------

  Dipole Moment: [D]
     X:     2.7839      Y:    -5.4979      Z:     0.8667     Total:     6.2232

*** Psi4 exiting successfully. Buy a developer a beer!
