                               Psi4 1.3.2 release

  ==> Input File <==

--------------------------------------------------------------------------
#psi4
#
memory 32 gb

molecule  {
0 1
  O        0.1763910     2.6970700    -0.0085580
  C        0.2089260     1.4725840     0.0042240
  N        1.4659430     0.7906670    -0.0052000
  C        1.6696020    -0.5667920     0.0018180
  N        0.7040600    -1.4531590     0.0111340
  C       -0.5247500    -0.8567100    -0.0036900
  C       -0.8535700     0.4975280     0.0150930
  N       -2.2178770     0.6874110     0.0132550
  C       -2.7081380    -0.5423290     0.0003530
  N       -1.7302440    -1.5082620    -0.0074590
  N        2.9897270    -0.9822980    -0.0798890
  H        2.2638450     1.4140280    -0.1046570
  H       -3.7608750    -0.7937900    -0.0035550
  H       -1.8528420    -2.5141400    -0.0211820
  H        3.1138114    -1.9707509     0.1153088
  H        3.6422020    -0.4648880     0.5003130
units angstrom
no_reorient  #important for SAPT in psi4, default
symmetry c1  #important for SAPT in psi4, default
}

set PROPERTIES_ORIGIN ["COM"]
properties('MP2/aug-cc-pvtz', properties = ['dipole'])
--------------------------------------------------------------------------

    Molecular point group: c1
  Charge       = 0
  Multiplicity = 1
  Basis Set: AUG-CC-PVTZ
    Blend: AUG-CC-PVTZ
  Basis Set: (AUG-CC-PVTZ AUX)
    Blend: AUG-CC-PVTZ-JKFIT

    Orbital Energies [Eh]
    ---------------------

    Doubly Occupied:

       1A    -20.524510     2A    -15.636211     3A    -15.632389
       4A    -15.612564     5A    -15.573555     6A    -15.565320
       7A    -11.399289     8A    -11.368200     9A    -11.327508
      10A    -11.314363    11A    -11.251540    12A     -1.393647
      13A     -1.360973    14A     -1.335780    15A     -1.220997
      16A     -1.218451    17A     -1.178286    18A     -1.031741
      19A     -0.906809    20A     -0.886795    21A     -0.844968
      22A     -0.797999    23A     -0.740530    24A     -0.733179
      25A     -0.697005    26A     -0.671952    27A     -0.656534
      28A     -0.633990    29A     -0.614641    30A     -0.601519
      31A     -0.596739    32A     -0.548214    33A     -0.499613
      34A     -0.463297    35A     -0.443243    36A     -0.433229
      37A     -0.432670    38A     -0.412230    39A     -0.302982

  @DF-RHF Final Energy:  -539.58707071932565

   => Energetics <=

    Nuclear Repulsion Energy =            593.5641782295190296
    One-Electron Energy =               -1912.5755760756605923
    Two-Electron Energy =                 779.4243271268159106
    Total Energy =                       -539.5870707193256521
  Basis Set: (AUG-CC-PVTZ AUX)
    Blend: AUG-CC-PVTZ-RI
    Molecular point group: c1

    Geometry (in Angstrom), charge = 0, multiplicity = 1:

       Center              X                  Y                   Z               Mass
    ------------   -----------------  -----------------  -----------------  -----------------
         O            0.198071031467     2.668597175841    -0.005991214385    15.994914619570
         C            0.230606031467     1.444111175841     0.006790785615    12.000000000000
         N            1.487623031467     0.762194175841    -0.002633214385    14.003074004430
         C            1.691282031467    -0.595264824159     0.004384785615    12.000000000000
         N            0.725740031467    -1.481631824159     0.013700785615    14.003074004430
         C           -0.503069968533    -0.885182824159    -0.001123214385    12.000000000000
         C           -0.831889968533     0.469055175841     0.017659785615    12.000000000000
         N           -2.196196968533     0.658938175841     0.015821785615    14.003074004430
         C           -2.686457968533    -0.570801824159     0.002919785615    12.000000000000
         N           -1.708563968533    -1.536734824159    -0.004892214385    14.003074004430
         N            3.011407031467    -1.010770824159    -0.077322214385    14.003074004430
         H            2.285525031467     1.385555175841    -0.102090214385     1.007825032230
         H           -3.739194968533    -0.822262824159    -0.000988214385     1.007825032230
         H           -1.831161968533    -2.542612824159    -0.018615214385     1.007825032230
         H            3.135491431467    -1.999223724159     0.117875585615     1.007825032230
         H            3.663882031467    -0.493360824159     0.502879785615     1.007825032230

  Basis Set: AUG-CC-PVTZ
    Blend: AUG-CC-PVTZ
  Basis Set: (AUG-CC-PVTZ AUX)
    Blend: AUG-CC-PVTZ-JKFIT
	 Reference Energy          =    -539.5870707193256521 [Eh]
	 Singles Energy            =      -0.0000000000000000 [Eh]
	 Same-Spin Energy          =      -0.5730146613909510 [Eh]
	 Opposite-Spin Energy      =      -1.6632126305922026 [Eh]
	 Correlation Energy        =      -2.2362272919831536 [Eh]
	 Total Energy              =    -541.8232980113087933 [Eh]

	 ================> DF-SCS-MP2 Energies <==================
	-----------------------------------------------------------
	 SCS Same-Spin Scale       =       0.3333333333333333 [-]
	 SCS Opposite-Spin Scale   =       1.2000000000000000 [-]
	 SCS Same-Spin Energy      =      -0.1910048871303170 [Eh]
	 SCS Opposite-Spin Energy  =      -1.9958551567106431 [Eh]
	 SCS Correlation Energy    =      -2.1868600438409600 [Eh]
	 SCS Total Energy          =    -541.7739307631666179 [Eh]
	-----------------------------------------------------------

  Dipole Moment: [D]
     X:     2.6839      Y:    -5.6237      Z:     0.8959     Total:     6.2954

*** Psi4 exiting successfully. Buy a developer a beer!
