                               Psi4 1.4a3.dev225

  ==> Input File <==

--------------------------------------------------------------------------
#psi4
#
memory 32 gb

molecule  {
0 1
  O        0.1763800     2.6970850    -0.0086780
  C        0.2088860     1.4725900     0.0042210
  N        1.4659360     0.7906750    -0.0050880
  C        1.6696170    -0.5667500     0.0018210
  N        0.7040680    -1.4531450     0.0111020
  C       -0.5247290    -0.8567090    -0.0037110
  C       -0.8535850     0.4975420     0.0152200
  N       -2.2178950     0.6873840     0.0133320
  C       -2.7081200    -0.5423560     0.0003580
  N       -1.7302140    -1.5082770    -0.0075250
  N        2.9897250    -0.9823190    -0.0798750
  H        2.2637990     1.4140370    -0.1048620
  H       -3.7608500    -0.7938460    -0.0035590
  H       -1.8467338    -2.4645288    -0.0207402
  H        3.0628080    -1.9839860     0.0679760
  H        3.6422460    -0.4648460     0.5002060
units angstrom
no_reorient  #important for SAPT in psi4, default
symmetry c1  #important for SAPT in psi4, default
}

set PROPERTIES_ORIGIN ["COM"]
properties('MP2/aug-cc-pvtz', properties = ['dipole'])
--------------------------------------------------------------------------

    Molecular point group: c1
  Charge       = 0
  Multiplicity = 1
  Basis Set: AUG-CC-PVTZ
    Blend: AUG-CC-PVTZ
  Basis Set: (AUG-CC-PVTZ AUX)
    Blend: AUG-CC-PVTZ-JKFIT

    Orbital Energies [Eh]
    ---------------------

    Doubly Occupied:

       1A    -20.524694     2A    -15.632289     3A    -15.631962
       4A    -15.612603     5A    -15.573914     6A    -15.565763
       7A    -11.398921     8A    -11.368307     9A    -11.327998
      10A    -11.314729    11A    -11.251782    12A     -1.394089
      13A     -1.362860    14A     -1.336693    15A     -1.221121
      16A     -1.218849    17A     -1.183103    18A     -1.031915
      19A     -0.908628    20A     -0.885769    21A     -0.855373
      22A     -0.800644    23A     -0.740806    24A     -0.730746
      25A     -0.702740    26A     -0.676116    27A     -0.656841
      28A     -0.634252    29A     -0.615638    30A     -0.602047
      31A     -0.597370    32A     -0.548215    33A     -0.500318
      34A     -0.462843    35A     -0.443647    36A     -0.433551
      37A     -0.432928    38A     -0.413266    39A     -0.303266

  @DF-RHF Final Energy:  -539.58731259637682

   => Energetics <=

    Nuclear Repulsion Energy =            593.9831110051115957
    One-Electron Energy =               -1913.3476516856908347
    Two-Electron Energy =                 779.7772280842024202
    Total Energy =                       -539.5873125963768189
  Basis Set: (AUG-CC-PVTZ AUX)
    Blend: AUG-CC-PVTZ-RI
    Molecular point group: c1

    Geometry (in Angstrom), charge = 0, multiplicity = 1:

       Center              X                  Y                   Z               Mass
    ------------   -----------------  -----------------  -----------------  -----------------
         O            0.198359650226     2.668368854780    -0.005802087303    15.994914619570
         C            0.230865650226     1.443873854780     0.007096912697    12.000000000000
         N            1.487915650226     0.761958854780    -0.002212087303    14.003074004430
         C            1.691596650226    -0.595466145220     0.004696912697    12.000000000000
         N            0.726047650226    -1.481861145220     0.013977912697    14.003074004430
         C           -0.502749349774    -0.885425145220    -0.000835087303    12.000000000000
         C           -0.831605349774     0.468825854780     0.018095912697    12.000000000000
         N           -2.195915349774     0.658667854780     0.016207912697    14.003074004430
         C           -2.686140349774    -0.571072145220     0.003233912697    12.000000000000
         N           -1.708234349774    -1.536993145220    -0.004649087303    14.003074004430
         N            3.011704650226    -1.011035145220    -0.076999087303    14.003074004430
         H            2.285778650226     1.385320854780    -0.101986087303     1.007825032230
         H           -3.738870349774    -0.822562145220    -0.000683087303     1.007825032230
         H           -1.824754149774    -2.493244945220    -0.017864287303     1.007825032230
         H            3.084787650226    -2.012702145220     0.070851912697     1.007825032230
         H            3.664225650226    -0.493562145220     0.503081912697     1.007825032230

  Basis Set: AUG-CC-PVTZ
    Blend: AUG-CC-PVTZ
  Basis Set: (AUG-CC-PVTZ AUX)
    Blend: AUG-CC-PVTZ-JKFIT
	 Reference Energy          =    -539.5873125963768189 [Eh]
	 Singles Energy            =      -0.0000000000000000 [Eh]
	 Same-Spin Energy          =      -0.5726139331301947 [Eh]
	 Opposite-Spin Energy      =      -1.6623303665018234 [Eh]
	 Correlation Energy        =      -2.2349442996320183 [Eh]
	 Total Energy              =    -541.8222568960088665 [Eh]

	 ================> DF-SCS-MP2 Energies <==================
	-----------------------------------------------------------
	 SCS Same-Spin Scale       =       0.3333333333333333 [-]
	 SCS Opposite-Spin Scale   =       1.2000000000000000 [-]
	 SCS Same-Spin Energy      =      -0.1908713110433982 [Eh]
	 SCS Opposite-Spin Energy  =      -1.9947964398021880 [Eh]
	 SCS Correlation Energy    =      -2.1856677508455862 [Eh]
	 SCS Total Energy          =    -541.7729803472224148 [Eh]
	-----------------------------------------------------------

  Dipole Moment: [D]
     X:     2.6861      Y:    -5.5670      Z:     0.8443     Total:     6.2386

*** Psi4 exiting successfully. Buy a developer a beer!
