                               Psi4 1.3.2 release

  ==> Input File <==

--------------------------------------------------------------------------
#psi4
#
memory 32 gb

molecule  {
0 1
  O        0.1763910     2.6970700    -0.0085580
  C        0.2089260     1.4725840     0.0042240
  N        1.3251650     0.7619463    -0.0044263
  C        1.6696020    -0.5667920     0.0018180
  N        0.7040600    -1.4531590     0.0111340
  C       -0.5247500    -0.8567100    -0.0036900
  C       -0.8535700     0.4975280     0.0150930
  N       -2.2178770     0.6874110     0.0132550
  C       -2.7081380    -0.5423290     0.0003530
  N       -1.7302440    -1.5082620    -0.0074590
  N        2.9897270    -0.9822980    -0.0798890
  H        2.2638450     1.4140280    -0.1046570
  H       -3.7608750    -0.7937900    -0.0035550
  H       -1.8528420    -2.5141400    -0.0211820
  H        3.0628590    -1.9839740     0.0678780
  H        3.6422020    -0.4648880     0.5003130
units angstrom
no_reorient  #important for SAPT in psi4, default
symmetry c1  #important for SAPT in psi4, default
}

set PROPERTIES_ORIGIN ["COM"]
properties('MP2/aug-cc-pvtz', properties = ['dipole'])
--------------------------------------------------------------------------

    Molecular point group: c1
  Charge       = 0
  Multiplicity = 1
  Basis Set: AUG-CC-PVTZ
    Blend: AUG-CC-PVTZ
  Basis Set: (AUG-CC-PVTZ AUX)
    Blend: AUG-CC-PVTZ-JKFIT

    Orbital Energies [Eh]
    ---------------------

    Doubly Occupied:

       1A    -20.514161     2A    -15.644367     3A    -15.633993
       4A    -15.621395     5A    -15.574499     6A    -15.561892
       7A    -11.402249     8A    -11.356869     9A    -11.322440
      10A    -11.312385    11A    -11.248279    12A     -1.402171
      13A     -1.358170    14A     -1.336225    15A     -1.238403
      16A     -1.216214    17A     -1.174671    18A     -1.035247
      19A     -0.921181    20A     -0.884779    21A     -0.842769
      22A     -0.803743    23A     -0.736647    24A     -0.717783
      25A     -0.700897    26A     -0.674917    27A     -0.664487
      28A     -0.630807    29A     -0.612797    30A     -0.600261
      31A     -0.585918    32A     -0.553015    33A     -0.494452
      34A     -0.466139    35A     -0.440508    36A     -0.428891
      37A     -0.427949    38A     -0.408831    39A     -0.302497

  @DF-RHF Final Energy:  -539.55710563462492

   => Energetics <=

    Nuclear Repulsion Energy =            596.4841086162255124
    One-Electron Energy =               -1918.3766395208015183
    Two-Electron Energy =                 782.3354252699510880
    Total Energy =                       -539.5571056346249179
  Basis Set: (AUG-CC-PVTZ AUX)
    Blend: AUG-CC-PVTZ-RI
    Molecular point group: c1

    Geometry (in Angstrom), charge = 0, multiplicity = 1:

       Center              X                  Y                   Z               Mass
    ------------   -----------------  -----------------  -----------------  -----------------
         O            0.211461854106     2.671347962219    -0.005746474805    15.994914619570
         C            0.243996854106     1.446861962219     0.007035525195    12.000000000000
         N            1.360235854106     0.736224262219    -0.001614774805    14.003074004430
         C            1.704672854106    -0.592514037781     0.004629525195    12.000000000000
         N            0.739130854106    -1.478881037781     0.013945525195    14.003074004430
         C           -0.489679145894    -0.882432037781    -0.000878474805    12.000000000000
         C           -0.818499145894     0.471805962219     0.017904525195    12.000000000000
         N           -2.182806145894     0.661688962219     0.016066525195    14.003074004430
         C           -2.673067145894    -0.568051037781     0.003164525195    12.000000000000
         N           -1.695173145894    -1.533984037781    -0.004647474805    14.003074004430
         N            3.024797854106    -1.008020037781    -0.077077474805    14.003074004430
         H            2.298915854106     1.388305962219    -0.101845474805     1.007825032230
         H           -3.725804145894    -0.819512037781    -0.000743474805     1.007825032230
         H           -1.817771145894    -2.539862037781    -0.018370474805     1.007825032230
         H            3.097929854106    -2.009696037781     0.070689525195     1.007825032230
         H            3.677272854106    -0.490610037781     0.503124525195     1.007825032230

  Basis Set: AUG-CC-PVTZ
    Blend: AUG-CC-PVTZ
  Basis Set: (AUG-CC-PVTZ AUX)
    Blend: AUG-CC-PVTZ-JKFIT
	 Reference Energy          =    -539.5571056346249179 [Eh]
	 Singles Energy            =      -0.0000000000000000 [Eh]
	 Same-Spin Energy          =      -0.5755741096023694 [Eh]
	 Opposite-Spin Energy      =      -1.6667255514214341 [Eh]
	 Correlation Energy        =      -2.2422996610238037 [Eh]
	 Total Energy              =    -541.7994052956487394 [Eh]

	 ================> DF-SCS-MP2 Energies <==================
	-----------------------------------------------------------
	 SCS Same-Spin Scale       =       0.3333333333333333 [-]
	 SCS Opposite-Spin Scale   =       1.2000000000000000 [-]
	 SCS Same-Spin Energy      =      -0.1918580365341231 [Eh]
	 SCS Opposite-Spin Energy  =      -2.0000706617057209 [Eh]
	 SCS Correlation Energy    =      -2.1919286982398440 [Eh]
	 SCS Total Energy          =    -541.7490343328647668 [Eh]
	-----------------------------------------------------------

  Dipole Moment: [D]
     X:     3.0474      Y:    -5.9359      Z:     0.8627     Total:     6.7280

*** Psi4 exiting successfully. Buy a developer a beer!
