                               Psi4 1.3.2 release

  ==> Input File <==

--------------------------------------------------------------------------
#psi4
#
memory 32 gb

molecule  {
0 1
  O        0.1763910     2.6970700    -0.0085580
  C        0.2743585     1.3960972     0.0050502
  N        1.4659430     0.7906670    -0.0052000
  C        1.6696020    -0.5667920     0.0018180
  N        0.7040600    -1.4531590     0.0111340
  C       -0.5247500    -0.8567100    -0.0036900
  C       -0.8535700     0.4975280     0.0150930
  N       -2.2178770     0.6874110     0.0132550
  C       -2.7081380    -0.5423290     0.0003530
  N       -1.7302440    -1.5082620    -0.0074590
  N        2.9897270    -0.9822980    -0.0798890
  H        2.2638450     1.4140280    -0.1046570
  H       -3.7608750    -0.7937900    -0.0035550
  H       -1.8528420    -2.5141400    -0.0211820
  H        3.0628590    -1.9839740     0.0678780
  H        3.6422020    -0.4648880     0.5003130
units angstrom
no_reorient  #important for SAPT in psi4, default
symmetry c1  #important for SAPT in psi4, default
}

set PROPERTIES_ORIGIN ["COM"]
properties('MP2/aug-cc-pvtz', properties = ['dipole'])
--------------------------------------------------------------------------

    Molecular point group: c1
  Charge       = 0
  Multiplicity = 1
  Basis Set: AUG-CC-PVTZ
    Blend: AUG-CC-PVTZ
  Basis Set: (AUG-CC-PVTZ AUX)
    Blend: AUG-CC-PVTZ-JKFIT

    Orbital Energies [Eh]
    ---------------------

    Doubly Occupied:

       1A    -20.503456     2A    -15.647395     3A    -15.638086
       4A    -15.619134     5A    -15.583522     6A    -15.568056
       7A    -11.406187     8A    -11.363513     9A    -11.328061
      10A    -11.317846    11A    -11.255775    12A     -1.396516
      13A     -1.354868    14A     -1.312276    15A     -1.231409
      16A     -1.225239    17A     -1.181666    18A     -1.035900
      19A     -0.918432    20A     -0.900610    21A     -0.846455
      22A     -0.809447    23A     -0.758293    24A     -0.734927
      25A     -0.704626    26A     -0.672296    27A     -0.665202
      28A     -0.640059    29A     -0.609895    30A     -0.603899
      31A     -0.574702    32A     -0.540202    33A     -0.504887
      34A     -0.465696    35A     -0.440564    36A     -0.424618
      37A     -0.417437    38A     -0.411690    39A     -0.304977

  @DF-RHF Final Energy:  -539.57043063281890

   => Energetics <=

    Nuclear Repulsion Energy =            594.3320375704576009
    One-Electron Energy =               -1913.9693016656271993
    Two-Electron Energy =                 780.0668334623505871
    Total Energy =                       -539.5704306328188977
  Basis Set: (AUG-CC-PVTZ AUX)
    Blend: AUG-CC-PVTZ-RI
    Molecular point group: c1

    Geometry (in Angstrom), charge = 0, multiplicity = 1:

       Center              X                  Y                   Z               Mass
    ------------   -----------------  -----------------  -----------------  -----------------
         O            0.193212760940     2.674761835289    -0.005740385550    15.994914619570
         C            0.291180260940     1.373789035289     0.007867814450    12.000000000000
         N            1.482764760940     0.768358835289    -0.002382385550    14.003074004430
         C            1.686423760940    -0.589100164711     0.004635614450    12.000000000000
         N            0.720881760940    -1.475467164711     0.013951614450    14.003074004430
         C           -0.507928239060    -0.879018164711    -0.000872385550    12.000000000000
         C           -0.836748239060     0.475219835289     0.017910614450    12.000000000000
         N           -2.201055239060     0.665102835289     0.016072614450    14.003074004430
         C           -2.691316239060    -0.564637164711     0.003170614450    12.000000000000
         N           -1.713422239060    -1.530570164711    -0.004641385550    14.003074004430
         N            3.006548760940    -1.004606164711    -0.077071385550    14.003074004430
         H            2.280666760940     1.391719835289    -0.101839385550     1.007825032230
         H           -3.744053239060    -0.816098164711    -0.000737385550     1.007825032230
         H           -1.836020239060    -2.536448164711    -0.018364385550     1.007825032230
         H            3.079680760940    -2.006282164711     0.070695614450     1.007825032230
         H            3.659023760940    -0.487196164711     0.503130614450     1.007825032230

  Basis Set: AUG-CC-PVTZ
    Blend: AUG-CC-PVTZ
  Basis Set: (AUG-CC-PVTZ AUX)
    Blend: AUG-CC-PVTZ-JKFIT
	 Reference Energy          =    -539.5704306328188977 [Eh]
	 Singles Energy            =      -0.0000000000000000 [Eh]
	 Same-Spin Energy          =      -0.5747000661060082 [Eh]
	 Opposite-Spin Energy      =      -1.6660140380875466 [Eh]
	 Correlation Energy        =      -2.2407141041935548 [Eh]
	 Total Energy              =    -541.8111447370124552 [Eh]

	 ================> DF-SCS-MP2 Energies <==================
	-----------------------------------------------------------
	 SCS Same-Spin Scale       =       0.3333333333333333 [-]
	 SCS Opposite-Spin Scale   =       1.2000000000000000 [-]
	 SCS Same-Spin Energy      =      -0.1915666887020027 [Eh]
	 SCS Opposite-Spin Energy  =      -1.9992168457050559 [Eh]
	 SCS Correlation Energy    =      -2.1907835344070588 [Eh]
	 SCS Total Energy          =    -541.7612141672259440 [Eh]
	-----------------------------------------------------------

  Dipole Moment: [D]
     X:     2.9758      Y:    -6.4364      Z:     0.8504     Total:     7.1418

*** Psi4 exiting successfully. Buy a developer a beer!
