                               Psi4 1.4a3.dev225

  ==> Input File <==

--------------------------------------------------------------------------
#psi4
#
memory 32 gb

molecule  {
0 1
  O        0.1763800     2.6970850    -0.0086780
  C        0.2088860     1.4725900     0.0042210
  N        1.4659360     0.7906750    -0.0050880
  C        1.6696170    -0.5667500     0.0018210
  N        0.7040680    -1.4531450     0.0111020
  C       -0.5247290    -0.8567090    -0.0037110
  C       -0.8535850     0.4975420     0.0152200
  N       -2.2674178     0.6942750     0.0132635
  C       -2.7081200    -0.5423560     0.0003580
  N       -1.7302140    -1.5082770    -0.0075250
  N        2.9897250    -0.9823190    -0.0798750
  H        2.2637990     1.4140370    -0.1048620
  H       -3.7608500    -0.7938460    -0.0035590
  H       -1.8527810    -2.5141570    -0.0214260
  H        3.0628080    -1.9839860     0.0679760
  H        3.6422460    -0.4648460     0.5002060
units angstrom
no_reorient  #important for SAPT in psi4, default
symmetry c1  #important for SAPT in psi4, default
}

set PROPERTIES_ORIGIN ["COM"]
properties('MP2/aug-cc-pvtz', properties = ['dipole'])
--------------------------------------------------------------------------

    Molecular point group: c1
  Charge       = 0
  Multiplicity = 1
  Basis Set: AUG-CC-PVTZ
    Blend: AUG-CC-PVTZ
  Basis Set: (AUG-CC-PVTZ AUX)
    Blend: AUG-CC-PVTZ-JKFIT

    Orbital Energies [Eh]
    ---------------------

    Doubly Occupied:

       1A    -20.523377     2A    -15.635154     3A    -15.632541
       4A    -15.613496     5A    -15.574997     6A    -15.569301
       7A    -11.400290     8A    -11.368013     9A    -11.331052
      10A    -11.314685    11A    -11.254040    12A     -1.392962
      13A     -1.359454    14A     -1.335400    15A     -1.221636
      16A     -1.218589    17A     -1.174401    18A     -1.033241
      19A     -0.906504    20A     -0.886275    21A     -0.840294
      22A     -0.799946    23A     -0.739799    24A     -0.730184
      25A     -0.701352    26A     -0.673294    27A     -0.656105
      28A     -0.634086    29A     -0.613683    30A     -0.598095
      31A     -0.591309    32A     -0.547767    33A     -0.500641
      34A     -0.463589    35A     -0.443084    36A     -0.435815
      37A     -0.433600    38A     -0.408430    39A     -0.307882

  @DF-RHF Final Energy:  -539.58595147362860

   => Energetics <=

    Nuclear Repulsion Energy =            592.4306993088931677
    One-Electron Energy =               -1910.3045724400085419
    Two-Electron Energy =                 778.2879216574868906
    Total Energy =                       -539.5859514736285973
  Basis Set: (AUG-CC-PVTZ AUX)
    Blend: AUG-CC-PVTZ-RI
    Molecular point group: c1

    Geometry (in Angstrom), charge = 0, multiplicity = 1:

       Center              X                  Y                   Z               Mass
    ------------   -----------------  -----------------  -----------------  -----------------
         O            0.202991021866     2.668061149899    -0.005791161230    15.994914619570
         C            0.235497021866     1.443566149899     0.007107838770    12.000000000000
         N            1.492547021866     0.761651149899    -0.002201161230    14.003074004430
         C            1.696228021866    -0.595773850101     0.004707838770    12.000000000000
         N            0.730679021866    -1.482168850101     0.013988838770    14.003074004430
         C           -0.498117978134    -0.885732850101    -0.000824161230    12.000000000000
         C           -0.826973978134     0.468518149899     0.018106838770    12.000000000000
         N           -2.240806778134     0.665251149899     0.016150338770    14.003074004430
         C           -2.681508978134    -0.571379850101     0.003244838770    12.000000000000
         N           -1.703602978134    -1.537300850101    -0.004638161230    14.003074004430
         N            3.016336021866    -1.011342850101    -0.076988161230    14.003074004430
         H            2.290410021866     1.385013149899    -0.101975161230     1.007825032230
         H           -3.734238978134    -0.822869850101    -0.000672161230     1.007825032230
         H           -1.826169978134    -2.543180850101    -0.018539161230     1.007825032230
         H            3.089419021866    -2.013009850101     0.070862838770     1.007825032230
         H            3.668857021866    -0.493869850101     0.503092838770     1.007825032230

  Basis Set: AUG-CC-PVTZ
    Blend: AUG-CC-PVTZ
  Basis Set: (AUG-CC-PVTZ AUX)
    Blend: AUG-CC-PVTZ-JKFIT
	 Reference Energy          =    -539.5859514736285973 [Eh]
	 Singles Energy            =      -0.0000000000000000 [Eh]
	 Same-Spin Energy          =      -0.5722456154638491 [Eh]
	 Opposite-Spin Energy      =      -1.6629810753350669 [Eh]
	 Correlation Energy        =      -2.2352266907989158 [Eh]
	 Total Energy              =    -541.8211781644274652 [Eh]

	 ================> DF-SCS-MP2 Energies <==================
	-----------------------------------------------------------
	 SCS Same-Spin Scale       =       0.3333333333333333 [-]
	 SCS Opposite-Spin Scale   =       1.2000000000000000 [-]
	 SCS Same-Spin Energy      =      -0.1907485384879497 [Eh]
	 SCS Opposite-Spin Energy  =      -1.9955772904020801 [Eh]
	 SCS Correlation Energy    =      -2.1863258288900296 [Eh]
	 SCS Total Energy          =    -541.7722773025186598 [Eh]
	-----------------------------------------------------------

  Dipole Moment: [D]
     X:     2.7716      Y:    -5.6588      Z:     0.8426     Total:     6.3572

*** Psi4 exiting successfully. Buy a developer a beer!
