                               Psi4 1.3.2 release

  ==> Input File <==

--------------------------------------------------------------------------
#psi4
#
memory 32 gb

molecule  {
0 1
  O        0.1763910     2.6970700    -0.0085580
  C        0.2089260     1.4725840     0.0042240
  N        1.4659430     0.7906670    -0.0052000
  C        1.6696020    -0.5667920     0.0018180
  N        0.7040600    -1.4531590     0.0111340
  C       -0.5247500    -0.8567100    -0.0036900
  C       -0.8535700     0.4975280     0.0150930
  N       -2.2178770     0.6874110     0.0132550
  C       -2.7081380    -0.5423290     0.0003530
  N       -1.6346304    -1.4007587    -0.0062964
  N        2.9897270    -0.9822980    -0.0798890
  H        2.2638450     1.4140280    -0.1046570
  H       -3.7608750    -0.7937900    -0.0035550
  H       -1.8528420    -2.5141400    -0.0211820
  H        3.0628590    -1.9839740     0.0678780
  H        3.6422020    -0.4648880     0.5003130
units angstrom
no_reorient  #important for SAPT in psi4, default
symmetry c1  #important for SAPT in psi4, default
}

set PROPERTIES_ORIGIN ["COM"]
properties('MP2/aug-cc-pvtz', properties = ['dipole'])
--------------------------------------------------------------------------

    Molecular point group: c1
  Charge       = 0
  Multiplicity = 1
  Basis Set: AUG-CC-PVTZ
    Blend: AUG-CC-PVTZ
  Basis Set: (AUG-CC-PVTZ AUX)
    Blend: AUG-CC-PVTZ-JKFIT

    Orbital Energies [Eh]
    ---------------------

    Doubly Occupied:

       1A    -20.520082     2A    -15.644566     3A    -15.628277
       4A    -15.611991     5A    -15.570719     6A    -15.567634
       7A    -11.398351     8A    -11.363333     9A    -11.313701
      10A    -11.306688    11A    -11.242141    12A     -1.405615
      13A     -1.377774    14A     -1.337028    15A     -1.220809
      16A     -1.218784    17A     -1.176891    18A     -1.035532
      19A     -0.915604    20A     -0.884820    21A     -0.823544
      22A     -0.801580    23A     -0.751875    24A     -0.732623
      25A     -0.695678    26A     -0.668934    27A     -0.653248
      28A     -0.648112    29A     -0.607497    30A     -0.605027
      31A     -0.599867    32A     -0.546341    33A     -0.492958
      34A     -0.462172    35A     -0.441247    36A     -0.432261
      37A     -0.430416    38A     -0.405594    39A     -0.303653

  @DF-RHF Final Energy:  -539.55380745292871

   => Energetics <=

    Nuclear Repulsion Energy =            597.6169249733700326
    One-Electron Energy =               -1920.6555354265544793
    Two-Electron Energy =                 783.4848030002557380
    Total Energy =                       -539.5538074529287087
  Basis Set: (AUG-CC-PVTZ AUX)
    Blend: AUG-CC-PVTZ-RI
    Molecular point group: c1

    Geometry (in Angstrom), charge = 0, multiplicity = 1:

       Center              X                  Y                   Z               Mass
    ------------   -----------------  -----------------  -----------------  -----------------
         O            0.189547110625     2.658719281606    -0.005782527878    15.994914619570
         C            0.222082110625     1.434233281606     0.006999472122    12.000000000000
         N            1.479099110625     0.752316281606    -0.002424527878    14.003074004430
         C            1.682758110625    -0.605142718394     0.004593472122    12.000000000000
         N            0.717216110625    -1.491509718394     0.013909472122    14.003074004430
         C           -0.511593889375    -0.895060718394    -0.000914527878    12.000000000000
         C           -0.840413889375     0.459177281606     0.017868472122    12.000000000000
         N           -2.204720889375     0.649060281606     0.016030472122    14.003074004430
         C           -2.694981889375    -0.580679718394     0.003128472122    12.000000000000
         N           -1.621474289375    -1.439109418394    -0.003520927878    14.003074004430
         N            3.002883110625    -1.020648718394    -0.077113527878    14.003074004430
         H            2.277001110625     1.375677281606    -0.101881527878     1.007825032230
         H           -3.747718889375    -0.832140718394    -0.000779527878     1.007825032230
         H           -1.839685889375    -2.552490718394    -0.018406527878     1.007825032230
         H            3.076015110625    -2.022324718394     0.070653472122     1.007825032230
         H            3.655358110625    -0.503238718394     0.503088472122     1.007825032230

  Basis Set: AUG-CC-PVTZ
    Blend: AUG-CC-PVTZ
  Basis Set: (AUG-CC-PVTZ AUX)
    Blend: AUG-CC-PVTZ-JKFIT
	 Reference Energy          =    -539.5538074529287087 [Eh]
	 Singles Energy            =      -0.0000000000000000 [Eh]
	 Same-Spin Energy          =      -0.5742508423081167 [Eh]
	 Opposite-Spin Energy      =      -1.6638864181330937 [Eh]
	 Correlation Energy        =      -2.2381372604412104 [Eh]
	 Total Energy              =    -541.7919447133699578 [Eh]

	 ================> DF-SCS-MP2 Energies <==================
	-----------------------------------------------------------
	 SCS Same-Spin Scale       =       0.3333333333333333 [-]
	 SCS Opposite-Spin Scale   =       1.2000000000000000 [-]
	 SCS Same-Spin Energy      =      -0.1914169474360389 [Eh]
	 SCS Opposite-Spin Energy  =      -1.9966637017597124 [Eh]
	 SCS Correlation Energy    =      -2.1880806491957512 [Eh]
	 SCS Total Energy          =    -541.7418881021244488 [Eh]
	-----------------------------------------------------------

  Dipole Moment: [D]
     X:     2.4647      Y:    -5.8869      Z:     0.8385     Total:     6.4369

*** Psi4 exiting successfully. Buy a developer a beer!
