                               Psi4 1.3.2 release

  ==> Input File <==

--------------------------------------------------------------------------
#psi4
#
memory 32 gb

molecule  {
0 1
  O        0.1763910     2.6970700    -0.0085580
  C        0.2089260     1.4725840     0.0042240
  N        1.4659430     0.7906670    -0.0052000
  C        1.6696020    -0.5667920     0.0018180
  N        0.7040600    -1.4531590     0.0111340
  C       -0.5247500    -0.8567100    -0.0036900
  C       -0.7798947     0.5651400     0.0143393
  N       -2.2178770     0.6874110     0.0132550
  C       -2.7081380    -0.5423290     0.0003530
  N       -1.7302440    -1.5082620    -0.0074590
  N        2.9897270    -0.9822980    -0.0798890
  H        2.2638450     1.4140280    -0.1046570
  H       -3.7608750    -0.7937900    -0.0035550
  H       -1.8528420    -2.5141400    -0.0211820
  H        3.0628590    -1.9839740     0.0678780
  H        3.6422020    -0.4648880     0.5003130
units angstrom
no_reorient  #important for SAPT in psi4, default
symmetry c1  #important for SAPT in psi4, default
}

set PROPERTIES_ORIGIN ["COM"]
properties('MP2/aug-cc-pvtz', properties = ['dipole'])
--------------------------------------------------------------------------

    Molecular point group: c1
  Charge       = 0
  Multiplicity = 1
  Basis Set: AUG-CC-PVTZ
    Blend: AUG-CC-PVTZ
  Basis Set: (AUG-CC-PVTZ AUX)
    Blend: AUG-CC-PVTZ-JKFIT

    Orbital Energies [Eh]
    ---------------------

    Doubly Occupied:

       1A    -20.510850     2A    -15.641490     3A    -15.630547
       4A    -15.614396     5A    -15.577141     6A    -15.569381
       7A    -11.401848     8A    -11.353481     9A    -11.346289
      10A    -11.318383    11A    -11.250579    12A     -1.391245
      13A     -1.355437    14A     -1.333734    15A     -1.222650
      16A     -1.217916    17A     -1.170278    18A     -1.041164
      19A     -0.922190    20A     -0.884989    21A     -0.837889
      22A     -0.800982    23A     -0.741540    24A     -0.733508
      25A     -0.701966    26A     -0.676636    27A     -0.657753
      28A     -0.636165    29A     -0.610632    30A     -0.600292
      31A     -0.595193    32A     -0.549979    33A     -0.498238
      34A     -0.463554    35A     -0.434139    36A     -0.431133
      37A     -0.427072    38A     -0.406658    39A     -0.307185

  @DF-RHF Final Energy:  -539.57113378989823

   => Energetics <=

    Nuclear Repulsion Energy =            593.4872361265006475
    One-Electron Energy =               -1912.3877391466041900
    Two-Electron Energy =                 779.3293692302053159
    Total Energy =                       -539.5711337898982265
  Basis Set: (AUG-CC-PVTZ AUX)
    Blend: AUG-CC-PVTZ-RI
    Molecular point group: c1

    Geometry (in Angstrom), charge = 0, multiplicity = 1:

       Center              X                  Y                   Z               Mass
    ------------   -----------------  -----------------  -----------------  -----------------
         O            0.192557918262     2.663314020946    -0.005614871653    15.994914619570
         C            0.225092918262     1.438828020946     0.007167128347    12.000000000000
         N            1.482109918262     0.756911020946    -0.002256871653    14.003074004430
         C            1.685768918262    -0.600547979054     0.004761128347    12.000000000000
         N            0.720226918262    -1.486914979054     0.014077128347    14.003074004430
         C           -0.508583081738    -0.890465979054    -0.000746871653    12.000000000000
         C           -0.763727781738     0.531384020946     0.017282428347    12.000000000000
         N           -2.201710081738     0.653655020946     0.016198128347    14.003074004430
         C           -2.691971081738    -0.576084979054     0.003296128347    12.000000000000
         N           -1.714077081738    -1.542017979054    -0.004515871653    14.003074004430
         N            3.005893918262    -1.016053979054    -0.076945871653    14.003074004430
         H            2.280011918262     1.380272020946    -0.101713871653     1.007825032230
         H           -3.744708081738    -0.827545979054    -0.000611871653     1.007825032230
         H           -1.836675081738    -2.547895979054    -0.018238871653     1.007825032230
         H            3.079025918262    -2.017729979054     0.070821128347     1.007825032230
         H            3.658368918262    -0.498643979054     0.503256128347     1.007825032230

  Basis Set: AUG-CC-PVTZ
    Blend: AUG-CC-PVTZ
  Basis Set: (AUG-CC-PVTZ AUX)
    Blend: AUG-CC-PVTZ-JKFIT
	 Reference Energy          =    -539.5711337898982265 [Eh]
	 Singles Energy            =      -0.0000000000000000 [Eh]
	 Same-Spin Energy          =      -0.5734148150442346 [Eh]
	 Opposite-Spin Energy      =      -1.6642843162490446 [Eh]
	 Correlation Energy        =      -2.2376991312932795 [Eh]
	 Total Energy              =    -541.8088329211915379 [Eh]

	 ================> DF-SCS-MP2 Energies <==================
	-----------------------------------------------------------
	 SCS Same-Spin Scale       =       0.3333333333333333 [-]
	 SCS Opposite-Spin Scale   =       1.2000000000000000 [-]
	 SCS Same-Spin Energy      =      -0.1911382716814115 [Eh]
	 SCS Opposite-Spin Energy  =      -1.9971411794988534 [Eh]
	 SCS Correlation Energy    =      -2.1882794511802648 [Eh]
	 SCS Total Energy          =    -541.7594132410785051 [Eh]
	-----------------------------------------------------------

  Dipole Moment: [D]
     X:     2.5983      Y:    -5.9902      Z:     0.8433     Total:     6.5837

*** Psi4 exiting successfully. Buy a developer a beer!
