                               Psi4 1.3.2 release

  ==> Input File <==

--------------------------------------------------------------------------
#psi4
#
memory 32 gb

molecule  {
0 1
  O        0.1763910     2.6970700    -0.0085580
  C        0.2334860     1.5160378     0.0036508
  N        1.4659430     0.7906670    -0.0052000
  C        1.6696020    -0.5667920     0.0018180
  N        0.7040600    -1.4531590     0.0111340
  C       -0.5247500    -0.8567100    -0.0036900
  C       -0.8535700     0.4975280     0.0150930
  N       -2.2178770     0.6874110     0.0132550
  C       -2.7081380    -0.5423290     0.0003530
  N       -1.7302440    -1.5082620    -0.0074590
  N        2.9897270    -0.9822980    -0.0798890
  H        2.2638450     1.4140280    -0.1046570
  H       -3.7608750    -0.7937900    -0.0035550
  H       -1.8528420    -2.5141400    -0.0211820
  H        3.0628590    -1.9839740     0.0678780
  H        3.6422020    -0.4648880     0.5003130
units angstrom
no_reorient  #important for SAPT in psi4, default
symmetry c1  #important for SAPT in psi4, default
}

set PROPERTIES_ORIGIN ["COM"]
properties('MP2/aug-cc-pvtz', properties = ['dipole'])
--------------------------------------------------------------------------

    Molecular point group: c1
  Charge       = 0
  Multiplicity = 1
  Basis Set: AUG-CC-PVTZ
    Blend: AUG-CC-PVTZ
  Basis Set: (AUG-CC-PVTZ AUX)
    Blend: AUG-CC-PVTZ-JKFIT

    Orbital Energies [Eh]
    ---------------------

    Doubly Occupied:

       1A    -20.534904     2A    -15.632412     3A    -15.629571
       4A    -15.610758     5A    -15.570246     6A    -15.561940
       7A    -11.396762     8A    -11.369519     9A    -11.320957
      10A    -11.309932    11A    -11.250397    12A     -1.416089
      13A     -1.364958    14A     -1.336149    15A     -1.221462
      16A     -1.215753    17A     -1.174173    18A     -1.021906
      19A     -0.899583    20A     -0.883863    21A     -0.840895
      22A     -0.797285    23A     -0.735299    24A     -0.727589
      25A     -0.700368    26A     -0.673057    27A     -0.654461
      28A     -0.635398    29A     -0.626872    30A     -0.599122
      31A     -0.594999    32A     -0.558807    33A     -0.496776
      34A     -0.461659    35A     -0.447484    36A     -0.436527
      37A     -0.430733    38A     -0.408857    39A     -0.298448

  @DF-RHF Final Energy:  -539.58650559336115

   => Energetics <=

    Nuclear Repulsion Energy =            593.3690613531416602
    One-Electron Energy =               -1912.2191911625388911
    Two-Electron Energy =                 779.2636242160360780
    Total Energy =                       -539.5865055933611529
  Basis Set: (AUG-CC-PVTZ AUX)
    Blend: AUG-CC-PVTZ-RI
    Molecular point group: c1

    Geometry (in Angstrom), charge = 0, multiplicity = 1:

       Center              X                  Y                   Z               Mass
    ------------   -----------------  -----------------  -----------------  -----------------
         O            0.196459844134     2.665233249895    -0.005629211332    15.994914619570
         C            0.253554844134     1.484201049895     0.006579588668    12.000000000000
         N            1.486011844134     0.758830249895    -0.002271211332    14.003074004430
         C            1.689670844134    -0.598628750105     0.004746788668    12.000000000000
         N            0.724128844134    -1.484995750105     0.014062788668    14.003074004430
         C           -0.504681155866    -0.888546750105    -0.000761211332    12.000000000000
         C           -0.833501155866     0.465691249895     0.018021788668    12.000000000000
         N           -2.197808155866     0.655574249895     0.016183788668    14.003074004430
         C           -2.688069155866    -0.574165750105     0.003281788668    12.000000000000
         N           -1.710175155866    -1.540098750105    -0.004530211332    14.003074004430
         N            3.009795844134    -1.014134750105    -0.076960211332    14.003074004430
         H            2.283913844134     1.382191249895    -0.101728211332     1.007825032230
         H           -3.740806155866    -0.825626750105    -0.000626211332     1.007825032230
         H           -1.832773155866    -2.545976750105    -0.018253211332     1.007825032230
         H            3.082927844134    -2.015810750105     0.070806788668     1.007825032230
         H            3.662270844134    -0.496724750105     0.503241788668     1.007825032230

  Basis Set: AUG-CC-PVTZ
    Blend: AUG-CC-PVTZ
  Basis Set: (AUG-CC-PVTZ AUX)
    Blend: AUG-CC-PVTZ-JKFIT
	 Reference Energy          =    -539.5865055933611529 [Eh]
	 Singles Energy            =      -0.0000000000000000 [Eh]
	 Same-Spin Energy          =      -0.5721492854172763 [Eh]
	 Opposite-Spin Energy      =      -1.6616275855089908 [Eh]
	 Correlation Energy        =      -2.2337768709262669 [Eh]
	 Total Energy              =    -541.8202824642874020 [Eh]

	 ================> DF-SCS-MP2 Energies <==================
	-----------------------------------------------------------
	 SCS Same-Spin Scale       =       0.3333333333333333 [-]
	 SCS Opposite-Spin Scale   =       1.2000000000000000 [-]
	 SCS Same-Spin Energy      =      -0.1907164284724254 [Eh]
	 SCS Opposite-Spin Energy  =      -1.9939531026107888 [Eh]
	 SCS Correlation Energy    =      -2.1846695310832143 [Eh]
	 SCS Total Energy          =    -541.7711751244443121 [Eh]
	-----------------------------------------------------------

  Dipole Moment: [D]
     X:     2.7764      Y:    -5.1928      Z:     0.8426     Total:     5.9484

*** Psi4 exiting successfully. Buy a developer a beer!
