                               Psi4 1.3.2 release

  ==> Input File <==

--------------------------------------------------------------------------
#psi4
#
memory 32 gb

molecule  {
0 1
  O        0.1763910     2.6970700    -0.0085580
  C        0.2089260     1.4725840     0.0042240
  N        1.5303321     0.9258001    -0.0060010
  C        1.6696020    -0.5667920     0.0018180
  N        0.7040600    -1.4531590     0.0111340
  C       -0.5247500    -0.8567100    -0.0036900
  C       -0.8535700     0.4975280     0.0150930
  N       -2.2178770     0.6874110     0.0132550
  C       -2.7081380    -0.5423290     0.0003530
  N       -1.7302440    -1.5082620    -0.0074590
  N        2.9897270    -0.9822980    -0.0798890
  H        2.2638450     1.4140280    -0.1046570
  H       -3.7608750    -0.7937900    -0.0035550
  H       -1.8528420    -2.5141400    -0.0211820
  H        3.0628590    -1.9839740     0.0678780
  H        3.6422020    -0.4648880     0.5003130
units angstrom
no_reorient  #important for SAPT in psi4, default
symmetry c1  #important for SAPT in psi4, default
}

set PROPERTIES_ORIGIN ["COM"]
properties('MP2/aug-cc-pvtz', properties = ['dipole'])
--------------------------------------------------------------------------

    Molecular point group: c1
  Charge       = 0
  Multiplicity = 1
  Basis Set: AUG-CC-PVTZ
    Blend: AUG-CC-PVTZ
  Basis Set: (AUG-CC-PVTZ AUX)
    Blend: AUG-CC-PVTZ-JKFIT

    Orbital Energies [Eh]
    ---------------------

    Doubly Occupied:

       1A    -20.514874     2A    -15.639880     3A    -15.617720
       4A    -15.614997     5A    -15.584842     6A    -15.568978
       7A    -11.409908     8A    -11.363957     9A    -11.331095
      10A    -11.315950    11A    -11.255844    12A     -1.387507
      13A     -1.362214    14A     -1.325069    15A     -1.223553
      16A     -1.216075    17A     -1.182947    18A     -1.030871
      19A     -0.916813    20A     -0.870226    21A     -0.847358
      22A     -0.791493    23A     -0.772418    24A     -0.725608
      25A     -0.700207    26A     -0.665665    27A     -0.652576
      28A     -0.643416    29A     -0.610345    30A     -0.601962
      31A     -0.590740    32A     -0.548993    33A     -0.504828
      34A     -0.462869    35A     -0.441815    36A     -0.429047
      37A     -0.426743    38A     -0.415682    39A     -0.305385

  @DF-RHF Final Energy:  -539.55398840779253

   => Energetics <=

    Nuclear Repulsion Energy =            590.9998855243258049
    One-Electron Energy =               -1907.3668045174067629
    Two-Electron Energy =                 776.8129305852885409
    Total Energy =                       -539.5539884077925308
  Basis Set: (AUG-CC-PVTZ AUX)
    Blend: AUG-CC-PVTZ-RI
    Molecular point group: c1

    Geometry (in Angstrom), charge = 0, multiplicity = 1:

       Center              X                  Y                   Z               Mass
    ------------   -----------------  -----------------  -----------------  -----------------
         O            0.192441785850     2.656157853960    -0.005600491840    15.994914619570
         C            0.224976785850     1.431671853960     0.007181508160    12.000000000000
         N            1.546382885850     0.884887953960    -0.003043491840    14.003074004430
         C            1.685652785850    -0.607704146040     0.004775508160    12.000000000000
         N            0.720110785850    -1.494071146040     0.014091508160    14.003074004430
         C           -0.508699214150    -0.897622146040    -0.000732491840    12.000000000000
         C           -0.837519214150     0.456615853960     0.018050508160    12.000000000000
         N           -2.201826214150     0.646498853960     0.016212508160    14.003074004430
         C           -2.692087214150    -0.583241146040     0.003310508160    12.000000000000
         N           -1.714193214150    -1.549174146040    -0.004501491840    14.003074004430
         N            3.005777785850    -1.023210146040    -0.076931491840    14.003074004430
         H            2.279895785850     1.373115853960    -0.101699491840     1.007825032230
         H           -3.744824214150    -0.834702146040    -0.000597491840     1.007825032230
         H           -1.836791214150    -2.555052146040    -0.018224491840     1.007825032230
         H            3.078909785850    -2.024886146040     0.070835508160     1.007825032230
         H            3.658252785850    -0.505800146040     0.503270508160     1.007825032230

  Basis Set: AUG-CC-PVTZ
    Blend: AUG-CC-PVTZ
  Basis Set: (AUG-CC-PVTZ AUX)
    Blend: AUG-CC-PVTZ-JKFIT
	 Reference Energy          =    -539.5539884077925308 [Eh]
	 Singles Energy            =      -0.0000000000000000 [Eh]
	 Same-Spin Energy          =      -0.5717929798544895 [Eh]
	 Opposite-Spin Energy      =      -1.6634980974246840 [Eh]
	 Correlation Energy        =      -2.2352910772791734 [Eh]
	 Total Energy              =    -541.7892794850716882 [Eh]

	 ================> DF-SCS-MP2 Energies <==================
	-----------------------------------------------------------
	 SCS Same-Spin Scale       =       0.3333333333333333 [-]
	 SCS Opposite-Spin Scale   =       1.2000000000000000 [-]
	 SCS Same-Spin Energy      =      -0.1905976599514965 [Eh]
	 SCS Opposite-Spin Energy  =      -1.9961977169096208 [Eh]
	 SCS Correlation Energy    =      -2.1867953768611175 [Eh]
	 SCS Total Energy          =    -541.7407837846536722 [Eh]
	-----------------------------------------------------------

  Dipole Moment: [D]
     X:     2.5301      Y:    -6.0862      Z:     0.8224     Total:     6.6423

*** Psi4 exiting successfully. Buy a developer a beer!
