                               Psi4 1.3.2 release

  ==> Input File <==

--------------------------------------------------------------------------
#psi4
#
memory 32 gb

molecule  {
0 1
  O        0.1763910     2.6970700    -0.0085580
  C        0.1972185     1.4505422     0.0045063
  N        1.4659430     0.7906670    -0.0052000
  C        1.6696020    -0.5667920     0.0018180
  N        0.7040600    -1.4531590     0.0111340
  C       -0.5247500    -0.8567100    -0.0036900
  C       -0.8535700     0.4975280     0.0150930
  N       -2.2178770     0.6874110     0.0132550
  C       -2.7081380    -0.5423290     0.0003530
  N       -1.7302440    -1.5082620    -0.0074590
  N        2.9897270    -0.9822980    -0.0798890
  H        2.2638450     1.4140280    -0.1046570
  H       -3.7608750    -0.7937900    -0.0035550
  H       -1.8528420    -2.5141400    -0.0211820
  H        3.0628590    -1.9839740     0.0678780
  H        3.6422020    -0.4648880     0.5003130
units angstrom
no_reorient  #important for SAPT in psi4, default
symmetry c1  #important for SAPT in psi4, default
}

set PROPERTIES_ORIGIN ["COM"]
properties('MP2/aug-cc-pvtz', properties = ['dipole'])
--------------------------------------------------------------------------

    Molecular point group: c1
  Charge       = 0
  Multiplicity = 1
  Basis Set: AUG-CC-PVTZ
    Blend: AUG-CC-PVTZ
  Basis Set: (AUG-CC-PVTZ AUX)
    Blend: AUG-CC-PVTZ-JKFIT

    Orbital Energies [Eh]
    ---------------------

    Doubly Occupied:

       1A    -20.518862     2A    -15.638215     3A    -15.633264
       4A    -15.613237     5A    -15.575412     6A    -15.567005
       7A    -11.399595     8A    -11.366886     9A    -11.331046
      10A    -11.316622    11A    -11.251721    12A     -1.388717
      13A     -1.356393    14A     -1.332874    15A     -1.221203
      16A     -1.218500    17A     -1.180377    18A     -1.036439
      19A     -0.911055    20A     -0.885476    21A     -0.847090
      22A     -0.800160    23A     -0.743030    24A     -0.731827
      25A     -0.701123    26A     -0.673907    27A     -0.657693
      28A     -0.635248    29A     -0.606664    30A     -0.602131
      31A     -0.597713    32A     -0.543227    33A     -0.501351
      34A     -0.463345    35A     -0.441650    36A     -0.432122
      37A     -0.430126    38A     -0.413720    39A     -0.305136

  @DF-RHF Final Energy:  -539.58497880719142

   => Energetics <=

    Nuclear Repulsion Energy =            593.8230044126121356
    One-Electron Energy =               -1913.0756447694232065
    Two-Electron Energy =                 779.6676615496196519
    Total Energy =                       -539.5849788071914190
  Basis Set: (AUG-CC-PVTZ AUX)
    Blend: AUG-CC-PVTZ-RI
    Molecular point group: c1

    Geometry (in Angstrom), charge = 0, multiplicity = 1:

       Center              X                  Y                   Z               Mass
    ------------   -----------------  -----------------  -----------------  -----------------
         O            0.199341086772     2.670436495648    -0.005697175848    15.994914619570
         C            0.220168586772     1.423908695648     0.007367124152    12.000000000000
         N            1.488893086772     0.764033495648    -0.002339175848    14.003074004430
         C            1.692552086772    -0.593425504352     0.004678824152    12.000000000000
         N            0.727010086772    -1.479792504352     0.013994824152    14.003074004430
         C           -0.501799913228    -0.883343504352    -0.000829175848    12.000000000000
         C           -0.830619913228     0.470894495648     0.017953824152    12.000000000000
         N           -2.194926913228     0.660777495648     0.016115824152    14.003074004430
         C           -2.685187913228    -0.568962504352     0.003213824152    12.000000000000
         N           -1.707293913228    -1.534895504352    -0.004598175848    14.003074004430
         N            3.012677086772    -1.008931504352    -0.077028175848    14.003074004430
         H            2.286795086772     1.387394495648    -0.101796175848     1.007825032230
         H           -3.737924913228    -0.820423504352    -0.000694175848     1.007825032230
         H           -1.829891913228    -2.540773504352    -0.018321175848     1.007825032230
         H            3.085809086772    -2.010607504352     0.070738824152     1.007825032230
         H            3.665152086772    -0.491521504352     0.503173824152     1.007825032230

  Basis Set: AUG-CC-PVTZ
    Blend: AUG-CC-PVTZ
  Basis Set: (AUG-CC-PVTZ AUX)
    Blend: AUG-CC-PVTZ-JKFIT
	 Reference Energy          =    -539.5849788071914190 [Eh]
	 Singles Energy            =      -0.0000000000000000 [Eh]
	 Same-Spin Energy          =      -0.5735062958110729 [Eh]
	 Opposite-Spin Energy      =      -1.6640619330570170 [Eh]
	 Correlation Energy        =      -2.2375682288680898 [Eh]
	 Total Energy              =    -541.8225470360595182 [Eh]

	 ================> DF-SCS-MP2 Energies <==================
	-----------------------------------------------------------
	 SCS Same-Spin Scale       =       0.3333333333333333 [-]
	 SCS Opposite-Spin Scale   =       1.2000000000000000 [-]
	 SCS Same-Spin Energy      =      -0.1911687652703576 [Eh]
	 SCS Opposite-Spin Energy  =      -1.9968743196684202 [Eh]
	 SCS Correlation Energy    =      -2.1880430849387777 [Eh]
	 SCS Total Energy          =    -541.7730218921301457 [Eh]
	-----------------------------------------------------------

  Dipole Moment: [D]
     X:     2.6187      Y:    -5.8533      Z:     0.8446     Total:     6.4678

*** Psi4 exiting successfully. Buy a developer a beer!
