                               Psi4 1.3.2 release

  ==> Input File <==

--------------------------------------------------------------------------
#psi4
#
memory 32 gb

molecule  {
0 1
  O        0.1763910     2.6970700    -0.0085580
  C        0.2089260     1.4725840     0.0042240
  N        1.4659430     0.7906670    -0.0052000
  C        1.6696020    -0.5667920     0.0018180
  N        0.7040600    -1.4531590     0.0111340
  C       -0.5363044    -0.8357731    -0.0033402
  C       -0.8535700     0.4975280     0.0150930
  N       -2.2178770     0.6874110     0.0132550
  C       -2.7081380    -0.5423290     0.0003530
  N       -1.7302440    -1.5082620    -0.0074590
  N        2.9897270    -0.9822980    -0.0798890
  H        2.2638450     1.4140280    -0.1046570
  H       -3.7608750    -0.7937900    -0.0035550
  H       -1.8528420    -2.5141400    -0.0211820
  H        3.0628590    -1.9839740     0.0678780
  H        3.6422020    -0.4648880     0.5003130
units angstrom
no_reorient  #important for SAPT in psi4, default
symmetry c1  #important for SAPT in psi4, default
}

set PROPERTIES_ORIGIN ["COM"]
properties('MP2/aug-cc-pvtz', properties = ['dipole'])
--------------------------------------------------------------------------

    Molecular point group: c1
  Charge       = 0
  Multiplicity = 1
  Basis Set: AUG-CC-PVTZ
    Blend: AUG-CC-PVTZ
  Basis Set: (AUG-CC-PVTZ AUX)
    Blend: AUG-CC-PVTZ-JKFIT

    Orbital Energies [Eh]
    ---------------------

    Doubly Occupied:

       1A    -20.526479     2A    -15.635732     3A    -15.631312
       4A    -15.611292     5A    -15.573191     6A    -15.564776
       7A    -11.396775     8A    -11.369628     9A    -11.325219
      10A    -11.314943    11A    -11.250671    12A     -1.394203
      13A     -1.361981    14A     -1.335299    15A     -1.220363
      16A     -1.213741    17A     -1.177795    18A     -1.034893
      19A     -0.906968    20A     -0.882610    21A     -0.846454
      22A     -0.797355    23A     -0.739873    24A     -0.729063
      25A     -0.702466    26A     -0.675351    27A     -0.656004
      28A     -0.629761    29A     -0.616122    30A     -0.602184
      31A     -0.596921    32A     -0.547690    33A     -0.499226
      34A     -0.460510    35A     -0.443794    36A     -0.434880
      37A     -0.431531    38A     -0.412803    39A     -0.307054

  @DF-RHF Final Energy:  -539.58756167329227

   => Energetics <=

    Nuclear Repulsion Energy =            593.8469768909694722
    One-Electron Energy =               -1913.1552459426259247
    Two-Electron Energy =                 779.7207073783641817
    Total Energy =                       -539.5875616732922708
  Basis Set: (AUG-CC-PVTZ AUX)
    Blend: AUG-CC-PVTZ-RI
    Molecular point group: c1

    Geometry (in Angstrom), charge = 0, multiplicity = 1:

       Center              X                  Y                   Z               Mass
    ------------   -----------------  -----------------  -----------------  -----------------
         O            0.199328923865     2.667022087073    -0.005702538332    15.994914619570
         C            0.231863923865     1.442536087073     0.007079461668    12.000000000000
         N            1.488880923865     0.760619087073    -0.002344538332    14.003074004430
         C            1.692539923865    -0.596839912927     0.004673461668    12.000000000000
         N            0.726997923865    -1.483206912927     0.013989461668    14.003074004430
         C           -0.513366476135    -0.865821012927    -0.000484738332    12.000000000000
         C           -0.830632076135     0.467480087073     0.017948461668    12.000000000000
         N           -2.194939076135     0.657363087073     0.016110461668    14.003074004430
         C           -2.685200076135    -0.572376912927     0.003208461668    12.000000000000
         N           -1.707306076135    -1.538309912927    -0.004603538332    14.003074004430
         N            3.012664923865    -1.012345912927    -0.077033538332    14.003074004430
         H            2.286782923865     1.383980087073    -0.101801538332     1.007825032230
         H           -3.737937076135    -0.823837912927    -0.000699538332     1.007825032230
         H           -1.829904076135    -2.544187912927    -0.018326538332     1.007825032230
         H            3.085796923865    -2.014021912927     0.070733461668     1.007825032230
         H            3.665139923865    -0.494935912927     0.503168461668     1.007825032230

  Basis Set: AUG-CC-PVTZ
    Blend: AUG-CC-PVTZ
  Basis Set: (AUG-CC-PVTZ AUX)
    Blend: AUG-CC-PVTZ-JKFIT
	 Reference Energy          =    -539.5875616732922708 [Eh]
	 Singles Energy            =      -0.0000000000000000 [Eh]
	 Same-Spin Energy          =      -0.5725392198018581 [Eh]
	 Opposite-Spin Energy      =      -1.6630019763676056 [Eh]
	 Correlation Energy        =      -2.2355411961694638 [Eh]
	 Total Energy              =    -541.8231028694617635 [Eh]

	 ================> DF-SCS-MP2 Energies <==================
	-----------------------------------------------------------
	 SCS Same-Spin Scale       =       0.3333333333333333 [-]
	 SCS Opposite-Spin Scale   =       1.2000000000000000 [-]
	 SCS Same-Spin Energy      =      -0.1908464066006194 [Eh]
	 SCS Opposite-Spin Energy  =      -1.9956023716411266 [Eh]
	 SCS Correlation Energy    =      -2.1864487782417461 [Eh]
	 SCS Total Energy          =    -541.7740104515339681 [Eh]
	-----------------------------------------------------------

  Dipole Moment: [D]
     X:     2.6334      Y:    -5.5733      Z:     0.8441     Total:     6.2216

*** Psi4 exiting successfully. Buy a developer a beer!
