                               Psi4 1.3.2 release

  ==> Input File <==

--------------------------------------------------------------------------
#psi4
#
memory 32 gb

molecule  {
0 1
  O        0.1763910     2.6970700    -0.0085580
  C        0.2089260     1.4725840     0.0042240
  N        1.4659430     0.7906670    -0.0052000
  C        1.6696020    -0.5667920     0.0018180
  N        0.7040600    -1.4531590     0.0111340
  C       -0.5247500    -0.8567100    -0.0036900
  C       -0.8535700     0.4975280     0.0150930
  N       -2.2178770     0.6874110     0.0132550
  C       -2.7081380    -0.5423290     0.0003530
  N       -1.7302440    -1.5082620    -0.0074590
  N        2.9897270    -0.9822980    -0.0798890
  H        2.2638450     1.4140280    -0.1046570
  H       -3.6636119    -0.7705573    -0.0031939
  H       -1.8528420    -2.5141400    -0.0211820
  H        3.0628590    -1.9839740     0.0678780
  H        3.6422020    -0.4648880     0.5003130
units angstrom
no_reorient  #important for SAPT in psi4, default
symmetry c1  #important for SAPT in psi4, default
}

set PROPERTIES_ORIGIN ["COM"]
properties('MP2/aug-cc-pvtz', properties = ['dipole'])
--------------------------------------------------------------------------

    Molecular point group: c1
  Charge       = 0
  Multiplicity = 1
  Basis Set: AUG-CC-PVTZ
    Blend: AUG-CC-PVTZ
  Basis Set: (AUG-CC-PVTZ AUX)
    Blend: AUG-CC-PVTZ-JKFIT

    Orbital Energies [Eh]
    ---------------------

    Doubly Occupied:

       1A    -20.524399     2A    -15.635634     3A    -15.631917
       4A    -15.612361     5A    -15.573494     6A    -15.565077
       7A    -11.398559     8A    -11.367922     9A    -11.327403
      10A    -11.303221    11A    -11.251117    12A     -1.393488
      13A     -1.360852    14A     -1.335840    15A     -1.220780
      16A     -1.218330    17A     -1.177874    18A     -1.034356
      19A     -0.911292    20A     -0.886397    21A     -0.849745
      22A     -0.803426    23A     -0.742056    24A     -0.734265
      25A     -0.702771    26A     -0.673202    27A     -0.657315
      28A     -0.637078    29A     -0.615800    30A     -0.608584
      31A     -0.597370    32A     -0.547881    33A     -0.499841
      34A     -0.462506    35A     -0.443473    36A     -0.433137
      37A     -0.432547    38A     -0.411878    39A     -0.302954

  @DF-RHF Final Energy:  -539.58146533383751

   => Energetics <=

    Nuclear Repulsion Energy =            594.2417630545700149
    One-Electron Energy =               -1913.8741709004796121
    Two-Electron Energy =                 780.0509425120721971
    Total Energy =                       -539.5814653338375138
  Basis Set: (AUG-CC-PVTZ AUX)
    Blend: AUG-CC-PVTZ-RI
    Molecular point group: c1

    Geometry (in Angstrom), charge = 0, multiplicity = 1:

       Center              X                  Y                   Z               Mass
    ------------   -----------------  -----------------  -----------------  -----------------
         O            0.197762039312     2.668530390242    -0.005677158064    15.994914619570
         C            0.230297039312     1.444044390242     0.007104841936    12.000000000000
         N            1.487314039312     0.762127390242    -0.002319158064    14.003074004430
         C            1.690973039312    -0.595331609758     0.004698841936    12.000000000000
         N            0.725431039312    -1.481698609758     0.014014841936    14.003074004430
         C           -0.503378960688    -0.885249609758    -0.000809158064    12.000000000000
         C           -0.832198960688     0.468988390242     0.017973841936    12.000000000000
         N           -2.196505960688     0.658871390242     0.016135841936    14.003074004430
         C           -2.686766960688    -0.570868609758     0.003233841936    12.000000000000
         N           -1.708872960688    -1.536801609758    -0.004578158064    14.003074004430
         N            3.011098039312    -1.010837609758    -0.077008158064    14.003074004430
         H            2.285216039312     1.385488390242    -0.101776158064     1.007825032230
         H           -3.642240860688    -0.799096909758    -0.000313058064     1.007825032230
         H           -1.831470960688    -2.542679609758    -0.018301158064     1.007825032230
         H            3.084230039312    -2.012513609758     0.070758841936     1.007825032230
         H            3.663573039312    -0.493427609758     0.503193841936     1.007825032230

  Basis Set: AUG-CC-PVTZ
    Blend: AUG-CC-PVTZ
  Basis Set: (AUG-CC-PVTZ AUX)
    Blend: AUG-CC-PVTZ-JKFIT
	 Reference Energy          =    -539.5814653338375138 [Eh]
	 Singles Energy            =      -0.0000000000000000 [Eh]
	 Same-Spin Energy          =      -0.5728562074602066 [Eh]
	 Opposite-Spin Energy      =      -1.6627648142294291 [Eh]
	 Correlation Energy        =      -2.2356210216896359 [Eh]
	 Total Energy              =    -541.8170863555271808 [Eh]

	 ================> DF-SCS-MP2 Energies <==================
	-----------------------------------------------------------
	 SCS Same-Spin Scale       =       0.3333333333333333 [-]
	 SCS Opposite-Spin Scale   =       1.2000000000000000 [-]
	 SCS Same-Spin Energy      =      -0.1909520691534022 [Eh]
	 SCS Opposite-Spin Energy  =      -1.9953177770753148 [Eh]
	 SCS Correlation Energy    =      -2.1862698462287171 [Eh]
	 SCS Total Energy          =    -541.7677351800662109 [Eh]
	-----------------------------------------------------------

  Dipole Moment: [D]
     X:     2.6852      Y:    -5.6405      Z:     0.8440     Total:     6.3038

*** Psi4 exiting successfully. Buy a developer a beer!
