                               Psi4 1.3.2 release

  ==> Input File <==

--------------------------------------------------------------------------
#psi4
#
memory 32 gb

molecule  {
0 1
  O        0.1763910     2.6970700    -0.0085580
  C        0.2036141     1.6725026     0.0021371
  N        1.4659430     0.7906670    -0.0052000
  C        1.6696020    -0.5667920     0.0018180
  N        0.7040600    -1.4531590     0.0111340
  C       -0.5247500    -0.8567100    -0.0036900
  C       -0.8535700     0.4975280     0.0150930
  N       -2.2178770     0.6874110     0.0132550
  C       -2.7081380    -0.5423290     0.0003530
  N       -1.7302440    -1.5082620    -0.0074590
  N        2.9897270    -0.9822980    -0.0798890
  H        2.2638450     1.4140280    -0.1046570
  H       -3.7608750    -0.7937900    -0.0035550
  H       -1.8528420    -2.5141400    -0.0211820
  H        3.0628590    -1.9839740     0.0678780
  H        3.6422020    -0.4648880     0.5003130
units angstrom
no_reorient  #important for SAPT in psi4, default
symmetry c1  #important for SAPT in psi4, default
}

set PROPERTIES_ORIGIN ["COM"]
properties('MP2/aug-cc-pvtz', properties = ['dipole'])
--------------------------------------------------------------------------

    Molecular point group: c1
  Charge       = 0
  Multiplicity = 1
  Basis Set: AUG-CC-PVTZ
    Blend: AUG-CC-PVTZ
  Basis Set: (AUG-CC-PVTZ AUX)
    Blend: AUG-CC-PVTZ-JKFIT

    Orbital Energies [Eh]
    ---------------------

    Doubly Occupied:

       1A    -20.576491     2A    -15.624330     3A    -15.600889
       4A    -15.598308     5A    -15.553915     6A    -15.553233
       7A    -11.382084     8A    -11.370313     9A    -11.310218
      10A    -11.299791    11A    -11.245774    12A     -1.558181
      13A     -1.355162    14A     -1.320502    15A     -1.202810
      16A     -1.194691    17A     -1.162671    18A     -1.001892
      19A     -0.871125    20A     -0.866575    21A     -0.832566
      22A     -0.785836    23A     -0.741659    24A     -0.712867
      25A     -0.707107    26A     -0.685305    27A     -0.675274
      28A     -0.666040    29A     -0.630111    30A     -0.615658
      31A     -0.597300    32A     -0.575165    33A     -0.485300
      34A     -0.452644    35A     -0.442122    36A     -0.431187
      37A     -0.422196    38A     -0.398369    39A     -0.287547

  @DF-RHF Final Energy:  -539.50774272627643

   => Energetics <=

    Nuclear Repulsion Energy =            592.9522843714770488
    One-Electron Energy =               -1911.3336390660936104
    Two-Electron Energy =                 778.8736119683402421
    Total Energy =                       -539.5077427262764331
  Basis Set: (AUG-CC-PVTZ AUX)
    Blend: AUG-CC-PVTZ-RI
    Molecular point group: c1

    Geometry (in Angstrom), charge = 0, multiplicity = 1:

       Center              X                  Y                   Z               Mass
    ------------   -----------------  -----------------  -----------------  -----------------
         O            0.198832993426     2.652803028536    -0.005508956642    15.994914619570
         C            0.226056093426     1.628235628536     0.005186143358    12.000000000000
         N            1.488384993426     0.746400028536    -0.002150956642    14.003074004430
         C            1.692043993426    -0.611058971464     0.004867043358    12.000000000000
         N            0.726501993426    -1.497425971464     0.014183043358    14.003074004430
         C           -0.502308006574    -0.900976971464    -0.000640956642    12.000000000000
         C           -0.831128006574     0.453261028536     0.018142043358    12.000000000000
         N           -2.195435006574     0.643144028536     0.016304043358    14.003074004430
         C           -2.685696006574    -0.586595971464     0.003402043358    12.000000000000
         N           -1.707802006574    -1.552528971464    -0.004409956642    14.003074004430
         N            3.012168993426    -1.026564971464    -0.076839956642    14.003074004430
         H            2.286286993426     1.369761028536    -0.101607956642     1.007825032230
         H           -3.738433006574    -0.838056971464    -0.000505956642     1.007825032230
         H           -1.830400006574    -2.558406971464    -0.018132956642     1.007825032230
         H            3.085300993426    -2.028240971464     0.070927043358     1.007825032230
         H            3.664643993426    -0.509154971464     0.503362043358     1.007825032230

  Basis Set: AUG-CC-PVTZ
    Blend: AUG-CC-PVTZ
  Basis Set: (AUG-CC-PVTZ AUX)
    Blend: AUG-CC-PVTZ-JKFIT
	 Reference Energy          =    -539.5077427262764331 [Eh]
	 Singles Energy            =      -0.0000000000000000 [Eh]
	 Same-Spin Energy          =      -0.5693283014415482 [Eh]
	 Opposite-Spin Energy      =      -1.6565102060404027 [Eh]
	 Correlation Energy        =      -2.2258385074819511 [Eh]
	 Total Energy              =    -541.7335812337584002 [Eh]

	 ================> DF-SCS-MP2 Energies <==================
	-----------------------------------------------------------
	 SCS Same-Spin Scale       =       0.3333333333333333 [-]
	 SCS Opposite-Spin Scale   =       1.2000000000000000 [-]
	 SCS Same-Spin Energy      =      -0.1897761004805161 [Eh]
	 SCS Opposite-Spin Energy  =      -1.9878122472484832 [Eh]
	 SCS Correlation Energy    =      -2.1775883477289995 [Eh]
	 SCS Total Energy          =    -541.6853310740054894 [Eh]
	-----------------------------------------------------------

  Dipole Moment: [D]
     X:     2.4999      Y:    -3.2907      Z:     0.8299     Total:     4.2151

*** Psi4 exiting successfully. Buy a developer a beer!
