                               Psi4 1.3.2 release

  ==> Input File <==

--------------------------------------------------------------------------
#psi4
#
memory 32 gb

molecule  {
0 1
  O        0.1763910     2.6970700    -0.0085580
  C        0.2089260     1.4725840     0.0042240
  N        1.4659430     0.7906670    -0.0052000
  C        1.6696020    -0.5667920     0.0018180
  N        0.7040600    -1.4531590     0.0111340
  C       -0.5247500    -0.8567100    -0.0036900
  C       -0.8535700     0.4975280     0.0150930
  N       -2.2178770     0.6874110     0.0132550
  C       -2.7081380    -0.5423290     0.0003530
  N       -1.7302440    -1.5082620    -0.0074590
  N        2.9897270    -0.9822980    -0.0798890
  H        2.1854200     1.3527585    -0.0948815
  H       -3.7608750    -0.7937900    -0.0035550
  H       -1.8528420    -2.5141400    -0.0211820
  H        3.0628590    -1.9839740     0.0678780
  H        3.6422020    -0.4648880     0.5003130
units angstrom
no_reorient  #important for SAPT in psi4, default
symmetry c1  #important for SAPT in psi4, default
}

set PROPERTIES_ORIGIN ["COM"]
properties('MP2/aug-cc-pvtz', properties = ['dipole'])
--------------------------------------------------------------------------

    Molecular point group: c1
  Charge       = 0
  Multiplicity = 1
  Basis Set: AUG-CC-PVTZ
    Blend: AUG-CC-PVTZ
  Basis Set: (AUG-CC-PVTZ AUX)
    Blend: AUG-CC-PVTZ-JKFIT

    Orbital Energies [Eh]
    ---------------------

    Doubly Occupied:

       1A    -20.525242     2A    -15.636685     3A    -15.623055
       4A    -15.613189     5A    -15.574194     6A    -15.565653
       7A    -11.399400     8A    -11.368516     9A    -11.328090
      10A    -11.314681    11A    -11.251712    12A     -1.396965
      13A     -1.361566    14A     -1.338538    15A     -1.229834
      16A     -1.220016    17A     -1.180082    18A     -1.032500
      19A     -0.913061    20A     -0.890453    21A     -0.845992
      22A     -0.803457    23A     -0.757803    24A     -0.730980
      25A     -0.702006    26A     -0.673880    27A     -0.657628
      28A     -0.636669    29A     -0.615285    30A     -0.603407
      31A     -0.597713    32A     -0.548717    33A     -0.500816
      34A     -0.463229    35A     -0.443938    36A     -0.434536
      37A     -0.433454    38A     -0.412818    39A     -0.303363

  @DF-RHF Final Energy:  -539.58154846182151

   => Energetics <=

    Nuclear Repulsion Energy =            594.3507699666943154
    One-Electron Energy =               -1914.0063948776687539
    Two-Electron Energy =                 780.0740764491529262
    Total Energy =                       -539.5815484618215123
  Basis Set: (AUG-CC-PVTZ AUX)
    Blend: AUG-CC-PVTZ-RI
    Molecular point group: c1

    Geometry (in Angstrom), charge = 0, multiplicity = 1:

       Center              X                  Y                   Z               Mass
    ------------   -----------------  -----------------  -----------------  -----------------
         O            0.198934257497     2.669094201994    -0.005739972398    15.994914619570
         C            0.231469257497     1.444608201994     0.007042027602    12.000000000000
         N            1.488486257497     0.762691201994    -0.002381972398    14.003074004430
         C            1.692145257497    -0.594767798006     0.004636027602    12.000000000000
         N            0.726603257497    -1.481134798006     0.013952027602    14.003074004430
         C           -0.502206742503    -0.884685798006    -0.000871972398    12.000000000000
         C           -0.831026742503     0.469552201994     0.017911027602    12.000000000000
         N           -2.195333742503     0.659435201994     0.016073027602    14.003074004430
         C           -2.685594742503    -0.570304798006     0.003171027602    12.000000000000
         N           -1.707700742503    -1.536237798006    -0.004640972398    14.003074004430
         N            3.012270257497    -1.010273798006    -0.077070972398    14.003074004430
         H            2.207963257497     1.324782701994    -0.092063472398     1.007825032230
         H           -3.738331742503    -0.821765798006    -0.000736972398     1.007825032230
         H           -1.830298742503    -2.542115798006    -0.018363972398     1.007825032230
         H            3.085402257497    -2.011949798006     0.070696027602     1.007825032230
         H            3.664745257497    -0.492863798006     0.503131027602     1.007825032230

  Basis Set: AUG-CC-PVTZ
    Blend: AUG-CC-PVTZ
  Basis Set: (AUG-CC-PVTZ AUX)
    Blend: AUG-CC-PVTZ-JKFIT
	 Reference Energy          =    -539.5815484618215123 [Eh]
	 Singles Energy            =      -0.0000000000000000 [Eh]
	 Same-Spin Energy          =      -0.5722049445955271 [Eh]
	 Opposite-Spin Energy      =      -1.6616210721711364 [Eh]
	 Correlation Energy        =      -2.2338260167666633 [Eh]
	 Total Energy              =    -541.8153744785881827 [Eh]

	 ================> DF-SCS-MP2 Energies <==================
	-----------------------------------------------------------
	 SCS Same-Spin Scale       =       0.3333333333333333 [-]
	 SCS Opposite-Spin Scale   =       1.2000000000000000 [-]
	 SCS Same-Spin Energy      =      -0.1907349815318423 [Eh]
	 SCS Opposite-Spin Energy  =      -1.9939452866053635 [Eh]
	 SCS Correlation Energy    =      -2.1846802681372059 [Eh]
	 SCS Total Energy          =    -541.7662287299586978 [Eh]
	-----------------------------------------------------------

  Dipole Moment: [D]
     X:     2.5869      Y:    -5.7080      Z:     0.8571     Total:     6.3252

*** Psi4 exiting successfully. Buy a developer a beer!
