                               Psi4 1.3.2 release

  ==> Input File <==

--------------------------------------------------------------------------
#psi4
#
memory 32 gb

molecule  {
0 1
  O        0.1763910     2.6970700    -0.0085580
  C        0.2089260     1.4725840     0.0042240
  N        1.4659430     0.7906670    -0.0052000
  C        1.6696020    -0.5667920     0.0018180
  N        0.6934618    -1.4745144     0.0112370
  C       -0.5247500    -0.8567100    -0.0036900
  C       -0.8535700     0.4975280     0.0150930
  N       -2.2178770     0.6874110     0.0132550
  C       -2.7081380    -0.5423290     0.0003530
  N       -1.7302440    -1.5082620    -0.0074590
  N        2.9897270    -0.9822980    -0.0798890
  H        2.2638450     1.4140280    -0.1046570
  H       -3.7608750    -0.7937900    -0.0035550
  H       -1.8528420    -2.5141400    -0.0211820
  H        3.0628590    -1.9839740     0.0678780
  H        3.6422020    -0.4648880     0.5003130
units angstrom
no_reorient  #important for SAPT in psi4, default
symmetry c1  #important for SAPT in psi4, default
}

set PROPERTIES_ORIGIN ["COM"]
properties('MP2/aug-cc-pvtz', properties = ['dipole'])
--------------------------------------------------------------------------

    Molecular point group: c1
  Charge       = 0
  Multiplicity = 1
  Basis Set: AUG-CC-PVTZ
    Blend: AUG-CC-PVTZ
  Basis Set: (AUG-CC-PVTZ AUX)
    Blend: AUG-CC-PVTZ-JKFIT

    Orbital Energies [Eh]
    ---------------------

    Doubly Occupied:

       1A    -20.524705     2A    -15.634582     3A    -15.634538
       4A    -15.614596     5A    -15.576065     6A    -15.564633
       7A    -11.403082     8A    -11.368282     9A    -11.326876
      10A    -11.313493    11A    -11.250819    12A     -1.393235
      13A     -1.360221    14A     -1.334378    15A     -1.222224
      16A     -1.216861    17A     -1.176616    18A     -1.029750
      19A     -0.906099    20A     -0.886326    21A     -0.844193
      22A     -0.797191    23A     -0.741093    24A     -0.729763
      25A     -0.701412    26A     -0.673385    27A     -0.655382
      28A     -0.630823    29A     -0.614596    30A     -0.601100
      31A     -0.595965    32A     -0.547456    33A     -0.501187
      34A     -0.462695    35A     -0.443984    36A     -0.433648
      37A     -0.433106    38A     -0.411415    39A     -0.301288

  @DF-RHF Final Energy:  -539.58550551611586

   => Energetics <=

    Nuclear Repulsion Energy =            593.1158873169440540
    One-Electron Energy =               -1911.6886645487616079
    Two-Electron Energy =                 778.9872717157016950
    Total Energy =                       -539.5855055161158589
  Basis Set: (AUG-CC-PVTZ AUX)
    Blend: AUG-CC-PVTZ-RI
    Molecular point group: c1

    Geometry (in Angstrom), charge = 0, multiplicity = 1:

       Center              X                  Y                   Z               Mass
    ------------   -----------------  -----------------  -----------------  -----------------
         O            0.199393502594     2.670665160206    -0.005684297391    15.994914619570
         C            0.231928502594     1.446179160206     0.007097702609    12.000000000000
         N            1.488945502594     0.764262160206    -0.002326297391    14.003074004430
         C            1.692604502594    -0.593196839794     0.004691702609    12.000000000000
         N            0.716464302594    -1.500919239794     0.014110702609    14.003074004430
         C           -0.501747497406    -0.883114839794    -0.000816297391    12.000000000000
         C           -0.830567497406     0.471123160206     0.017966702609    12.000000000000
         N           -2.194874497406     0.661006160206     0.016128702609    14.003074004430
         C           -2.685135497406    -0.568733839794     0.003226702609    12.000000000000
         N           -1.707241497406    -1.534666839794    -0.004585297391    14.003074004430
         N            3.012729502594    -1.008702839794    -0.077015297391    14.003074004430
         H            2.286847502594     1.387623160206    -0.101783297391     1.007825032230
         H           -3.737872497406    -0.820194839794    -0.000681297391     1.007825032230
         H           -1.829839497406    -2.540544839794    -0.018308297391     1.007825032230
         H            3.085861502594    -2.010378839794     0.070751702609     1.007825032230
         H            3.665204502594    -0.491292839794     0.503186702609     1.007825032230

  Basis Set: AUG-CC-PVTZ
    Blend: AUG-CC-PVTZ
  Basis Set: (AUG-CC-PVTZ AUX)
    Blend: AUG-CC-PVTZ-JKFIT
	 Reference Energy          =    -539.5855055161158589 [Eh]
	 Singles Energy            =      -0.0000000000000000 [Eh]
	 Same-Spin Energy          =      -0.5733009845094418 [Eh]
	 Opposite-Spin Energy      =      -1.6639183917460432 [Eh]
	 Correlation Energy        =      -2.2372193762554851 [Eh]
	 Total Energy              =    -541.8227248923712978 [Eh]

	 ================> DF-SCS-MP2 Energies <==================
	-----------------------------------------------------------
	 SCS Same-Spin Scale       =       0.3333333333333333 [-]
	 SCS Opposite-Spin Scale   =       1.2000000000000000 [-]
	 SCS Same-Spin Energy      =      -0.1911003281698139 [Eh]
	 SCS Opposite-Spin Energy  =      -1.9967020700952518 [Eh]
	 SCS Correlation Energy    =      -2.1878023982650658 [Eh]
	 SCS Total Energy          =    -541.7733079143808936 [Eh]
	-----------------------------------------------------------

  Dipole Moment: [D]
     X:     2.7616      Y:    -5.5845      Z:     0.8415     Total:     6.2866

*** Psi4 exiting successfully. Buy a developer a beer!
