                               Psi4 1.3.2 release

  ==> Input File <==

--------------------------------------------------------------------------
#psi4
#
memory 32 gb

molecule  {
0 1
  O        0.1763910     2.6970700    -0.0085580
  C        0.2089260     1.4725840     0.0042240
  N        1.4659430     0.7906670    -0.0052000
  C        1.7148773    -0.4669917     0.0969414
  N        0.7040600    -1.4531590     0.0111340
  C       -0.5247500    -0.8567100    -0.0036900
  C       -0.8535700     0.4975280     0.0150930
  N       -2.2178770     0.6874110     0.0132550
  C       -2.7081380    -0.5423290     0.0003530
  N       -1.7302440    -1.5082620    -0.0074590
  N        2.9897270    -0.9822980    -0.0798890
  H        2.2638450     1.4140280    -0.1046570
  H       -3.7608750    -0.7937900    -0.0035550
  H       -1.8528420    -2.5141400    -0.0211820
  H        3.0628590    -1.9839740     0.0678780
  H        3.6422020    -0.4648880     0.5003130
units angstrom
no_reorient  #important for SAPT in psi4, default
symmetry c1  #important for SAPT in psi4, default
}

set PROPERTIES_ORIGIN ["COM"]
properties('MP2/aug-cc-pvtz', properties = ['dipole'])
--------------------------------------------------------------------------

    Molecular point group: c1
  Charge       = 0
  Multiplicity = 1
  Basis Set: AUG-CC-PVTZ
    Blend: AUG-CC-PVTZ
  Basis Set: (AUG-CC-PVTZ AUX)
    Blend: AUG-CC-PVTZ-JKFIT

    Orbital Energies [Eh]
    ---------------------

    Doubly Occupied:

       1A    -20.527915     2A    -15.647342     3A    -15.630061
       4A    -15.618886     5A    -15.568159     6A    -15.561698
       7A    -11.402999     8A    -11.372665     9A    -11.323314
      10A    -11.311634    11A    -11.246233    12A     -1.403836
      13A     -1.357336    14A     -1.344282    15A     -1.236309
      16A     -1.201847    17A     -1.169628    18A     -1.027031
      19A     -0.915674    20A     -0.892170    21A     -0.840727
      22A     -0.793283    23A     -0.757090    24A     -0.727343
      25A     -0.703249    26A     -0.678547    27A     -0.660242
      28A     -0.616796    29A     -0.612235    30A     -0.601881
      31A     -0.597390    32A     -0.544098    33A     -0.493111
      34A     -0.464909    35A     -0.447708    36A     -0.436679
      37A     -0.427903    38A     -0.408552    39A     -0.291839

  @DF-RHF Final Energy:  -539.56451177238898

   => Energetics <=

    Nuclear Repulsion Energy =            593.4283755983381070
    One-Electron Energy =               -1912.2605729503568455
    Two-Electron Energy =                 779.2676855796297559
    Total Energy =                       -539.5645117723889825
  Basis Set: (AUG-CC-PVTZ AUX)
    Blend: AUG-CC-PVTZ-RI
    Molecular point group: c1

    Geometry (in Angstrom), charge = 0, multiplicity = 1:

       Center              X                  Y                   Z               Mass
    ------------   -----------------  -----------------  -----------------  -----------------
         O            0.194814133632     2.660756847102    -0.013231751465    15.994914619570
         C            0.227349133632     1.436270847102    -0.000449751465    12.000000000000
         N            1.484366133632     0.754353847102    -0.009873751465    14.003074004430
         C            1.733300433632    -0.503304852898     0.092267648535    12.000000000000
         N            0.722483133632    -1.489472152898     0.006460248535    14.003074004430
         C           -0.506326866368    -0.893023152898    -0.008363751465    12.000000000000
         C           -0.835146866368     0.461214847102     0.010419248535    12.000000000000
         N           -2.199453866368     0.651097847102     0.008581248535    14.003074004430
         C           -2.689714866368    -0.578642152898    -0.004320751465    12.000000000000
         N           -1.711820866368    -1.544575152898    -0.012132751465    14.003074004430
         N            3.008150133632    -1.018611152898    -0.084562751465    14.003074004430
         H            2.282268133632     1.377714847102    -0.109330751465     1.007825032230
         H           -3.742451866368    -0.830103152898    -0.008228751465     1.007825032230
         H           -1.834418866368    -2.550453152898    -0.025855751465     1.007825032230
         H            3.081282133632    -2.020287152898     0.063204248535     1.007825032230
         H            3.660625133632    -0.501201152898     0.495639248535     1.007825032230

  Basis Set: AUG-CC-PVTZ
    Blend: AUG-CC-PVTZ
  Basis Set: (AUG-CC-PVTZ AUX)
    Blend: AUG-CC-PVTZ-JKFIT
	 Reference Energy          =    -539.5645117723889825 [Eh]
	 Singles Energy            =      -0.0000000000000000 [Eh]
	 Same-Spin Energy          =      -0.5744255894941339 [Eh]
	 Opposite-Spin Energy      =      -1.6656278986169737 [Eh]
	 Correlation Energy        =      -2.2400534881111076 [Eh]
	 Total Energy              =    -541.8045652605001123 [Eh]

	 ================> DF-SCS-MP2 Energies <==================
	-----------------------------------------------------------
	 SCS Same-Spin Scale       =       0.3333333333333333 [-]
	 SCS Opposite-Spin Scale   =       1.2000000000000000 [-]
	 SCS Same-Spin Energy      =      -0.1914751964980446 [Eh]
	 SCS Opposite-Spin Energy  =      -1.9987534783403684 [Eh]
	 SCS Correlation Energy    =      -2.1902286748384130 [Eh]
	 SCS Total Energy          =    -541.7547404472273911 [Eh]
	-----------------------------------------------------------

  Dipole Moment: [D]
     X:     3.0097      Y:    -5.2604      Z:     0.9000     Total:     6.1269

*** Psi4 exiting successfully. Buy a developer a beer!
