                               Psi4 1.3.2 release

  ==> Input File <==

--------------------------------------------------------------------------
#psi4
#
memory 32 gb

molecule  {
0 1
  O        0.1763910     2.6970700    -0.0085580
  C        0.2089260     1.4725840     0.0042240
  N        1.4659430     0.7906670    -0.0052000
  C        1.6696020    -0.5667920     0.0018180
  N        0.7040600    -1.4531590     0.0111340
  C       -0.5247500    -0.8567100    -0.0036900
  C       -0.8477752     0.5452552     0.0155585
  N       -2.2178770     0.6874110     0.0132550
  C       -2.7081380    -0.5423290     0.0003530
  N       -1.7302440    -1.5082620    -0.0074590
  N        2.9897270    -0.9822980    -0.0798890
  H        2.2638450     1.4140280    -0.1046570
  H       -3.7608750    -0.7937900    -0.0035550
  H       -1.8528420    -2.5141400    -0.0211820
  H        3.0628590    -1.9839740     0.0678780
  H        3.6422020    -0.4648880     0.5003130
units angstrom
no_reorient  #important for SAPT in psi4, default
symmetry c1  #important for SAPT in psi4, default
}

set PROPERTIES_ORIGIN ["COM"]
properties('MP2/aug-cc-pvtz', properties = ['dipole'])
--------------------------------------------------------------------------

    Molecular point group: c1
  Charge       = 0
  Multiplicity = 1
  Basis Set: AUG-CC-PVTZ
    Blend: AUG-CC-PVTZ
  Basis Set: (AUG-CC-PVTZ AUX)
    Blend: AUG-CC-PVTZ-JKFIT

    Orbital Energies [Eh]
    ---------------------

    Doubly Occupied:

       1A    -20.518087     2A    -15.639564     3A    -15.632288
       4A    -15.613356     5A    -15.575503     6A    -15.566505
       7A    -11.399974     8A    -11.362597     9A    -11.335817
      10A    -11.314827    11A    -11.253031    12A     -1.392063
      13A     -1.358512    14A     -1.335510    15A     -1.221145
      16A     -1.219000    17A     -1.179546    18A     -1.030931
      19A     -0.911559    20A     -0.886015    21A     -0.842837
      22A     -0.799862    23A     -0.742017    24A     -0.732902
      25A     -0.699190    26A     -0.671369    27A     -0.656438
      28A     -0.636036    29A     -0.610407    30A     -0.606782
      31A     -0.596620    32A     -0.548650    33A     -0.500183
      34A     -0.463392    35A     -0.440580    36A     -0.432158
      37A     -0.428225    38A     -0.412671    39A     -0.299553

  @DF-RHF Final Energy:  -539.58334291402889

   => Energetics <=

    Nuclear Repulsion Energy =            593.2935691701914038
    One-Electron Energy =               -1912.0224203964021399
    Two-Electron Energy =                 779.1455083121818461
    Total Energy =                       -539.5833429140288899
  Basis Set: (AUG-CC-PVTZ AUX)
    Blend: AUG-CC-PVTZ-RI
    Molecular point group: c1

    Geometry (in Angstrom), charge = 0, multiplicity = 1:

       Center              X                  Y                   Z               Mass
    ------------   -----------------  -----------------  -----------------  -----------------
         O            0.197950630495     2.664893753037    -0.005711730026    15.994914619570
         C            0.230485630495     1.440407753037     0.007070269974    12.000000000000
         N            1.487502630495     0.758490753037    -0.002353730026    14.003074004430
         C            1.691161630495    -0.598968246963     0.004664269974    12.000000000000
         N            0.725619630495    -1.485335246963     0.013980269974    14.003074004430
         C           -0.503190369505    -0.888886246963    -0.000843730026    12.000000000000
         C           -0.826215569505     0.513078953037     0.018404769974    12.000000000000
         N           -2.196317369505     0.655234753037     0.016101269974    14.003074004430
         C           -2.686578369505    -0.574505246963     0.003199269974    12.000000000000
         N           -1.708684369505    -1.540438246963    -0.004612730026    14.003074004430
         N            3.011286630495    -1.014474246963    -0.077042730026    14.003074004430
         H            2.285404630495     1.381851753037    -0.101810730026     1.007825032230
         H           -3.739315369505    -0.825966246963    -0.000708730026     1.007825032230
         H           -1.831282369505    -2.546316246963    -0.018335730026     1.007825032230
         H            3.084418630495    -2.016150246963     0.070724269974     1.007825032230
         H            3.663761630495    -0.497064246963     0.503159269974     1.007825032230

  Basis Set: AUG-CC-PVTZ
    Blend: AUG-CC-PVTZ
  Basis Set: (AUG-CC-PVTZ AUX)
    Blend: AUG-CC-PVTZ-JKFIT
	 Reference Energy          =    -539.5833429140288899 [Eh]
	 Singles Energy            =      -0.0000000000000000 [Eh]
	 Same-Spin Energy          =      -0.5736999982265447 [Eh]
	 Opposite-Spin Energy      =      -1.6638691981919311 [Eh]
	 Correlation Energy        =      -2.2375691964184758 [Eh]
	 Total Energy              =    -541.8209121104473525 [Eh]

	 ================> DF-SCS-MP2 Energies <==================
	-----------------------------------------------------------
	 SCS Same-Spin Scale       =       0.3333333333333333 [-]
	 SCS Opposite-Spin Scale   =       1.2000000000000000 [-]
	 SCS Same-Spin Energy      =      -0.1912333327421816 [Eh]
	 SCS Opposite-Spin Energy  =      -1.9966430378303173 [Eh]
	 SCS Correlation Energy    =      -2.1878763705724991 [Eh]
	 SCS Total Energy          =    -541.7712192846014432 [Eh]
	-----------------------------------------------------------

  Dipole Moment: [D]
     X:     2.6227      Y:    -5.7813      Z:     0.8444     Total:     6.4043

*** Psi4 exiting successfully. Buy a developer a beer!
