                               Psi4 1.4a3.dev225

  ==> Input File <==

--------------------------------------------------------------------------
#psi4
#
memory 32 gb

molecule  {
0 1
  O        0.1763800     2.6970850    -0.0086780
  C        0.2088860     1.4725900     0.0042210
  N        1.4659360     0.7906750    -0.0050880
  C        1.6696170    -0.5667500     0.0018210
  N        0.7040680    -1.4531450     0.0111020
  C       -0.5247290    -0.8567090    -0.0037110
  C       -0.8535850     0.4975420     0.0152200
  N       -2.2178950     0.6873840     0.0133320
  C       -2.7081200    -0.5423560     0.0003580
  N       -1.7302140    -1.5082770    -0.0075250
  N        2.9897250    -0.9823190    -0.0798750
  H        2.2637990     1.4140370    -0.1048620
  H       -3.7608500    -0.7938460    -0.0035590
  H       -1.8527810    -2.5141570    -0.0214260
  H        3.0613682    -1.9642517     0.0650631
  H        3.6422460    -0.4648460     0.5002060
units angstrom
no_reorient  #important for SAPT in psi4, default
symmetry c1  #important for SAPT in psi4, default
}

set PROPERTIES_ORIGIN ["COM"]
properties('MP2/aug-cc-pvtz', properties = ['dipole'])
--------------------------------------------------------------------------

    Molecular point group: c1
  Charge       = 0
  Multiplicity = 1
  Basis Set: AUG-CC-PVTZ
    Blend: AUG-CC-PVTZ
  Basis Set: (AUG-CC-PVTZ AUX)
    Blend: AUG-CC-PVTZ-JKFIT

    Orbital Energies [Eh]
    ---------------------

    Doubly Occupied:

       1A    -20.524470     2A    -15.636303     3A    -15.632049
       4A    -15.610634     5A    -15.573757     6A    -15.565376
       7A    -11.398705     8A    -11.368083     9A    -11.327686
      10A    -11.314388    11A    -11.251566    12A     -1.393696
      13A     -1.361062    14A     -1.336434    15A     -1.223120
      16A     -1.218532    17A     -1.178350    18A     -1.031764
      19A     -0.907118    20A     -0.886216    21A     -0.845059
      22A     -0.799565    23A     -0.740729    24A     -0.731070
      25A     -0.703592    26A     -0.674579    27A     -0.656664
      28A     -0.633920    29A     -0.614834    30A     -0.601531
      31A     -0.596830    32A     -0.548127    33A     -0.499883
      34A     -0.462951    35A     -0.443301    36A     -0.433257
      37A     -0.432693    38A     -0.412309    39A     -0.303028

  @DF-RHF Final Energy:  -539.58792829636286

   => Energetics <=

    Nuclear Repulsion Energy =            593.7650708486119129
    One-Electron Energy =               -1912.9595380430553178
    Two-Electron Energy =                 779.6065388980805437
    Total Energy =                       -539.5879282963628611
  Basis Set: (AUG-CC-PVTZ AUX)
    Blend: AUG-CC-PVTZ-RI
    Molecular point group: c1

    Geometry (in Angstrom), charge = 0, multiplicity = 1:

       Center              X                  Y                   Z               Mass
    ------------   -----------------  -----------------  -----------------  -----------------
         O            0.198409604648     2.668568311506    -0.005778076220    15.994914619570
         C            0.230915604648     1.444073311506     0.007120923780    12.000000000000
         N            1.487965604648     0.762158311506    -0.002188076220    14.003074004430
         C            1.691646604648    -0.595266688494     0.004720923780    12.000000000000
         N            0.726097604648    -1.481661688494     0.014001923780    14.003074004430
         C           -0.502699395352    -0.885225688494    -0.000811076220    12.000000000000
         C           -0.831555395352     0.469025311506     0.018119923780    12.000000000000
         N           -2.195865395352     0.658867311506     0.016231923780    14.003074004430
         C           -2.686090395352    -0.570872688494     0.003257923780    12.000000000000
         N           -1.708184395352    -1.536793688494    -0.004625076220    14.003074004430
         N            3.011754604648    -1.010835688494    -0.076975076220    14.003074004430
         H            2.285828604648     1.385520311506    -0.101962076220     1.007825032230
         H           -3.738820395352    -0.822362688494    -0.000659076220     1.007825032230
         H           -1.830751395352    -2.542673688494    -0.018526076220     1.007825032230
         H            3.083397804648    -1.992768388494     0.067963023780     1.007825032230
         H            3.664275604648    -0.493362688494     0.503105923780     1.007825032230

  Basis Set: AUG-CC-PVTZ
    Blend: AUG-CC-PVTZ
  Basis Set: (AUG-CC-PVTZ AUX)
    Blend: AUG-CC-PVTZ-JKFIT
	 Reference Energy          =    -539.5879282963628611 [Eh]
	 Singles Energy            =      -0.0000000000000000 [Eh]
	 Same-Spin Energy          =      -0.5729143341844554 [Eh]
	 Opposite-Spin Energy      =      -1.6628757572181943 [Eh]
	 Correlation Energy        =      -2.2357900914026496 [Eh]
	 Total Energy              =    -541.8237183877655525 [Eh]

	 ================> DF-SCS-MP2 Energies <==================
	-----------------------------------------------------------
	 SCS Same-Spin Scale       =       0.3333333333333333 [-]
	 SCS Opposite-Spin Scale   =       1.2000000000000000 [-]
	 SCS Same-Spin Energy      =      -0.1909714447281518 [Eh]
	 SCS Opposite-Spin Energy  =      -1.9954509086618331 [Eh]
	 SCS Correlation Energy    =      -2.1864223533899847 [Eh]
	 SCS Total Energy          =    -541.7743506497528188 [Eh]
	-----------------------------------------------------------

  Dipole Moment: [D]
     X:     2.6629      Y:    -5.6156      Z:     0.8429     Total:     6.2718

*** Psi4 exiting successfully. Buy a developer a beer!
