                               Psi4 1.3.2 release

  ==> Input File <==

--------------------------------------------------------------------------
#psi4
#
memory 32 gb

molecule  {
0 1
  O        0.1763910     2.6970700    -0.0085580
  C        0.2595475     1.5586078     0.0030668
  N        1.4659430     0.7906670    -0.0052000
  C        1.6696020    -0.5667920     0.0018180
  N        0.7040600    -1.4531590     0.0111340
  C       -0.5247500    -0.8567100    -0.0036900
  C       -0.8535700     0.4975280     0.0150930
  N       -2.2178770     0.6874110     0.0132550
  C       -2.7081380    -0.5423290     0.0003530
  N       -1.7302440    -1.5082620    -0.0074590
  N        2.9897270    -0.9822980    -0.0798890
  H        2.2638450     1.4140280    -0.1046570
  H       -3.7608750    -0.7937900    -0.0035550
  H       -1.8528420    -2.5141400    -0.0211820
  H        3.0628590    -1.9839740     0.0678780
  H        3.6422020    -0.4648880     0.5003130
units angstrom
no_reorient  #important for SAPT in psi4, default
symmetry c1  #important for SAPT in psi4, default
}

set PROPERTIES_ORIGIN ["COM"]
properties('MP2/aug-cc-pvtz', properties = ['dipole'])
--------------------------------------------------------------------------

    Molecular point group: c1
  Charge       = 0
  Multiplicity = 1
  Basis Set: AUG-CC-PVTZ
    Blend: AUG-CC-PVTZ
  Basis Set: (AUG-CC-PVTZ AUX)
    Blend: AUG-CC-PVTZ-JKFIT

    Orbital Energies [Eh]
    ---------------------

    Doubly Occupied:

       1A    -20.544729     2A    -15.628698     3A    -15.627438
       4A    -15.609238     5A    -15.567189     6A    -15.558509
       7A    -11.395106     8A    -11.370373     9A    -11.314599
      10A    -11.305762    11A    -11.248366    12A     -1.447578
      13A     -1.363833    14A     -1.334293    15A     -1.221829
      16A     -1.212946    17A     -1.170188    18A     -1.013312
      19A     -0.895454    20A     -0.879624    21A     -0.836880
      22A     -0.795528    23A     -0.730651    24A     -0.725595
      25A     -0.701108    26A     -0.675560    27A     -0.654064
      28A     -0.645597    29A     -0.627548    30A     -0.598604
      31A     -0.594604    32A     -0.569747    33A     -0.493866
      34A     -0.461564    35A     -0.448886    36A     -0.438369
      37A     -0.426270    38A     -0.405233    39A     -0.293909

  @DF-RHF Final Energy:  -539.57651891321234

   => Energetics <=

    Nuclear Repulsion Energy =            593.1479490860500619
    One-Electron Energy =               -1911.7836416590550925
    Two-Electron Energy =                 779.0591736597928048
    Total Energy =                       -539.5765189132123396
  Basis Set: (AUG-CC-PVTZ AUX)
    Blend: AUG-CC-PVTZ-RI
    Molecular point group: c1

    Geometry (in Angstrom), charge = 0, multiplicity = 1:

       Center              X                  Y                   Z               Mass
    ------------   -----------------  -----------------  -----------------  -----------------
         O            0.194389409033     2.661851310167    -0.005582815918    15.994914619570
         C            0.277545909033     1.523389110167     0.006041984082    12.000000000000
         N            1.483941409033     0.755448310167    -0.002224815918    14.003074004430
         C            1.687600409033    -0.602010689833     0.004793184082    12.000000000000
         N            0.722058409033    -1.488377689833     0.014109184082    14.003074004430
         C           -0.506751590967    -0.891928689833    -0.000714815918    12.000000000000
         C           -0.835571590967     0.462309310167     0.018068184082    12.000000000000
         N           -2.199878590967     0.652192310167     0.016230184082    14.003074004430
         C           -2.690139590967    -0.577547689833     0.003328184082    12.000000000000
         N           -1.712245590967    -1.543480689833    -0.004483815918    14.003074004430
         N            3.007725409033    -1.017516689833    -0.076913815918    14.003074004430
         H            2.281843409033     1.378809310167    -0.101681815918     1.007825032230
         H           -3.742876590967    -0.829008689833    -0.000579815918     1.007825032230
         H           -1.834843590967    -2.549358689833    -0.018206815918     1.007825032230
         H            3.080857409033    -2.019192689833     0.070853184082     1.007825032230
         H            3.660200409033    -0.500106689833     0.503288184082     1.007825032230

  Basis Set: AUG-CC-PVTZ
    Blend: AUG-CC-PVTZ
  Basis Set: (AUG-CC-PVTZ AUX)
    Blend: AUG-CC-PVTZ-JKFIT
	 Reference Energy          =    -539.5765189132123396 [Eh]
	 Singles Energy            =      -0.0000000000000000 [Eh]
	 Same-Spin Energy          =      -0.5714121983516629 [Eh]
	 Opposite-Spin Energy      =      -1.6603538061093837 [Eh]
	 Correlation Energy        =      -2.2317660044610466 [Eh]
	 Total Energy              =    -541.8082849176734044 [Eh]

	 ================> DF-SCS-MP2 Energies <==================
	-----------------------------------------------------------
	 SCS Same-Spin Scale       =       0.3333333333333333 [-]
	 SCS Opposite-Spin Scale   =       1.2000000000000000 [-]
	 SCS Same-Spin Energy      =      -0.1904707327838876 [Eh]
	 SCS Opposite-Spin Energy  =      -1.9924245673312604 [Eh]
	 SCS Correlation Energy    =      -2.1828953001151481 [Eh]
	 SCS Total Energy          =    -541.7594142133274318 [Eh]
	-----------------------------------------------------------

  Dipole Moment: [D]
     X:     2.8969      Y:    -4.7461      Z:     0.8408     Total:     5.6236

*** Psi4 exiting successfully. Buy a developer a beer!
