                               Psi4 1.3.2 release

  ==> Input File <==

--------------------------------------------------------------------------
#psi4
#
memory 32 gb

molecule  {
0 1
  O        0.1763910     2.6970700    -0.0085580
  C        0.2089260     1.4725840     0.0042240
  N        1.4659430     0.7906670    -0.0052000
  C        1.6696020    -0.5667920     0.0018180
  N        0.7040600    -1.4531590     0.0111340
  C       -0.5247500    -0.8567100    -0.0036900
  C       -0.8535700     0.4975280     0.0150930
  N       -2.2178770     0.6874110     0.0132550
  C       -2.7081380    -0.5423290     0.0003530
  N       -1.7302440    -1.5082620    -0.0074590
  N        2.9897270    -0.9822980    -0.0798890
  H        2.3422700     1.4752975    -0.1144325
  H       -3.7608750    -0.7937900    -0.0035550
  H       -1.8528420    -2.5141400    -0.0211820
  H        3.0628590    -1.9839740     0.0678780
  H        3.6422020    -0.4648880     0.5003130
units angstrom
no_reorient  #important for SAPT in psi4, default
symmetry c1  #important for SAPT in psi4, default
}

set PROPERTIES_ORIGIN ["COM"]
properties('MP2/aug-cc-pvtz', properties = ['dipole'])
--------------------------------------------------------------------------

    Molecular point group: c1
  Charge       = 0
  Multiplicity = 1
  Basis Set: AUG-CC-PVTZ
    Blend: AUG-CC-PVTZ
  Basis Set: (AUG-CC-PVTZ AUX)
    Blend: AUG-CC-PVTZ-JKFIT

    Orbital Energies [Eh]
    ---------------------

    Doubly Occupied:

       1A    -20.523612     2A    -15.639233     3A    -15.635813
       4A    -15.611546     5A    -15.573084     6A    -15.565007
       7A    -11.397866     8A    -11.367583     9A    -11.327125
      10A    -11.313979    11A    -11.251294    12A     -1.391152
      13A     -1.360388    14A     -1.333844    15A     -1.219019
      16A     -1.212276    17A     -1.176353    18A     -1.030449
      19A     -0.903493    20A     -0.880526    21A     -0.844143
      22A     -0.796300    23A     -0.729876    24A     -0.722422
      25A     -0.698460    26A     -0.672511    27A     -0.655095
      28A     -0.630163    29A     -0.614042    30A     -0.598748
      31A     -0.595442    32A     -0.547136    33A     -0.498656
      34A     -0.461916    35A     -0.442541    36A     -0.432632
      37A     -0.431049    38A     -0.411684    39A     -0.302508

  @DF-RHF Final Energy:  -539.57695086520380

   => Energetics <=

    Nuclear Repulsion Energy =            593.0384284119176073
    One-Electron Energy =               -1911.6328282147035225
    Two-Electron Energy =                 779.0174489375822304
    Total Energy =                       -539.5769508652037985
  Basis Set: (AUG-CC-PVTZ AUX)
    Blend: AUG-CC-PVTZ-RI
    Molecular point group: c1

    Geometry (in Angstrom), charge = 0, multiplicity = 1:

       Center              X                  Y                   Z               Mass
    ------------   -----------------  -----------------  -----------------  -----------------
         O            0.197887730030     2.668276602827    -0.005609525101    15.994914619570
         C            0.230422730030     1.443790602827     0.007172474899    12.000000000000
         N            1.487439730030     0.761873602827    -0.002251525101    14.003074004430
         C            1.691098730030    -0.595585397173     0.004766474899    12.000000000000
         N            0.725556730030    -1.481952397173     0.014082474899    14.003074004430
         C           -0.503253269970    -0.885503397173    -0.000741525101    12.000000000000
         C           -0.832073269970     0.468734602827     0.018041474899    12.000000000000
         N           -2.196380269970     0.658617602827     0.016203474899    14.003074004430
         C           -2.686641269970    -0.571122397173     0.003301474899    12.000000000000
         N           -1.708747269970    -1.537055397173    -0.004510525101    14.003074004430
         N            3.011223730030    -1.011091397173    -0.076940525101    14.003074004430
         H            2.363766730030     1.446504102827    -0.111484025101     1.007825032230
         H           -3.739378269970    -0.822583397173    -0.000606525101     1.007825032230
         H           -1.831345269970    -2.542933397173    -0.018233525101     1.007825032230
         H            3.084355730030    -2.012767397173     0.070826474899     1.007825032230
         H            3.663698730030    -0.493681397173     0.503261474899     1.007825032230

  Basis Set: AUG-CC-PVTZ
    Blend: AUG-CC-PVTZ
  Basis Set: (AUG-CC-PVTZ AUX)
    Blend: AUG-CC-PVTZ-JKFIT
	 Reference Energy          =    -539.5769508652037985 [Eh]
	 Singles Energy            =      -0.0000000000000000 [Eh]
	 Same-Spin Energy          =      -0.5739542988226719 [Eh]
	 Opposite-Spin Energy      =      -1.6652041633359147 [Eh]
	 Correlation Energy        =      -2.2391584621585867 [Eh]
	 Total Energy              =    -541.8161093273623692 [Eh]

	 ================> DF-SCS-MP2 Energies <==================
	-----------------------------------------------------------
	 SCS Same-Spin Scale       =       0.3333333333333333 [-]
	 SCS Opposite-Spin Scale   =       1.2000000000000000 [-]
	 SCS Same-Spin Energy      =      -0.1913180996075573 [Eh]
	 SCS Opposite-Spin Energy  =      -1.9982449960030975 [Eh]
	 SCS Correlation Energy    =      -2.1895630956106547 [Eh]
	 SCS Total Energy          =    -541.7665139608144500 [Eh]
	-----------------------------------------------------------

  Dipole Moment: [D]
     X:     2.7481      Y:    -5.5605      Z:     0.8303     Total:     6.2579

*** Psi4 exiting successfully. Buy a developer a beer!
