                               Psi4 1.3.2 release

  ==> Input File <==

--------------------------------------------------------------------------
#psi4
#
memory 32 gb

molecule  {
0 1
  O        0.1763910     2.6970700    -0.0085580
  C        0.2089260     1.4725840     0.0042240
  N        1.4659430     0.7906670    -0.0052000
  C        1.6696020    -0.5667920     0.0018180
  N        0.7040600    -1.4531590     0.0111340
  C       -0.5247500    -0.8567100    -0.0036900
  C       -0.9007562     0.6918633     0.0177884
  N       -2.2178770     0.6874110     0.0132550
  C       -2.7081380    -0.5423290     0.0003530
  N       -1.7302440    -1.5082620    -0.0074590
  N        2.9897270    -0.9822980    -0.0798890
  H        2.2638450     1.4140280    -0.1046570
  H       -3.7608750    -0.7937900    -0.0035550
  H       -1.8528420    -2.5141400    -0.0211820
  H        3.0628590    -1.9839740     0.0678780
  H        3.6422020    -0.4648880     0.5003130
units angstrom
no_reorient  #important for SAPT in psi4, default
symmetry c1  #important for SAPT in psi4, default
}

set PROPERTIES_ORIGIN ["COM"]
properties('MP2/aug-cc-pvtz', properties = ['dipole'])
--------------------------------------------------------------------------

    Molecular point group: c1
  Charge       = 0
  Multiplicity = 1
  Basis Set: AUG-CC-PVTZ
    Blend: AUG-CC-PVTZ
  Basis Set: (AUG-CC-PVTZ AUX)
    Blend: AUG-CC-PVTZ-JKFIT

    Orbital Energies [Eh]
    ---------------------

    Doubly Occupied:

       1A    -20.503129     2A    -15.647425     3A    -15.634758
       4A    -15.615815     5A    -15.579244     6A    -15.568383
       7A    -11.403023     8A    -11.353036     9A    -11.346807
      10A    -11.313688    11A    -11.262009    12A     -1.388904
      13A     -1.354868    14A     -1.336209    15A     -1.224190
      16A     -1.220410    17A     -1.191523    18A     -1.023917
      19A     -0.917607    20A     -0.890470    21A     -0.842079
      22A     -0.801093    23A     -0.747748    24A     -0.741883
      25A     -0.695758    26A     -0.662454    27A     -0.653106
      28A     -0.642029    29A     -0.622031    30A     -0.597153
      31A     -0.593958    32A     -0.551311    33A     -0.503171
      34A     -0.467798    35A     -0.435676    36A     -0.432131
      37A     -0.419061    38A     -0.404152    39A     -0.282945

  @DF-RHF Final Energy:  -539.54111255733687

   => Energetics <=

    Nuclear Repulsion Energy =            591.9756259474761464
    One-Electron Energy =               -1909.2915721509775722
    Two-Electron Energy =                 777.7748336461645522
    Total Energy =                       -539.5411125573368736
  Basis Set: (AUG-CC-PVTZ AUX)
    Blend: AUG-CC-PVTZ-RI
    Molecular point group: c1

    Geometry (in Angstrom), charge = 0, multiplicity = 1:

       Center              X                  Y                   Z               Mass
    ------------   -----------------  -----------------  -----------------  -----------------
         O            0.202159663823     2.653246589356    -0.005888882655    15.994914619570
         C            0.234694663823     1.428760589356     0.006893117345    12.000000000000
         N            1.491711663823     0.746843589356    -0.002530882655    14.003074004430
         C            1.695370663823    -0.610615410644     0.004487117345    12.000000000000
         N            0.729828663823    -1.496982410644     0.013803117345    14.003074004430
         C           -0.498981336177    -0.900533410644    -0.001020882655    12.000000000000
         C           -0.874987536177     0.648039889356     0.020457517345    12.000000000000
         N           -2.192108336177     0.643587589356     0.015924117345    14.003074004430
         C           -2.682369336177    -0.586152410644     0.003022117345    12.000000000000
         N           -1.704475336177    -1.552085410644    -0.004789882655    14.003074004430
         N            3.015495663823    -1.026121410644    -0.077219882655    14.003074004430
         H            2.289613663823     1.370204589356    -0.101987882655     1.007825032230
         H           -3.735106336177    -0.837613410644    -0.000885882655     1.007825032230
         H           -1.827073336177    -2.557963410644    -0.018512882655     1.007825032230
         H            3.088627663823    -2.027797410644     0.070547117345     1.007825032230
         H            3.667970663823    -0.508711410644     0.502982117345     1.007825032230

  Basis Set: AUG-CC-PVTZ
    Blend: AUG-CC-PVTZ
  Basis Set: (AUG-CC-PVTZ AUX)
    Blend: AUG-CC-PVTZ-JKFIT
	 Reference Energy          =    -539.5411125573368736 [Eh]
	 Singles Energy            =      -0.0000000000000000 [Eh]
	 Same-Spin Energy          =      -0.5768174576127933 [Eh]
	 Opposite-Spin Energy      =      -1.6672035080328480 [Eh]
	 Correlation Energy        =      -2.2440209656456416 [Eh]
	 Total Energy              =    -541.7851335229825054 [Eh]

	 ================> DF-SCS-MP2 Energies <==================
	-----------------------------------------------------------
	 SCS Same-Spin Scale       =       0.3333333333333333 [-]
	 SCS Opposite-Spin Scale   =       1.2000000000000000 [-]
	 SCS Same-Spin Energy      =      -0.1922724858709311 [Eh]
	 SCS Opposite-Spin Energy  =      -2.0006442096394177 [Eh]
	 SCS Correlation Energy    =      -2.1929166955103487 [Eh]
	 SCS Total Energy          =    -541.7340292528472219 [Eh]
	-----------------------------------------------------------

  Dipole Moment: [D]
     X:     2.4886      Y:    -5.9783      Z:     0.8468     Total:     6.5307

*** Psi4 exiting successfully. Buy a developer a beer!
