                               Psi4 1.3.2 release

  ==> Input File <==

--------------------------------------------------------------------------
#psi4
#
memory 32 gb

molecule  {
0 1
  O        0.1763910     2.6970700    -0.0085580
  C        0.2089260     1.4725840     0.0042240
  N        1.4659430     0.7906670    -0.0052000
  C        1.6696020    -0.5667920     0.0018180
  N        0.7040600    -1.4531590     0.0111340
  C       -0.5247500    -0.8567100    -0.0036900
  C       -0.8535700     0.4975280     0.0150930
  N       -2.2178770     0.6874110     0.0132550
  C       -2.7081380    -0.5423290     0.0003530
  N       -1.7135346    -1.4910493    -0.0072709
  N        2.9897270    -0.9822980    -0.0798890
  H        2.2638450     1.4140280    -0.1046570
  H       -3.7608750    -0.7937900    -0.0035550
  H       -1.8528420    -2.5141400    -0.0211820
  H        3.0628590    -1.9839740     0.0678780
  H        3.6422020    -0.4648880     0.5003130
units angstrom
no_reorient  #important for SAPT in psi4, default
symmetry c1  #important for SAPT in psi4, default
}

set PROPERTIES_ORIGIN ["COM"]
properties('MP2/aug-cc-pvtz', properties = ['dipole'])
--------------------------------------------------------------------------

    Molecular point group: c1
  Charge       = 0
  Multiplicity = 1
  Basis Set: AUG-CC-PVTZ
    Blend: AUG-CC-PVTZ
  Basis Set: (AUG-CC-PVTZ AUX)
    Blend: AUG-CC-PVTZ-JKFIT

    Orbital Energies [Eh]
    ---------------------

    Doubly Occupied:

       1A    -20.523670     2A    -15.637698     3A    -15.631349
       4A    -15.612262     5A    -15.573057     6A    -15.565569
       7A    -11.398475     8A    -11.367210     9A    -11.325356
      10A    -11.312889    11A    -11.249831    12A     -1.393836
      13A     -1.364117    14A     -1.336360    15A     -1.220475
      16A     -1.218461    17A     -1.177484    18A     -1.031964
      19A     -0.908311    20A     -0.884952    21A     -0.840793
      22A     -0.799601    23A     -0.741442    24A     -0.731240
      25A     -0.699504    26A     -0.670058    27A     -0.657771
      28A     -0.636402    29A     -0.613926    30A     -0.601929
      31A     -0.598376    32A     -0.547643    33A     -0.498873
      34A     -0.462385    35A     -0.442786    36A     -0.432776
      37A     -0.432356    38A     -0.411066    39A     -0.303047

  @DF-RHF Final Energy:  -539.58688494374621

   => Energetics <=

    Nuclear Repulsion Energy =            594.2813477195513769
    One-Electron Energy =               -1914.0258702051849014
    Two-Electron Energy =                 780.1576375418873113
    Total Energy =                       -539.5868849437462131
  Basis Set: (AUG-CC-PVTZ AUX)
    Blend: AUG-CC-PVTZ-RI
    Molecular point group: c1

    Geometry (in Angstrom), charge = 0, multiplicity = 1:

       Center              X                  Y                   Z               Mass
    ------------   -----------------  -----------------  -----------------  -----------------
         O            0.196861944581     2.667089694673    -0.005692186608    15.994914619570
         C            0.229396944581     1.442603694673     0.007089813392    12.000000000000
         N            1.486413944581     0.760686694673    -0.002334186608    14.003074004430
         C            1.690072944581    -0.596772305327     0.004683813392    12.000000000000
         N            0.724530944581    -1.483139305327     0.013999813392    14.003074004430
         C           -0.504279055419    -0.886690305327    -0.000824186608    12.000000000000
         C           -0.833099055419     0.467547694673     0.017958813392    12.000000000000
         N           -2.197406055419     0.657430694673     0.016120813392    14.003074004430
         C           -2.687667055419    -0.572309305327     0.003218813392    12.000000000000
         N           -1.693063655419    -1.521029605327    -0.004405086608    14.003074004430
         N            3.010197944581    -1.012278305327    -0.077023186608    14.003074004430
         H            2.284315944581     1.384047694673    -0.101791186608     1.007825032230
         H           -3.740404055419    -0.823770305327    -0.000689186608     1.007825032230
         H           -1.832371055419    -2.544120305327    -0.018316186608     1.007825032230
         H            3.083329944581    -2.013954305327     0.070743813392     1.007825032230
         H            3.662672944581    -0.494868305327     0.503178813392     1.007825032230

  Basis Set: AUG-CC-PVTZ
    Blend: AUG-CC-PVTZ
  Basis Set: (AUG-CC-PVTZ AUX)
    Blend: AUG-CC-PVTZ-JKFIT
	 Reference Energy          =    -539.5868849437462131 [Eh]
	 Singles Energy            =      -0.0000000000000000 [Eh]
	 Same-Spin Energy          =      -0.5731631252416616 [Eh]
	 Opposite-Spin Energy      =      -1.6631033686474490 [Eh]
	 Correlation Energy        =      -2.2362664938891106 [Eh]
	 Total Energy              =    -541.8231514376353744 [Eh]

	 ================> DF-SCS-MP2 Energies <==================
	-----------------------------------------------------------
	 SCS Same-Spin Scale       =       0.3333333333333333 [-]
	 SCS Opposite-Spin Scale   =       1.2000000000000000 [-]
	 SCS Same-Spin Energy      =      -0.1910543750805538 [Eh]
	 SCS Opposite-Spin Energy  =      -1.9957240423769387 [Eh]
	 SCS Correlation Energy    =      -2.1867784174574925 [Eh]
	 SCS Total Energy          =    -541.7736633612037167 [Eh]
	-----------------------------------------------------------

  Dipole Moment: [D]
     X:     2.6250      Y:    -5.6834      Z:     0.8431     Total:     6.3168

*** Psi4 exiting successfully. Buy a developer a beer!
