                               Psi4 1.3.2 release

  ==> Input File <==

--------------------------------------------------------------------------
#psi4
#
memory 32 gb

molecule  {
0 1
  O        0.1763910     2.6970700    -0.0085580
  C        0.1450048     1.3381111     0.0196730
  N        1.4659430     0.7906670    -0.0052000
  C        1.6696020    -0.5667920     0.0018180
  N        0.7040600    -1.4531590     0.0111340
  C       -0.5247500    -0.8567100    -0.0036900
  C       -0.8535700     0.4975280     0.0150930
  N       -2.2178770     0.6874110     0.0132550
  C       -2.7081380    -0.5423290     0.0003530
  N       -1.7302440    -1.5082620    -0.0074590
  N        2.9897270    -0.9822980    -0.0798890
  H        2.2638450     1.4140280    -0.1046570
  H       -3.7608750    -0.7937900    -0.0035550
  H       -1.8528420    -2.5141400    -0.0211820
  H        3.0628590    -1.9839740     0.0678780
  H        3.6422020    -0.4648880     0.5003130
units angstrom
no_reorient  #important for SAPT in psi4, default
symmetry c1  #important for SAPT in psi4, default
}

set PROPERTIES_ORIGIN ["COM"]
properties('MP2/aug-cc-pvtz', properties = ['dipole'])
--------------------------------------------------------------------------

    Molecular point group: c1
  Charge       = 0
  Multiplicity = 1
  Basis Set: AUG-CC-PVTZ
    Blend: AUG-CC-PVTZ
  Basis Set: (AUG-CC-PVTZ AUX)
    Blend: AUG-CC-PVTZ-JKFIT

    Orbital Energies [Eh]
    ---------------------

    Doubly Occupied:

       1A    -20.488354     2A    -15.648618     3A    -15.639527
       4A    -15.617641     5A    -15.585234     6A    -15.575446
       7A    -11.404897     8A    -11.355589     9A    -11.349414
      10A    -11.329094    11A    -11.250760    12A     -1.392367
      13A     -1.354282    14A     -1.286895    15A     -1.229038
      16A     -1.202974    17A     -1.191257    18A     -1.064035
      19A     -0.932165    20A     -0.885847    21A     -0.857841
      22A     -0.804939    23A     -0.757263    24A     -0.739733
      25A     -0.704867    26A     -0.679849    27A     -0.666436
      28A     -0.645740    29A     -0.617575    30A     -0.603474
      31A     -0.551245    32A     -0.529348    33A     -0.508780
      34A     -0.469358    35A     -0.444996    36A     -0.426618
      37A     -0.406822    38A     -0.404333    39A     -0.314991

  @DF-RHF Final Energy:  -539.54335900905244

   => Energetics <=

    Nuclear Repulsion Energy =            594.9139831987964726
    One-Electron Energy =               -1915.0794094556245000
    Two-Electron Energy =                 780.6220672477757034
    Total Energy =                       -539.5433590090524376
  Basis Set: (AUG-CC-PVTZ AUX)
    Blend: AUG-CC-PVTZ-RI
    Molecular point group: c1

    Geometry (in Angstrom), charge = 0, multiplicity = 1:

       Center              X                  Y                   Z               Mass
    ------------   -----------------  -----------------  -----------------  -----------------
         O            0.203489162563     2.679368494798    -0.006902082244    15.994914619570
         C            0.172102962563     1.320409594798     0.021328917756    12.000000000000
         N            1.493041162563     0.772965494798    -0.003544082244    14.003074004430
         C            1.696700162563    -0.584493505202     0.003473917756    12.000000000000
         N            0.731158162563    -1.470860505202     0.012789917756    14.003074004430
         C           -0.497651837437    -0.874411505202    -0.002034082244    12.000000000000
         C           -0.826471837437     0.479826494798     0.016748917756    12.000000000000
         N           -2.190778837437     0.669709494798     0.014910917756    14.003074004430
         C           -2.681039837437    -0.560030505202     0.002008917756    12.000000000000
         N           -1.703145837437    -1.525963505202    -0.005803082244    14.003074004430
         N            3.016825162563    -0.999999505202    -0.078233082244    14.003074004430
         H            2.290943162563     1.396326494798    -0.103001082244     1.007825032230
         H           -3.733776837437    -0.811491505202    -0.001899082244     1.007825032230
         H           -1.825743837437    -2.531841505202    -0.019526082244     1.007825032230
         H            3.089957162563    -2.001675505202     0.069533917756     1.007825032230
         H            3.669300162563    -0.482589505202     0.501968917756     1.007825032230

  Basis Set: AUG-CC-PVTZ
    Blend: AUG-CC-PVTZ
  Basis Set: (AUG-CC-PVTZ AUX)
    Blend: AUG-CC-PVTZ-JKFIT
	 Reference Energy          =    -539.5433590090524376 [Eh]
	 Singles Energy            =      -0.0000000000000000 [Eh]
	 Same-Spin Energy          =      -0.5756474103823663 [Eh]
	 Opposite-Spin Energy      =      -1.6683294204710721 [Eh]
	 Correlation Energy        =      -2.2439768308534385 [Eh]
	 Total Energy              =    -541.7873358399058361 [Eh]

	 ================> DF-SCS-MP2 Energies <==================
	-----------------------------------------------------------
	 SCS Same-Spin Scale       =       0.3333333333333333 [-]
	 SCS Opposite-Spin Scale   =       1.2000000000000000 [-]
	 SCS Same-Spin Energy      =      -0.1918824701274554 [Eh]
	 SCS Opposite-Spin Energy  =      -2.0019953045652863 [Eh]
	 SCS Correlation Energy    =      -2.1938777746927416 [Eh]
	 SCS Total Energy          =    -541.7372367837451748 [Eh]
	-----------------------------------------------------------

  Dipole Moment: [D]
     X:     2.4087      Y:    -6.9421      Z:     0.8554     Total:     7.3977

*** Psi4 exiting successfully. Buy a developer a beer!
