                               Psi4 1.3.2 release

  ==> Input File <==

--------------------------------------------------------------------------
#psi4
#
memory 32 gb

molecule  {
0 1
  O        0.1763910     2.6970700    -0.0085580
  C        0.2089260     1.4725840     0.0042240
  N        1.4659430     0.7906670    -0.0052000
  C        1.6696020    -0.5667920     0.0018180
  N        0.7040600    -1.4531590     0.0111340
  C       -0.5247500    -0.8567100    -0.0036900
  C       -0.8535700     0.4975280     0.0150930
  N       -2.2178770     0.6874110     0.0132550
  C       -2.7081380    -0.5423290     0.0003530
  N       -1.7302440    -1.5082620    -0.0074590
  N        2.9897270    -0.9822980    -0.0798890
  H        2.2638450     1.4140280    -0.1046570
  H       -3.7608750    -0.7937900    -0.0035550
  H       -1.8528420    -2.5141400    -0.0211820
  H        3.0372336    -1.9887586     0.0438780
  H        3.6422020    -0.4648880     0.5003130
units angstrom
no_reorient  #important for SAPT in psi4, default
symmetry c1  #important for SAPT in psi4, default
}

set PROPERTIES_ORIGIN ["COM"]
properties('MP2/aug-cc-pvtz', properties = ['dipole'])
--------------------------------------------------------------------------

    Molecular point group: c1
  Charge       = 0
  Multiplicity = 1
  Basis Set: AUG-CC-PVTZ
    Blend: AUG-CC-PVTZ
  Basis Set: (AUG-CC-PVTZ AUX)
    Blend: AUG-CC-PVTZ-JKFIT

    Orbital Energies [Eh]
    ---------------------

    Doubly Occupied:

       1A    -20.524374     2A    -15.636266     3A    -15.631798
       4A    -15.612263     5A    -15.573669     6A    -15.565325
       7A    -11.398279     8A    -11.367943     9A    -11.327650
      10A    -11.314313    11A    -11.251462    12A     -1.393538
      13A     -1.360984    14A     -1.335948    15A     -1.220760
      16A     -1.218283    17A     -1.178276    18A     -1.031209
      19A     -0.906927    20A     -0.884516    21A     -0.845020
      22A     -0.799879    23A     -0.740332    24A     -0.729047
      25A     -0.702388    26A     -0.673577    27A     -0.656260
      28A     -0.633671    29A     -0.614676    30A     -0.601430
      31A     -0.596640    32A     -0.547795    33A     -0.499920
      34A     -0.462219    35A     -0.443245    36A     -0.433123
      37A     -0.432598    38A     -0.412263    39A     -0.302918

  @DF-RHF Final Energy:  -539.58743145035442

   => Energetics <=

    Nuclear Repulsion Energy =            593.7030537187445134
    One-Electron Energy =               -1912.8593970075426114
    Two-Electron Energy =                 779.5689118384436824
    Total Energy =                       -539.5874314503544156
  Basis Set: (AUG-CC-PVTZ AUX)
    Blend: AUG-CC-PVTZ-RI
    Molecular point group: c1

    Geometry (in Angstrom), charge = 0, multiplicity = 1:

       Center              X                  Y                   Z               Mass
    ------------   -----------------  -----------------  -----------------  -----------------
         O            0.198581970397     2.668717326002    -0.005514617036    15.994914619570
         C            0.231116970397     1.444231326002     0.007267382964    12.000000000000
         N            1.488133970397     0.762314326002    -0.002156617036    14.003074004430
         C            1.691792970397    -0.595144673998     0.004861382964    12.000000000000
         N            0.726250970397    -1.481511673998     0.014177382964    14.003074004430
         C           -0.502559029603    -0.885062673998    -0.000646617036    12.000000000000
         C           -0.831379029603     0.469175326002     0.018136382964    12.000000000000
         N           -2.195686029603     0.659058326002     0.016298382964    14.003074004430
         C           -2.685947029603    -0.570681673998     0.003396382964    12.000000000000
         N           -1.708053029603    -1.536614673998    -0.004415617036    14.003074004430
         N            3.011917970397    -1.010650673998    -0.076845617036    14.003074004430
         H            2.286035970397     1.385675326002    -0.101613617036     1.007825032230
         H           -3.738684029603    -0.822142673998    -0.000511617036     1.007825032230
         H           -1.830651029603    -2.542492673998    -0.018138617036     1.007825032230
         H            3.059424570397    -2.017111273998     0.046921382964     1.007825032230
         H            3.664392970397    -0.493240673998     0.503356382964     1.007825032230

  Basis Set: AUG-CC-PVTZ
    Blend: AUG-CC-PVTZ
  Basis Set: (AUG-CC-PVTZ AUX)
    Blend: AUG-CC-PVTZ-JKFIT
	 Reference Energy          =    -539.5874314503544156 [Eh]
	 Singles Energy            =      -0.0000000000000000 [Eh]
	 Same-Spin Energy          =      -0.5730647121879237 [Eh]
	 Opposite-Spin Energy      =      -1.6632251945315448 [Eh]
	 Correlation Energy        =      -2.2362899067194686 [Eh]
	 Total Energy              =    -541.8237213570738504 [Eh]

	 ================> DF-SCS-MP2 Energies <==================
	-----------------------------------------------------------
	 SCS Same-Spin Scale       =       0.3333333333333333 [-]
	 SCS Opposite-Spin Scale   =       1.2000000000000000 [-]
	 SCS Same-Spin Energy      =      -0.1910215707293079 [Eh]
	 SCS Opposite-Spin Energy  =      -1.9958702334378537 [Eh]
	 SCS Correlation Energy    =      -2.1868918041671614 [Eh]
	 SCS Total Energy          =    -541.7743232545216188 [Eh]
	-----------------------------------------------------------

  Dipole Moment: [D]
     X:     2.6594      Y:    -5.6376      Z:     0.8180     Total:     6.2868

*** Psi4 exiting successfully. Buy a developer a beer!
