                               Psi4 1.3.2 release

  ==> Input File <==

--------------------------------------------------------------------------
#psi4
#
memory 32 gb

molecule  {
0 1
  O        0.1763910     2.6970700    -0.0085580
  C        0.2089260     1.4725840     0.0042240
  N        1.4659430     0.7906670    -0.0052000
  C        1.6696020    -0.5667920     0.0018180
  N        0.7040600    -1.4531590     0.0111340
  C       -0.5247500    -0.8567100    -0.0036900
  C       -0.8808892     0.3559656     0.0136852
  N       -2.2178770     0.6874110     0.0132550
  C       -2.7081380    -0.5423290     0.0003530
  N       -1.7302440    -1.5082620    -0.0074590
  N        2.9897270    -0.9822980    -0.0798890
  H        2.2638450     1.4140280    -0.1046570
  H       -3.7608750    -0.7937900    -0.0035550
  H       -1.8528420    -2.5141400    -0.0211820
  H        3.0628590    -1.9839740     0.0678780
  H        3.6422020    -0.4648880     0.5003130
units angstrom
no_reorient  #important for SAPT in psi4, default
symmetry c1  #important for SAPT in psi4, default
}

set PROPERTIES_ORIGIN ["COM"]
properties('MP2/aug-cc-pvtz', properties = ['dipole'])
--------------------------------------------------------------------------

    Molecular point group: c1
  Charge       = 0
  Multiplicity = 1
  Basis Set: AUG-CC-PVTZ
    Blend: AUG-CC-PVTZ
  Basis Set: (AUG-CC-PVTZ AUX)
    Blend: AUG-CC-PVTZ-JKFIT

    Orbital Energies [Eh]
    ---------------------

    Doubly Occupied:

       1A    -20.539098     2A    -15.630212     3A    -15.626548
       4A    -15.610212     5A    -15.568552     6A    -15.563206
       7A    -11.395672     8A    -11.379097     9A    -11.315071
      10A    -11.301117    11A    -11.246816    12A     -1.397710
      13A     -1.370629    14A     -1.337062    15A     -1.219377
      16A     -1.216851    17A     -1.174356    18A     -1.040824
      19A     -0.898127    20A     -0.878423    21A     -0.850390
      22A     -0.798010    23A     -0.734628    24A     -0.725631
      25A     -0.704849    26A     -0.675522    27A     -0.657810
      28A     -0.633545    29A     -0.617561    30A     -0.600175
      31A     -0.579487    32A     -0.546084    33A     -0.499420
      34A     -0.461597    35A     -0.452237    36A     -0.436142
      37A     -0.433488    38A     -0.411122    39A     -0.315650

  @DF-RHF Final Energy:  -539.55978166624141

   => Energetics <=

    Nuclear Repulsion Energy =            594.8797068517832258
    One-Electron Energy =               -1915.1943658894776945
    Two-Electron Energy =                 780.7548773714531762
    Total Energy =                       -539.5597816662414061
  Basis Set: (AUG-CC-PVTZ AUX)
    Blend: AUG-CC-PVTZ-RI
    Molecular point group: c1

    Geometry (in Angstrom), charge = 0, multiplicity = 1:

       Center              X                  Y                   Z               Mass
    ------------   -----------------  -----------------  -----------------  -----------------
         O            0.200581345839     2.679931714476    -0.005562907200    15.994914619570
         C            0.233116345839     1.455445714476     0.007219092800    12.000000000000
         N            1.490133345839     0.773528714476    -0.002204907200    14.003074004430
         C            1.693792345839    -0.583930285524     0.004813092800    12.000000000000
         N            0.728250345839    -1.470297285524     0.014129092800    14.003074004430
         C           -0.500559654161    -0.873848285524    -0.000694907200    12.000000000000
         C           -0.856698854161     0.338827314476     0.016680292800    12.000000000000
         N           -2.193686654161     0.670272714476     0.016250092800    14.003074004430
         C           -2.683947654161    -0.559467285524     0.003348092800    12.000000000000
         N           -1.706053654161    -1.525400285524    -0.004463907200    14.003074004430
         N            3.013917345839    -0.999436285524    -0.076893907200    14.003074004430
         H            2.288035345839     1.396889714476    -0.101661907200     1.007825032230
         H           -3.736684654161    -0.810928285524    -0.000559907200     1.007825032230
         H           -1.828651654161    -2.531278285524    -0.018186907200     1.007825032230
         H            3.087049345839    -2.001112285524     0.070873092800     1.007825032230
         H            3.666392345839    -0.482026285524     0.503308092800     1.007825032230

  Basis Set: AUG-CC-PVTZ
    Blend: AUG-CC-PVTZ
  Basis Set: (AUG-CC-PVTZ AUX)
    Blend: AUG-CC-PVTZ-JKFIT
	 Reference Energy          =    -539.5597816662414061 [Eh]
	 Singles Energy            =      -0.0000000000000000 [Eh]
	 Same-Spin Energy          =      -0.5714803897944596 [Eh]
	 Opposite-Spin Energy      =      -1.6623149546346332 [Eh]
	 Correlation Energy        =      -2.2337953444290930 [Eh]
	 Total Energy              =    -541.7935770106704467 [Eh]

	 ================> DF-SCS-MP2 Energies <==================
	-----------------------------------------------------------
	 SCS Same-Spin Scale       =       0.3333333333333333 [-]
	 SCS Opposite-Spin Scale   =       1.2000000000000000 [-]
	 SCS Same-Spin Energy      =      -0.1904934632648199 [Eh]
	 SCS Opposite-Spin Energy  =      -1.9947779455615597 [Eh]
	 SCS Correlation Energy    =      -2.1852714088263796 [Eh]
	 SCS Total Energy          =    -541.7450530750677444 [Eh]
	-----------------------------------------------------------

  Dipole Moment: [D]
     X:     2.7992      Y:    -5.1921      Z:     0.8426     Total:     5.9585

*** Psi4 exiting successfully. Buy a developer a beer!
