                               Psi4 1.3.2 release

  ==> Input File <==

--------------------------------------------------------------------------
#psi4
#
memory 32 gb

molecule  {
0 1
  O        0.1763910     2.6970700    -0.0085580
  C        0.2089260     1.4725840     0.0042240
  N        1.4659430     0.7906670    -0.0052000
  C        1.6696020    -0.5667920     0.0018180
  N        0.6169318    -1.3475385     0.0198407
  C       -0.5247500    -0.8567100    -0.0036900
  C       -0.8535700     0.4975280     0.0150930
  N       -2.2178770     0.6874110     0.0132550
  C       -2.7081380    -0.5423290     0.0003530
  N       -1.7302440    -1.5082620    -0.0074590
  N        2.9897270    -0.9822980    -0.0798890
  H        2.2638450     1.4140280    -0.1046570
  H       -3.7608750    -0.7937900    -0.0035550
  H       -1.8528420    -2.5141400    -0.0211820
  H        3.0628590    -1.9839740     0.0678780
  H        3.6422020    -0.4648880     0.5003130
units angstrom
no_reorient  #important for SAPT in psi4, default
symmetry c1  #important for SAPT in psi4, default
}

set PROPERTIES_ORIGIN ["COM"]
properties('MP2/aug-cc-pvtz', properties = ['dipole'])
--------------------------------------------------------------------------

    Molecular point group: c1
  Charge       = 0
  Multiplicity = 1
  Basis Set: AUG-CC-PVTZ
    Blend: AUG-CC-PVTZ
  Basis Set: (AUG-CC-PVTZ AUX)
    Blend: AUG-CC-PVTZ-JKFIT

    Orbital Energies [Eh]
    ---------------------

    Doubly Occupied:

       1A    -20.515595     2A    -15.631470     3A    -15.628605
       4A    -15.622684     5A    -15.561789     6A    -15.559640
       7A    -11.405515     8A    -11.361409     9A    -11.316087
      10A    -11.310191    11A    -11.241778    12A     -1.396759
      13A     -1.360776    14A     -1.336343    15A     -1.245593
      16A     -1.220149    17A     -1.174855    18A     -1.028045
      19A     -0.915096    20A     -0.895463    21A     -0.840661
      22A     -0.805949    23A     -0.744182    24A     -0.736278
      25A     -0.704611    26A     -0.674033    27A     -0.663121
      28A     -0.648771    29A     -0.611055    30A     -0.597212
      31A     -0.594109    32A     -0.548078    33A     -0.491398
      34A     -0.477472    35A     -0.435174    36A     -0.433913
      37A     -0.420415    38A     -0.408950    39A     -0.289617

  @DF-RHF Final Energy:  -539.57173162831589

   => Energetics <=

    Nuclear Repulsion Energy =            597.1249219964405484
    One-Electron Energy =               -1919.6876307252869083
    Two-Electron Energy =                 782.9909771005303583
    Total Energy =                       -539.5717316283158880
  Basis Set: (AUG-CC-PVTZ AUX)
    Blend: AUG-CC-PVTZ-RI
    Molecular point group: c1

    Geometry (in Angstrom), charge = 0, multiplicity = 1:

       Center              X                  Y                   Z               Mass
    ------------   -----------------  -----------------  -----------------  -----------------
         O            0.206488235734     2.658893827059    -0.006481905590    15.994914619570
         C            0.239023235734     1.434407827059     0.006300094410    12.000000000000
         N            1.496040235734     0.752490827059    -0.003123905590    14.003074004430
         C            1.699699235734    -0.604968172941     0.003894094410    12.000000000000
         N            0.647029035734    -1.385714672941     0.021916794410    14.003074004430
         C           -0.494652764266    -0.894886172941    -0.001613905590    12.000000000000
         C           -0.823472764266     0.459351827059     0.017169094410    12.000000000000
         N           -2.187779764266     0.649234827059     0.015331094410    14.003074004430
         C           -2.678040764266    -0.580505172941     0.002429094410    12.000000000000
         N           -1.700146764266    -1.546438172941    -0.005382905590    14.003074004430
         N            3.019824235734    -1.020474172941    -0.077812905590    14.003074004430
         H            2.293942235734     1.375851827059    -0.102580905590     1.007825032230
         H           -3.730777764266    -0.831966172941    -0.001478905590     1.007825032230
         H           -1.822744764266    -2.552316172941    -0.019105905590     1.007825032230
         H            3.092956235734    -2.022150172941     0.069954094410     1.007825032230
         H            3.672299235734    -0.503064172941     0.502389094410     1.007825032230

  Basis Set: AUG-CC-PVTZ
    Blend: AUG-CC-PVTZ
  Basis Set: (AUG-CC-PVTZ AUX)
    Blend: AUG-CC-PVTZ-JKFIT
	 Reference Energy          =    -539.5717316283158880 [Eh]
	 Singles Energy            =      -0.0000000000000000 [Eh]
	 Same-Spin Energy          =      -0.5745303908985641 [Eh]
	 Opposite-Spin Energy      =      -1.6625202348244934 [Eh]
	 Correlation Energy        =      -2.2370506257230574 [Eh]
	 Total Energy              =    -541.8087822540389880 [Eh]

	 ================> DF-SCS-MP2 Energies <==================
	-----------------------------------------------------------
	 SCS Same-Spin Scale       =       0.3333333333333333 [-]
	 SCS Opposite-Spin Scale   =       1.2000000000000000 [-]
	 SCS Same-Spin Energy      =      -0.1915101302995214 [Eh]
	 SCS Opposite-Spin Energy  =      -1.9950242817893920 [Eh]
	 SCS Correlation Energy    =      -2.1865344120889132 [Eh]
	 SCS Total Energy          =    -541.7582660404048056 [Eh]
	-----------------------------------------------------------

  Dipole Moment: [D]
     X:     3.1024      Y:    -6.0634      Z:     0.8348     Total:     6.8620

*** Psi4 exiting successfully. Buy a developer a beer!
