                               Psi4 1.3.2 release

  ==> Input File <==

--------------------------------------------------------------------------
#psi4
#
memory 32 gb

molecule  {
0 1
  O        0.1763910     2.6970700    -0.0085580
  C        0.2089260     1.4725840     0.0042240
  N        1.4659430     0.7906670    -0.0052000
  C        1.6696020    -0.5667920     0.0018180
  N        0.7040600    -1.4531590     0.0111340
  C       -0.5247500    -0.8567100    -0.0036900
  C       -0.8535700     0.4975280     0.0150930
  N       -2.2178770     0.6874110     0.0132550
  C       -2.7081380    -0.5423290     0.0003530
  N       -1.6652440    -1.4376986    -0.0066927
  N        2.9897270    -0.9822980    -0.0798890
  H        2.2638450     1.4140280    -0.1046570
  H       -3.7608750    -0.7937900    -0.0035550
  H       -1.8528420    -2.5141400    -0.0211820
  H        3.0628590    -1.9839740     0.0678780
  H        3.6422020    -0.4648880     0.5003130
units angstrom
no_reorient  #important for SAPT in psi4, default
symmetry c1  #important for SAPT in psi4, default
}

set PROPERTIES_ORIGIN ["COM"]
properties('MP2/aug-cc-pvtz', properties = ['dipole'])
--------------------------------------------------------------------------

    Molecular point group: c1
  Charge       = 0
  Multiplicity = 1
  Basis Set: AUG-CC-PVTZ
    Blend: AUG-CC-PVTZ
  Basis Set: (AUG-CC-PVTZ AUX)
    Blend: AUG-CC-PVTZ-JKFIT

    Orbital Energies [Eh]
    ---------------------

    Doubly Occupied:

       1A    -20.521468     2A    -15.641913     3A    -15.629456
       4A    -15.612019     5A    -15.571545     6A    -15.566645
       7A    -11.398283     8A    -11.364818     9A    -11.318402
      10A    -11.308961    11A    -11.245051    12A     -1.397899
      13A     -1.373710    14A     -1.336972    15A     -1.219950
      16A     -1.218988    17A     -1.176450    18A     -1.034029
      19A     -0.912720    20A     -0.884588    21A     -0.829590
      22A     -0.800812    23A     -0.747044    24A     -0.732489
      25A     -0.696800    26A     -0.663799    27A     -0.658742
      28A     -0.644787    29A     -0.609563    30A     -0.604466
      31A     -0.600746    32A     -0.546807    33A     -0.495628
      34A     -0.462096    35A     -0.441690    36A     -0.432190
      37A     -0.431323    38A     -0.407632    39A     -0.303409

  @DF-RHF Final Energy:  -539.57325900246383

   => Energetics <=

    Nuclear Repulsion Energy =            596.2419539944751250
    One-Electron Energy =               -1917.9434683818749363
    Two-Electron Energy =                 782.1282553849359829
    Total Energy =                       -539.5732590024638284
  Basis Set: (AUG-CC-PVTZ AUX)
    Blend: AUG-CC-PVTZ-RI
    Molecular point group: c1

    Geometry (in Angstrom), charge = 0, multiplicity = 1:

       Center              X                  Y                   Z               Mass
    ------------   -----------------  -----------------  -----------------  -----------------
         O            0.192385152210     2.662143804443    -0.005745788786    15.994914619570
         C            0.224920152210     1.437657804443     0.007036211214    12.000000000000
         N            1.481937152210     0.755740804443    -0.002387788786    14.003074004430
         C            1.685596152210    -0.601718195557     0.004630211214    12.000000000000
         N            0.720054152210    -1.488085195557     0.013946211214    14.003074004430
         C           -0.508755847790    -0.891636195557    -0.000877788786    12.000000000000
         C           -0.837575847790     0.462601804443     0.017905211214    12.000000000000
         N           -2.201882847790     0.652484804443     0.016067211214    14.003074004430
         C           -2.692143847790    -0.577255195557     0.003165211214    12.000000000000
         N           -1.649249847790    -1.472624795557    -0.003880488786    14.003074004430
         N            3.005721152210    -1.017224195557    -0.077076788786    14.003074004430
         H            2.279839152210     1.379101804443    -0.101844788786     1.007825032230
         H           -3.744880847790    -0.828716195557    -0.000742788786     1.007825032230
         H           -1.836847847790    -2.549066195557    -0.018369788786     1.007825032230
         H            3.078853152210    -2.018900195557     0.070690211214     1.007825032230
         H            3.658196152210    -0.499814195557     0.503125211214     1.007825032230

  Basis Set: AUG-CC-PVTZ
    Blend: AUG-CC-PVTZ
  Basis Set: (AUG-CC-PVTZ AUX)
    Blend: AUG-CC-PVTZ-JKFIT
	 Reference Energy          =    -539.5732590024638284 [Eh]
	 Singles Energy            =      -0.0000000000000000 [Eh]
	 Same-Spin Energy          =      -0.5737307780795164 [Eh]
	 Opposite-Spin Energy      =      -1.6633237050413601 [Eh]
	 Correlation Energy        =      -2.2370544831208763 [Eh]
	 Total Energy              =    -541.8103134855847429 [Eh]

	 ================> DF-SCS-MP2 Energies <==================
	-----------------------------------------------------------
	 SCS Same-Spin Scale       =       0.3333333333333333 [-]
	 SCS Opposite-Spin Scale   =       1.2000000000000000 [-]
	 SCS Same-Spin Energy      =      -0.1912435926931721 [Eh]
	 SCS Opposite-Spin Energy  =      -1.9959884460496320 [Eh]
	 SCS Correlation Energy    =      -2.1872320387428044 [Eh]
	 SCS Total Energy          =    -541.7604910412065919 [Eh]
	-----------------------------------------------------------

  Dipole Moment: [D]
     X:     2.5158      Y:    -5.8161      Z:     0.8403     Total:     6.3924

*** Psi4 exiting successfully. Buy a developer a beer!
