                               Psi4 1.4a3.dev225

  ==> Input File <==

--------------------------------------------------------------------------
#psi4
#
memory 32 gb

molecule  {
0 1
  O        0.1763800     2.6970850    -0.0086780
  C        0.2088860     1.4725900     0.0042210
  N        1.4659360     0.7906750    -0.0050880
  C        1.6696170    -0.5667500     0.0018210
  N        0.7040680    -1.4531450     0.0111020
  C       -0.5247290    -0.8567090    -0.0037110
  C       -0.8535850     0.4975420     0.0152200
  N       -2.2178950     0.6873840     0.0133320
  C       -2.7081200    -0.5423560     0.0003580
  N       -1.7302140    -1.5082770    -0.0075250
  N        3.0087689    -0.9883140    -0.0810535
  H        2.2637990     1.4140370    -0.1048620
  H       -3.7608500    -0.7938460    -0.0035590
  H       -1.8527810    -2.5141570    -0.0214260
  H        3.0628080    -1.9839860     0.0679760
  H        3.6422460    -0.4648460     0.5002060
units angstrom
no_reorient  #important for SAPT in psi4, default
symmetry c1  #important for SAPT in psi4, default
}

set PROPERTIES_ORIGIN ["COM"]
properties('MP2/aug-cc-pvtz', properties = ['dipole'])
--------------------------------------------------------------------------

    Molecular point group: c1
  Charge       = 0
  Multiplicity = 1
  Basis Set: AUG-CC-PVTZ
    Blend: AUG-CC-PVTZ
  Basis Set: (AUG-CC-PVTZ AUX)
    Blend: AUG-CC-PVTZ-JKFIT

    Orbital Energies [Eh]
    ---------------------

    Doubly Occupied:

       1A    -20.525060     2A    -15.637044     3A    -15.633124
       4A    -15.610972     5A    -15.575356     6A    -15.566041
       7A    -11.400099     8A    -11.368768     9A    -11.328405
      10A    -11.315180    11A    -11.252588    12A     -1.393793
      13A     -1.361630    14A     -1.334223    15A     -1.219826
      16A     -1.218221    17A     -1.179041    18A     -1.032518
      19A     -0.907394    20A     -0.885147    21A     -0.845765
      22A     -0.799141    23A     -0.741179    24A     -0.726210
      25A     -0.703211    26A     -0.674622    27A     -0.656496
      28A     -0.633072    29A     -0.615432    30A     -0.602053
      31A     -0.596691    32A     -0.547258    33A     -0.500642
      34A     -0.463118    35A     -0.443839    36A     -0.433922
      37A     -0.433207    38A     -0.412949    39A     -0.304127

  @DF-RHF Final Energy:  -539.58697617742052

   => Energetics <=

    Nuclear Repulsion Energy =            593.1453391245875082
    One-Electron Energy =               -1911.7099067534754795
    Two-Electron Energy =                 778.9775914514674469
    Total Energy =                       -539.5869761774205244
  Basis Set: (AUG-CC-PVTZ AUX)
    Blend: AUG-CC-PVTZ-RI
    Molecular point group: c1

    Geometry (in Angstrom), charge = 0, multiplicity = 1:

       Center              X                  Y                   Z               Mass
    ------------   -----------------  -----------------  -----------------  -----------------
         O            0.196634528481     2.669255749811    -0.005688258397    15.994914619570
         C            0.229140528481     1.444760749811     0.007210741603    12.000000000000
         N            1.486190528481     0.762845749811    -0.002098258397    14.003074004430
         C            1.689871528481    -0.594579250189     0.004810741603    12.000000000000
         N            0.724322528481    -1.480974250189     0.014091741603    14.003074004430
         C           -0.504474471519    -0.884538250189    -0.000721258397    12.000000000000
         C           -0.833330471519     0.469712749811     0.018209741603    12.000000000000
         N           -2.197640471519     0.659554749811     0.016321741603    14.003074004430
         C           -2.687865471519    -0.570185250189     0.003347741603    12.000000000000
         N           -1.709959471519    -1.536106250189    -0.004535258397    14.003074004430
         N            3.029023428481    -1.016143250189    -0.078063758397    14.003074004430
         H            2.284053528481     1.386207749811    -0.101872258397     1.007825032230
         H           -3.740595471519    -0.821675250189    -0.000569258397     1.007825032230
         H           -1.832526471519    -2.541986250189    -0.018436258397     1.007825032230
         H            3.083062528481    -2.011815250189     0.070965741603     1.007825032230
         H            3.662500528481    -0.492675250189     0.503195741603     1.007825032230

  Basis Set: AUG-CC-PVTZ
    Blend: AUG-CC-PVTZ
  Basis Set: (AUG-CC-PVTZ AUX)
    Blend: AUG-CC-PVTZ-JKFIT
	 Reference Energy          =    -539.5869761774205244 [Eh]
	 Singles Energy            =      -0.0000000000000000 [Eh]
	 Same-Spin Energy          =      -0.5729694208530659 [Eh]
	 Opposite-Spin Energy      =      -1.6633280293045871 [Eh]
	 Correlation Energy        =      -2.2362974501576529 [Eh]
	 Total Energy              =    -541.8232736275781463 [Eh]

	 ================> DF-SCS-MP2 Energies <==================
	-----------------------------------------------------------
	 SCS Same-Spin Scale       =       0.3333333333333333 [-]
	 SCS Opposite-Spin Scale   =       1.2000000000000000 [-]
	 SCS Same-Spin Energy      =      -0.1909898069510220 [Eh]
	 SCS Opposite-Spin Energy  =      -1.9959936351655045 [Eh]
	 SCS Correlation Energy    =      -2.1869834421165266 [Eh]
	 SCS Total Energy          =    -541.7739596195370950 [Eh]
	-----------------------------------------------------------

  Dipole Moment: [D]
     X:     2.5214      Y:    -5.5966      Z:     0.8531     Total:     6.1974

*** Psi4 exiting successfully. Buy a developer a beer!
