                               Psi4 1.4a3.dev225

  ==> Input File <==

--------------------------------------------------------------------------
#psi4
#
memory 32 gb

molecule  {
0 1
  O        0.1763800     2.6970850    -0.0086780
  C        0.2088860     1.4725900     0.0042210
  N        1.4483565     0.8002114    -0.0049578
  C        1.6696170    -0.5667500     0.0018210
  N        0.7040680    -1.4531450     0.0111020
  C       -0.5247290    -0.8567090    -0.0037110
  C       -0.8535850     0.4975420     0.0152200
  N       -2.2178950     0.6873840     0.0133320
  C       -2.7081200    -0.5423560     0.0003580
  N       -1.7302140    -1.5082770    -0.0075250
  N        2.9897250    -0.9823190    -0.0798750
  H        2.2637990     1.4140370    -0.1048620
  H       -3.7608500    -0.7938460    -0.0035590
  H       -1.8527810    -2.5141570    -0.0214260
  H        3.0628080    -1.9839860     0.0679760
  H        3.6422460    -0.4648460     0.5002060
units angstrom
no_reorient  #important for SAPT in psi4, default
symmetry c1  #important for SAPT in psi4, default
}

set PROPERTIES_ORIGIN ["COM"]
properties('MP2/aug-cc-pvtz', properties = ['dipole'])
--------------------------------------------------------------------------

    Molecular point group: c1
  Charge       = 0
  Multiplicity = 1
  Basis Set: AUG-CC-PVTZ
    Blend: AUG-CC-PVTZ
  Basis Set: (AUG-CC-PVTZ AUX)
    Blend: AUG-CC-PVTZ-JKFIT

    Orbital Energies [Eh]
    ---------------------

    Doubly Occupied:

       1A    -20.521487     2A    -15.636141     3A    -15.633010
       4A    -15.614260     5A    -15.574802     6A    -15.565021
       7A    -11.400262     8A    -11.365367     9A    -11.326996
      10A    -11.314033    11A    -11.251156    12A     -1.393711
      13A     -1.360439    14A     -1.334595    15A     -1.222992
      16A     -1.218219    17A     -1.177987    18A     -1.031359
      19A     -0.907398    20A     -0.885598    21A     -0.844727
      22A     -0.799150    23A     -0.738744    24A     -0.730673
      25A     -0.701528    26A     -0.673341    27A     -0.656783
      28A     -0.634668    29A     -0.613661    30A     -0.600601
      31A     -0.596516    32A     -0.548737    33A     -0.499662
      34A     -0.463105    35A     -0.442391    36A     -0.432500
      37A     -0.431345    38A     -0.412008    39A     -0.302960

  @DF-RHF Final Energy:  -539.58696580286664

   => Energetics <=

    Nuclear Repulsion Energy =            593.8410524284936400
    One-Electron Energy =               -1913.1401671022808841
    Two-Electron Energy =                 779.7121488709206005
    Total Energy =                       -539.5869658028666436
  Basis Set: (AUG-CC-PVTZ AUX)
    Blend: AUG-CC-PVTZ-RI
    Molecular point group: c1

    Geometry (in Angstrom), charge = 0, multiplicity = 1:

       Center              X                  Y                   Z               Mass
    ------------   -----------------  -----------------  -----------------  -----------------
         O            0.200029710105     2.667815907418    -0.005809581764    15.994914619570
         C            0.232535710105     1.443320907418     0.007089418236    12.000000000000
         N            1.472006210105     0.770942307418    -0.002089381764    14.003074004430
         C            1.693266710105    -0.596019092582     0.004689418236    12.000000000000
         N            0.727717710105    -1.482414092582     0.013970418236    14.003074004430
         C           -0.501079289895    -0.885978092582    -0.000842581764    12.000000000000
         C           -0.829935289895     0.468272907418     0.018088418236    12.000000000000
         N           -2.194245289895     0.658114907418     0.016200418236    14.003074004430
         C           -2.684470289895    -0.571625092582     0.003226418236    12.000000000000
         N           -1.706564289895    -1.537546092582    -0.004656581764    14.003074004430
         N            3.013374710105    -1.011588092582    -0.077006581764    14.003074004430
         H            2.287448710105     1.384767907418    -0.101993581764     1.007825032230
         H           -3.737200289895    -0.823115092582    -0.000690581764     1.007825032230
         H           -1.829131289895    -2.543426092582    -0.018557581764     1.007825032230
         H            3.086457710105    -2.013255092582     0.070844418236     1.007825032230
         H            3.665895710105    -0.494115092582     0.503074418236     1.007825032230

  Basis Set: AUG-CC-PVTZ
    Blend: AUG-CC-PVTZ
  Basis Set: (AUG-CC-PVTZ AUX)
    Blend: AUG-CC-PVTZ-JKFIT
	 Reference Energy          =    -539.5869658028666436 [Eh]
	 Singles Energy            =      -0.0000000000000000 [Eh]
	 Same-Spin Energy          =      -0.5731272665109595 [Eh]
	 Opposite-Spin Energy      =      -1.6632828026116169 [Eh]
	 Correlation Energy        =      -2.2364100691225763 [Eh]
	 Total Energy              =    -541.8233758719892421 [Eh]

	 ================> DF-SCS-MP2 Energies <==================
	-----------------------------------------------------------
	 SCS Same-Spin Scale       =       0.3333333333333333 [-]
	 SCS Opposite-Spin Scale   =       1.2000000000000000 [-]
	 SCS Same-Spin Energy      =      -0.1910424221703198 [Eh]
	 SCS Opposite-Spin Energy  =      -1.9959393631339402 [Eh]
	 SCS Correlation Energy    =      -2.1869817853042601 [Eh]
	 SCS Total Energy          =    -541.7739475881709268 [Eh]
	-----------------------------------------------------------

  Dipole Moment: [D]
     X:     2.7361      Y:    -5.7280      Z:     0.8447     Total:     6.4039

*** Psi4 exiting successfully. Buy a developer a beer!
