                               Psi4 1.3.2 release

  ==> Input File <==

--------------------------------------------------------------------------
#psi4
#
memory 32 gb

molecule  {
0 1
  O        0.1763910     2.6970700    -0.0085580
  C        0.2089260     1.4725840     0.0042240
  N        1.4659430     0.7906670    -0.0052000
  C        1.6696020    -0.5667920     0.0018180
  N        0.7040600    -1.4531590     0.0111340
  C       -0.5247500    -0.8567100    -0.0036900
  C       -0.8535700     0.4975280     0.0150930
  N       -2.0197866     0.6598410     0.0135219
  C       -2.7081380    -0.5423290     0.0003530
  N       -1.7302440    -1.5082620    -0.0074590
  N        2.9897270    -0.9822980    -0.0798890
  H        2.2638450     1.4140280    -0.1046570
  H       -3.7608750    -0.7937900    -0.0035550
  H       -1.8528420    -2.5141400    -0.0211820
  H        3.0628590    -1.9839740     0.0678780
  H        3.6422020    -0.4648880     0.5003130
units angstrom
no_reorient  #important for SAPT in psi4, default
symmetry c1  #important for SAPT in psi4, default
}

set PROPERTIES_ORIGIN ["COM"]
properties('MP2/aug-cc-pvtz', properties = ['dipole'])
--------------------------------------------------------------------------

    Molecular point group: c1
  Charge       = 0
  Multiplicity = 1
  Basis Set: AUG-CC-PVTZ
    Blend: AUG-CC-PVTZ
  Basis Set: (AUG-CC-PVTZ AUX)
    Blend: AUG-CC-PVTZ-JKFIT

    Orbital Energies [Eh]
    ---------------------

    Doubly Occupied:

       1A    -20.531263     2A    -15.643452     3A    -15.629947
       4A    -15.607759     5A    -15.567967     6A    -15.547423
       7A    -11.391184     8A    -11.368093     9A    -11.311878
      10A    -11.310194    11A    -11.238983    12A     -1.400942
      13A     -1.372878    14A     -1.337529    15A     -1.230416
      16A     -1.217297    17A     -1.197178    18A     -1.018197
      19A     -0.910376    20A     -0.887609    21A     -0.862011
      22A     -0.795603    23A     -0.738378    24A     -0.729292
      25A     -0.698217    26A     -0.674988    27A     -0.660539
      28A     -0.635214    29A     -0.625506    30A     -0.619716
      31A     -0.598950    32A     -0.550080    33A     -0.498988
      34A     -0.461927    35A     -0.449403    36A     -0.439597
      37A     -0.425044    38A     -0.410182    39A     -0.278249

  @DF-RHF Final Energy:  -539.53525557780210

   => Energetics <=

    Nuclear Repulsion Energy =            598.9895606124769074
    One-Electron Energy =               -1923.3047293775530306
    Two-Electron Energy =                 784.7799131872740190
    Total Energy =                       -539.5352555778021042
  Basis Set: (AUG-CC-PVTZ AUX)
    Blend: AUG-CC-PVTZ-RI
    Molecular point group: c1

    Geometry (in Angstrom), charge = 0, multiplicity = 1:

       Center              X                  Y                   Z               Mass
    ------------   -----------------  -----------------  -----------------  -----------------
         O            0.180046972783     2.671241286282    -0.005699491782    15.994914619570
         C            0.212581972783     1.446755286282     0.007082508218    12.000000000000
         N            1.469598972783     0.764838286282    -0.002341491782    14.003074004430
         C            1.673257972783    -0.592620713718     0.004676508218    12.000000000000
         N            0.707715972783    -1.478987713718     0.013992508218    14.003074004430
         C           -0.521094027217    -0.882538713718    -0.000831491782    12.000000000000
         C           -0.849914027217     0.471699286282     0.017951508218    12.000000000000
         N           -2.016130627217     0.634012286282     0.016380408218    14.003074004430
         C           -2.704482027217    -0.568157713718     0.003211508218    12.000000000000
         N           -1.726588027217    -1.534090713718    -0.004600491782    14.003074004430
         N            2.993382972783    -1.008126713718    -0.077030491782    14.003074004430
         H            2.267500972783     1.388199286282    -0.101798491782     1.007825032230
         H           -3.757219027217    -0.819618713718    -0.000696491782     1.007825032230
         H           -1.849186027217    -2.539968713718    -0.018323491782     1.007825032230
         H            3.066514972783    -2.009802713718     0.070736508218     1.007825032230
         H            3.645857972783    -0.490716713718     0.503171508218     1.007825032230

  Basis Set: AUG-CC-PVTZ
    Blend: AUG-CC-PVTZ
  Basis Set: (AUG-CC-PVTZ AUX)
    Blend: AUG-CC-PVTZ-JKFIT
	 Reference Energy          =    -539.5352555778021042 [Eh]
	 Singles Energy            =      -0.0000000000000000 [Eh]
	 Same-Spin Energy          =      -0.5772607984024506 [Eh]
	 Opposite-Spin Energy      =      -1.6670631408310861 [Eh]
	 Correlation Energy        =      -2.2443239392335368 [Eh]
	 Total Energy              =    -541.7795795170355859 [Eh]

	 ================> DF-SCS-MP2 Energies <==================
	-----------------------------------------------------------
	 SCS Same-Spin Scale       =       0.3333333333333333 [-]
	 SCS Opposite-Spin Scale   =       1.2000000000000000 [-]
	 SCS Same-Spin Energy      =      -0.1924202661341502 [Eh]
	 SCS Opposite-Spin Energy  =      -2.0004757689973034 [Eh]
	 SCS Correlation Energy    =      -2.1928960351314535 [Eh]
	 SCS Total Energy          =    -541.7281516129335159 [Eh]
	-----------------------------------------------------------

  Dipole Moment: [D]
     X:     2.1940      Y:    -5.4650      Z:     0.8482     Total:     5.9498

*** Psi4 exiting successfully. Buy a developer a beer!
