                               Psi4 1.4a3.dev225

  ==> Input File <==

--------------------------------------------------------------------------
#psi4
#
memory 32 gb

molecule  {
0 1
  O        0.1763800     2.6970850    -0.0086780
  C        0.2088860     1.4725900     0.0042210
  N        1.4219872     0.8145160    -0.0047625
  C        1.6696170    -0.5667500     0.0018210
  N        0.7040680    -1.4531450     0.0111020
  C       -0.5247290    -0.8567090    -0.0037110
  C       -0.8535850     0.4975420     0.0152200
  N       -2.2178950     0.6873840     0.0133320
  C       -2.7081200    -0.5423560     0.0003580
  N       -1.7302140    -1.5082770    -0.0075250
  N        2.9897250    -0.9823190    -0.0798750
  H        2.2637990     1.4140370    -0.1048620
  H       -3.7608500    -0.7938460    -0.0035590
  H       -1.8527810    -2.5141570    -0.0214260
  H        3.0628080    -1.9839860     0.0679760
  H        3.6422460    -0.4648460     0.5002060
units angstrom
no_reorient  #important for SAPT in psi4, default
symmetry c1  #important for SAPT in psi4, default
}

set PROPERTIES_ORIGIN ["COM"]
properties('MP2/aug-cc-pvtz', properties = ['dipole'])
--------------------------------------------------------------------------

    Molecular point group: c1
  Charge       = 0
  Multiplicity = 1
  Basis Set: AUG-CC-PVTZ
    Blend: AUG-CC-PVTZ
  Basis Set: (AUG-CC-PVTZ AUX)
    Blend: AUG-CC-PVTZ-JKFIT

    Orbital Energies [Eh]
    ---------------------

    Doubly Occupied:

       1A    -20.516936     2A    -15.636002     3A    -15.634485
       4A    -15.617028     5A    -15.576669     6A    -15.564591
       7A    -11.402746     8A    -11.361177     9A    -11.326082
      10A    -11.313610    11A    -11.250714    12A     -1.394223
      13A     -1.359725    14A     -1.332782    15A     -1.226338
      16A     -1.218224    17A     -1.177616    18A     -1.031265
      19A     -0.908302    20A     -0.886307    21A     -0.844354
      22A     -0.799516    23A     -0.736722    24A     -0.730343
      25A     -0.703023    26A     -0.673338    27A     -0.657492
      28A     -0.635768    29A     -0.612109    30A     -0.599193
      31A     -0.596151    32A     -0.550238    33A     -0.499411
      34A     -0.463840    35A     -0.441164    36A     -0.431217
      37A     -0.429204    38A     -0.411673    39A     -0.303025

  @DF-RHF Final Energy:  -539.58409167111483

   => Energetics <=

    Nuclear Repulsion Energy =            594.1371703180942632
    One-Electron Energy =               -1913.7373155896043500
    Two-Electron Energy =                 780.0160536003951393
    Total Energy =                       -539.5840916711148338
  Basis Set: (AUG-CC-PVTZ AUX)
    Blend: AUG-CC-PVTZ-RI
    Molecular point group: c1

    Geometry (in Angstrom), charge = 0, multiplicity = 1:

       Center              X                  Y                   Z               Mass
    ------------   -----------------  -----------------  -----------------  -----------------
         O            0.202474282777     2.666489795832    -0.005827687100    15.994914619570
         C            0.234980282777     1.441994795832     0.007071312900    12.000000000000
         N            1.448081482777     0.783920795832    -0.001912187100    14.003074004430
         C            1.695711282777    -0.597345204168     0.004671312900    12.000000000000
         N            0.730162282777    -1.483740204168     0.013952312900    14.003074004430
         C           -0.498634717223    -0.887304204168    -0.000860687100    12.000000000000
         C           -0.827490717223     0.466946795832     0.018070312900    12.000000000000
         N           -2.191800717223     0.656788795832     0.016182312900    14.003074004430
         C           -2.682025717223    -0.572951204168     0.003208312900    12.000000000000
         N           -1.704119717223    -1.538872204168    -0.004674687100    14.003074004430
         N            3.015819282777    -1.012914204168    -0.077024687100    14.003074004430
         H            2.289893282777     1.383441795832    -0.102011687100     1.007825032230
         H           -3.734755717223    -0.824441204168    -0.000708687100     1.007825032230
         H           -1.826686717223    -2.544752204168    -0.018575687100     1.007825032230
         H            3.088902282777    -2.014581204168     0.070826312900     1.007825032230
         H            3.668340282777    -0.495441204168     0.503056312900     1.007825032230

  Basis Set: AUG-CC-PVTZ
    Blend: AUG-CC-PVTZ
  Basis Set: (AUG-CC-PVTZ AUX)
    Blend: AUG-CC-PVTZ-JKFIT
	 Reference Energy          =    -539.5840916711148338 [Eh]
	 Singles Energy            =      -0.0000000000000000 [Eh]
	 Same-Spin Energy          =      -0.5733316196585552 [Eh]
	 Opposite-Spin Energy      =      -1.6635496589858412 [Eh]
	 Correlation Energy        =      -2.2368812786443963 [Eh]
	 Total Energy              =    -541.8209729497592662 [Eh]

	 ================> DF-SCS-MP2 Energies <==================
	-----------------------------------------------------------
	 SCS Same-Spin Scale       =       0.3333333333333333 [-]
	 SCS Opposite-Spin Scale   =       1.2000000000000000 [-]
	 SCS Same-Spin Energy      =      -0.1911105398861850 [Eh]
	 SCS Opposite-Spin Energy  =      -1.9962595907830094 [Eh]
	 SCS Correlation Energy    =      -2.1873701306691946 [Eh]
	 SCS Total Energy          =    -541.7714618017840849 [Eh]
	-----------------------------------------------------------

  Dipole Moment: [D]
     X:     2.8375      Y:    -5.8701      Z:     0.8466     Total:     6.5747

*** Psi4 exiting successfully. Buy a developer a beer!
