                               Psi4 1.3.2 release

  ==> Input File <==

--------------------------------------------------------------------------
#psi4
#
memory 32 gb

molecule  {
0 1
  O        0.1763910     2.6970700    -0.0085580
  C        0.2089260     1.4725840     0.0042240
  N        1.4659430     0.7906670    -0.0052000
  C        1.6696020    -0.5667920     0.0018180
  N        0.7040600    -1.4531590     0.0111340
  C       -0.5247500    -0.8567100    -0.0036900
  C       -0.8535700     0.4975280     0.0150930
  N       -2.2178770     0.6874110     0.0132550
  C       -2.7081380    -0.5423290     0.0003530
  N       -1.7302440    -1.5082620    -0.0074590
  N        3.1801689    -1.0422391    -0.0916761
  H        2.2638450     1.4140280    -0.1046570
  H       -3.7608750    -0.7937900    -0.0035550
  H       -1.8528420    -2.5141400    -0.0211820
  H        3.0628590    -1.9839740     0.0678780
  H        3.6422020    -0.4648880     0.5003130
units angstrom
no_reorient  #important for SAPT in psi4, default
symmetry c1  #important for SAPT in psi4, default
}

set PROPERTIES_ORIGIN ["COM"]
properties('MP2/aug-cc-pvtz', properties = ['dipole'])
--------------------------------------------------------------------------

    Molecular point group: c1
  Charge       = 0
  Multiplicity = 1
  Basis Set: AUG-CC-PVTZ
    Blend: AUG-CC-PVTZ
  Basis Set: (AUG-CC-PVTZ AUX)
    Blend: AUG-CC-PVTZ-JKFIT

    Orbital Energies [Eh]
    ---------------------

    Doubly Occupied:

       1A    -20.529586     2A    -15.642717     3A    -15.640954
       4A    -15.604255     5A    -15.587817     6A    -15.571174
       7A    -11.408798     8A    -11.373836     9A    -11.334174
      10A    -11.321277    11A    -11.260437    12A     -1.396629
      13A     -1.366705    14A     -1.325967    15A     -1.224661
      16A     -1.205692    17A     -1.184478    18A     -1.040576
      19A     -0.911241    20A     -0.885048    21A     -0.851234
      22A     -0.800255    23A     -0.748482    24A     -0.731573
      25A     -0.698679    26A     -0.680185    27A     -0.658063
      28A     -0.621337    29A     -0.607667    30A     -0.606106
      31A     -0.595113    32A     -0.542374    33A     -0.505393
      34A     -0.469195    35A     -0.446738    36A     -0.439289
      37A     -0.437397    38A     -0.417900    39A     -0.312755

  @DF-RHF Final Energy:  -539.55248370598611

   => Energetics <=

    Nuclear Repulsion Energy =            588.8713008585292528
    One-Electron Energy =               -1902.8760519459356146
    Two-Electron Energy =                 774.4522673814203699
    Total Energy =                       -539.5524837059861056
  Basis Set: (AUG-CC-PVTZ AUX)
    Blend: AUG-CC-PVTZ-RI
    Molecular point group: c1

    Geometry (in Angstrom), charge = 0, multiplicity = 1:

       Center              X                  Y                   Z               Mass
    ------------   -----------------  -----------------  -----------------  -----------------
         O            0.180756028923     2.674242257352    -0.004582022642    15.994914619570
         C            0.213291028923     1.449756257352     0.008199977358    12.000000000000
         N            1.470308028923     0.767839257352    -0.001224022642    14.003074004430
         C            1.673967028923    -0.589619742648     0.005793977358    12.000000000000
         N            0.708425028923    -1.475986742648     0.015109977358    14.003074004430
         C           -0.520384971077    -0.879537742648     0.000285977358    12.000000000000
         C           -0.849204971077     0.474700257352     0.019068977358    12.000000000000
         N           -2.213511971077     0.664583257352     0.017230977358    14.003074004430
         C           -2.703772971077    -0.565156742648     0.004328977358    12.000000000000
         N           -1.725878971077    -1.531089742648    -0.003483022642    14.003074004430
         N            3.184533928923    -1.065066842648    -0.087700122642    14.003074004430
         H            2.268210028923     1.391200257352    -0.100681022642     1.007825032230
         H           -3.756509971077    -0.816617742648     0.000420977358     1.007825032230
         H           -1.848476971077    -2.536967742648    -0.017206022642     1.007825032230
         H            3.067224028923    -2.006801742648     0.071853977358     1.007825032230
         H            3.646567028923    -0.487715742648     0.504288977358     1.007825032230

  Basis Set: AUG-CC-PVTZ
    Blend: AUG-CC-PVTZ
  Basis Set: (AUG-CC-PVTZ AUX)
    Blend: AUG-CC-PVTZ-JKFIT
	 Reference Energy          =    -539.5524837059861056 [Eh]
	 Singles Energy            =      -0.0000000000000000 [Eh]
	 Same-Spin Energy          =      -0.5732079434554129 [Eh]
	 Opposite-Spin Energy      =      -1.6663686841942336 [Eh]
	 Correlation Energy        =      -2.2395766276496465 [Eh]
	 Total Energy              =    -541.7920603336357317 [Eh]

	 ================> DF-SCS-MP2 Energies <==================
	-----------------------------------------------------------
	 SCS Same-Spin Scale       =       0.3333333333333333 [-]
	 SCS Opposite-Spin Scale   =       1.2000000000000000 [-]
	 SCS Same-Spin Energy      =      -0.1910693144851376 [Eh]
	 SCS Opposite-Spin Energy  =      -1.9996424210330801 [Eh]
	 SCS Correlation Energy    =      -2.1907117355182177 [Eh]
	 SCS Total Energy          =    -541.7431954415043265 [Eh]
	-----------------------------------------------------------

  Dipole Moment: [D]
     X:     1.3749      Y:    -5.3014      Z:     0.9389     Total:     5.5567

*** Psi4 exiting successfully. Buy a developer a beer!
