                               Psi4 1.3.2 release

  ==> Input File <==

--------------------------------------------------------------------------
#psi4
#
memory 32 gb

molecule  {
0 1
  O        0.1763910     2.6970700    -0.0085580
  C        0.2089260     1.4725840     0.0042240
  N        1.4659430     0.7906670    -0.0052000
  C        1.6696020    -0.5667920     0.0018180
  N        0.7355041    -1.4862620     0.0082043
  C       -0.5247500    -0.8567100    -0.0036900
  C       -0.8535700     0.4975280     0.0150930
  N       -2.2178770     0.6874110     0.0132550
  C       -2.7081380    -0.5423290     0.0003530
  N       -1.7302440    -1.5082620    -0.0074590
  N        2.9897270    -0.9822980    -0.0798890
  H        2.2638450     1.4140280    -0.1046570
  H       -3.7608750    -0.7937900    -0.0035550
  H       -1.8528420    -2.5141400    -0.0211820
  H        3.0628590    -1.9839740     0.0678780
  H        3.6422020    -0.4648880     0.5003130
units angstrom
no_reorient  #important for SAPT in psi4, default
symmetry c1  #important for SAPT in psi4, default
}

set PROPERTIES_ORIGIN ["COM"]
properties('MP2/aug-cc-pvtz', properties = ['dipole'])
--------------------------------------------------------------------------

    Molecular point group: c1
  Charge       = 0
  Multiplicity = 1
  Basis Set: AUG-CC-PVTZ
    Blend: AUG-CC-PVTZ
  Basis Set: (AUG-CC-PVTZ AUX)
    Blend: AUG-CC-PVTZ-JKFIT

    Orbital Energies [Eh]
    ---------------------

    Doubly Occupied:

       1A    -20.527082     2A    -15.638267     3A    -15.632416
       4A    -15.609077     5A    -15.577581     6A    -15.566952
       7A    -11.396797     8A    -11.369985     9A    -11.330573
      10A    -11.315556    11A    -11.254341    12A     -1.393794
      13A     -1.361096    14A     -1.335435    15A     -1.220812
      16A     -1.210595    17A     -1.178654    18A     -1.032586
      19A     -0.907240    20A     -0.880218    21A     -0.846252
      22A     -0.796394    23A     -0.740926    24A     -0.727083
      25A     -0.699986    26A     -0.672524    27A     -0.654784
      28A     -0.627530    29A     -0.615702    30A     -0.602823
      31A     -0.596998    32A     -0.547843    33A     -0.502345
      34A     -0.458581    35A     -0.445717    36A     -0.436074
      37A     -0.431931    38A     -0.412903    39A     -0.307016

  @DF-RHF Final Energy:  -539.58452380506787

   => Energetics <=

    Nuclear Repulsion Energy =            592.5824167802400098
    One-Electron Energy =               -1910.6089456230029100
    Two-Electron Energy =                 778.4420050376950257
    Total Energy =                       -539.5845238050678745
  Basis Set: (AUG-CC-PVTZ AUX)
    Blend: AUG-CC-PVTZ-RI
    Molecular point group: c1

    Geometry (in Angstrom), charge = 0, multiplicity = 1:

       Center              X                  Y                   Z               Mass
    ------------   -----------------  -----------------  -----------------  -----------------
         O            0.195495960465     2.671754224456    -0.005403150165    15.994914619570
         C            0.228030960465     1.447268224456     0.007378849835    12.000000000000
         N            1.485047960465     0.765351224456    -0.002045150165    14.003074004430
         C            1.688706960465    -0.592107775544     0.004972849835    12.000000000000
         N            0.754609060465    -1.511577775544     0.011359149835    14.003074004430
         C           -0.505645039535    -0.882025775544    -0.000535150165    12.000000000000
         C           -0.834465039535     0.472212224456     0.018247849835    12.000000000000
         N           -2.198772039535     0.662095224456     0.016409849835    14.003074004430
         C           -2.689033039535    -0.567644775544     0.003507849835    12.000000000000
         N           -1.711139039535    -1.533577775544    -0.004304150165    14.003074004430
         N            3.008831960465    -1.007613775544    -0.076734150165    14.003074004430
         H            2.282949960465     1.388712224456    -0.101502150165     1.007825032230
         H           -3.741770039535    -0.819105775544    -0.000400150165     1.007825032230
         H           -1.833737039535    -2.539455775544    -0.018027150165     1.007825032230
         H            3.081963960465    -2.009289775544     0.071032849835     1.007825032230
         H            3.661306960465    -0.490203775544     0.503467849835     1.007825032230

  Basis Set: AUG-CC-PVTZ
    Blend: AUG-CC-PVTZ
  Basis Set: (AUG-CC-PVTZ AUX)
    Blend: AUG-CC-PVTZ-JKFIT
	 Reference Energy          =    -539.5845238050678745 [Eh]
	 Singles Energy            =      -0.0000000000000000 [Eh]
	 Same-Spin Energy          =      -0.5728442326612029 [Eh]
	 Opposite-Spin Energy      =      -1.6640040251401191 [Eh]
	 Correlation Energy        =      -2.2368482578013218 [Eh]
	 Total Energy              =    -541.8213720628691590 [Eh]

	 ================> DF-SCS-MP2 Energies <==================
	-----------------------------------------------------------
	 SCS Same-Spin Scale       =       0.3333333333333333 [-]
	 SCS Opposite-Spin Scale   =       1.2000000000000000 [-]
	 SCS Same-Spin Energy      =      -0.1909480775537343 [Eh]
	 SCS Opposite-Spin Energy  =      -1.9968048301681429 [Eh]
	 SCS Correlation Energy    =      -2.1877529077218774 [Eh]
	 SCS Total Energy          =    -541.7722767127897896 [Eh]
	-----------------------------------------------------------

  Dipole Moment: [D]
     X:     2.5214      Y:    -5.5093      Z:     0.8474     Total:     6.1179

*** Psi4 exiting successfully. Buy a developer a beer!
