                               Psi4 1.3.2 release

  ==> Input File <==

--------------------------------------------------------------------------
#psi4
#
memory 32 gb

molecule  {
0 1
  O        0.1763910     2.6970700    -0.0085580
  C        0.2089260     1.4725840     0.0042240
  N        1.4659430     0.7906670    -0.0052000
  C        1.6696020    -0.5667920     0.0018180
  N        0.7040600    -1.4531590     0.0111340
  C       -0.5247500    -0.8567100    -0.0036900
  C       -0.8535700     0.4975280     0.0150930
  N       -2.2178770     0.6874110     0.0132550
  C       -2.7081380    -0.5423290     0.0003530
  N       -1.7472513    -1.5251805    -0.0076448
  N        2.9897270    -0.9822980    -0.0798890
  H        2.2638450     1.4140280    -0.1046570
  H       -3.7608750    -0.7937900    -0.0035550
  H       -1.8528420    -2.5141400    -0.0211820
  H        3.0628590    -1.9839740     0.0678780
  H        3.6422020    -0.4648880     0.5003130
units angstrom
no_reorient  #important for SAPT in psi4, default
symmetry c1  #important for SAPT in psi4, default
}

set PROPERTIES_ORIGIN ["COM"]
properties('MP2/aug-cc-pvtz', properties = ['dipole'])
--------------------------------------------------------------------------

    Molecular point group: c1
  Charge       = 0
  Multiplicity = 1
  Basis Set: AUG-CC-PVTZ
    Blend: AUG-CC-PVTZ
  Basis Set: (AUG-CC-PVTZ AUX)
    Blend: AUG-CC-PVTZ-JKFIT

    Orbital Energies [Eh]
    ---------------------

    Doubly Occupied:

       1A    -20.525162     2A    -15.634765     3A    -15.632645
       4A    -15.612532     5A    -15.574193     6A    -15.565118
       7A    -11.398771     8A    -11.368847     9A    -11.329780
      10A    -11.315814    11A    -11.253134    12A     -1.393555
      13A     -1.358180    14A     -1.335183    15A     -1.221159
      16A     -1.218271    17A     -1.179265    18A     -1.030853
      19A     -0.905492    20A     -0.885661    21A     -0.849369
      22A     -0.798753    23A     -0.739713    24A     -0.729175
      25A     -0.702009    26A     -0.675964    27A     -0.655166
      28A     -0.631606    29A     -0.615007    30A     -0.600710
      31A     -0.594837    32A     -0.548235    33A     -0.500669
      34A     -0.462807    35A     -0.443723    36A     -0.433545
      37A     -0.432937    38A     -0.413416    39A     -0.302814

  @DF-RHF Final Energy:  -539.58647589425391

   => Energetics <=

    Nuclear Repulsion Energy =            593.0412931453158762
    One-Electron Energy =               -1911.5178635844972632
    Two-Electron Energy =                 778.8900945449274786
    Total Energy =                       -539.5864758942539083
  Basis Set: (AUG-CC-PVTZ AUX)
    Blend: AUG-CC-PVTZ-RI
    Molecular point group: c1

    Geometry (in Angstrom), charge = 0, multiplicity = 1:

       Center              X                  Y                   Z               Mass
    ------------   -----------------  -----------------  -----------------  -----------------
         O            0.199987659841     2.670253836262    -0.005657524113    15.994914619570
         C            0.232522659841     1.445767836262     0.007124475887    12.000000000000
         N            1.489539659841     0.763850836262    -0.002299524113    14.003074004430
         C            1.693198659841    -0.593608163738     0.004718475887    12.000000000000
         N            0.727656659841    -1.479975163738     0.014034475887    14.003074004430
         C           -0.501153340159    -0.883526163738    -0.000789524113    12.000000000000
         C           -0.829973340159     0.470711836262     0.017993475887    12.000000000000
         N           -2.194280340159     0.660594836262     0.016155475887    14.003074004430
         C           -2.684541340159    -0.569145163738     0.003253475887    12.000000000000
         N           -1.723654640159    -1.551996663738    -0.004744324113    14.003074004430
         N            3.013323659841    -1.009114163738    -0.076988524113    14.003074004430
         H            2.287441659841     1.387211836262    -0.101756524113     1.007825032230
         H           -3.737278340159    -0.820606163738    -0.000654524113     1.007825032230
         H           -1.829245340159    -2.540956163738    -0.018281524113     1.007825032230
         H            3.086455659841    -2.010790163738     0.070778475887     1.007825032230
         H            3.665798659841    -0.491704163738     0.503213475887     1.007825032230

  Basis Set: AUG-CC-PVTZ
    Blend: AUG-CC-PVTZ
  Basis Set: (AUG-CC-PVTZ AUX)
    Blend: AUG-CC-PVTZ-JKFIT
	 Reference Energy          =    -539.5864758942539083 [Eh]
	 Singles Energy            =      -0.0000000000000000 [Eh]
	 Same-Spin Energy          =      -0.5729374411540431 [Eh]
	 Opposite-Spin Energy      =      -1.6633862335045644 [Eh]
	 Correlation Energy        =      -2.2363236746586077 [Eh]
	 Total Energy              =    -541.8227995689125009 [Eh]

	 ================> DF-SCS-MP2 Energies <==================
	-----------------------------------------------------------
	 SCS Same-Spin Scale       =       0.3333333333333333 [-]
	 SCS Opposite-Spin Scale   =       1.2000000000000000 [-]
	 SCS Same-Spin Energy      =      -0.1909791470513477 [Eh]
	 SCS Opposite-Spin Energy  =      -1.9960634802054771 [Eh]
	 SCS Correlation Energy    =      -2.1870426272568246 [Eh]
	 SCS Total Energy          =    -541.7735185215107094 [Eh]
	-----------------------------------------------------------

  Dipole Moment: [D]
     X:     2.7147      Y:    -5.5842      Z:     0.8449     Total:     6.2663

*** Psi4 exiting successfully. Buy a developer a beer!
