                               Psi4 1.3.2 release

  ==> Input File <==

--------------------------------------------------------------------------
#psi4
#
memory 32 gb

molecule  {
0 1
  O        0.1763910     2.6970700    -0.0085580
  C        0.2089260     1.4725840     0.0042240
  N        1.4659430     0.7906670    -0.0052000
  C        1.6696020    -0.5667920     0.0018180
  N        0.7040600    -1.4531590     0.0111340
  C       -0.5247500    -0.8567100    -0.0036900
  C       -0.8535700     0.4975280     0.0150930
  N       -2.2178770     0.6874110     0.0132550
  C       -2.7081380    -0.5423290     0.0003530
  N       -1.7302440    -1.5082620    -0.0074590
  N        2.8945060    -0.9523274    -0.0739955
  H        2.2638450     1.4140280    -0.1046570
  H       -3.7608750    -0.7937900    -0.0035550
  H       -1.8528420    -2.5141400    -0.0211820
  H        3.0628590    -1.9839740     0.0678780
  H        3.6422020    -0.4648880     0.5003130
units angstrom
no_reorient  #important for SAPT in psi4, default
symmetry c1  #important for SAPT in psi4, default
}

set PROPERTIES_ORIGIN ["COM"]
properties('MP2/aug-cc-pvtz', properties = ['dipole'])
--------------------------------------------------------------------------

    Molecular point group: c1
  Charge       = 0
  Multiplicity = 1
  Basis Set: AUG-CC-PVTZ
    Blend: AUG-CC-PVTZ
  Basis Set: (AUG-CC-PVTZ AUX)
    Blend: AUG-CC-PVTZ-JKFIT

    Orbital Energies [Eh]
    ---------------------

    Doubly Occupied:

       1A    -20.520781     2A    -15.631675     3A    -15.625596
       4A    -15.620950     5A    -15.563812     6A    -15.561240
       7A    -11.389391     8A    -11.363814     9A    -11.323073
      10A    -11.309479    11A    -11.245205    12A     -1.394345
      13A     -1.358556    14A     -1.346208    15A     -1.229850
      16A     -1.214378    17A     -1.173954    18A     -1.024929
      19A     -0.904274    20A     -0.886260    21A     -0.840662
      22A     -0.800565    23A     -0.751187    24A     -0.735602
      25A     -0.690536    26A     -0.667090    27A     -0.654520
      28A     -0.631782    29A     -0.610458    30A     -0.599513
      31A     -0.594838    32A     -0.551119    33A     -0.494847
      34A     -0.459635    35A     -0.439466    36A     -0.429647
      37A     -0.428572    38A     -0.408278    39A     -0.296204

  @DF-RHF Final Energy:  -539.57516431965735

   => Energetics <=

    Nuclear Repulsion Energy =            596.3394112991254588
    One-Electron Energy =               -1918.2845697593818386
    Two-Electron Energy =                 782.3699941405990330
    Total Energy =                       -539.5751643196573468
  Basis Set: (AUG-CC-PVTZ AUX)
    Blend: AUG-CC-PVTZ-RI
    Molecular point group: c1

    Geometry (in Angstrom), charge = 0, multiplicity = 1:

       Center              X                  Y                   Z               Mass
    ------------   -----------------  -----------------  -----------------  -----------------
         O            0.207238480819     2.665906970305    -0.006221107168    15.994914619570
         C            0.239773480819     1.441420970305     0.006560892832    12.000000000000
         N            1.496790480819     0.759503970305    -0.002863107168    14.003074004430
         C            1.700449480819    -0.597955029695     0.004154892832    12.000000000000
         N            0.734907480819    -1.484322029695     0.013470892832    14.003074004430
         C           -0.493902519181    -0.887873029695    -0.001353107168    12.000000000000
         C           -0.822722519181     0.466364970305     0.017429892832    12.000000000000
         N           -2.187029519181     0.656247970305     0.015591892832    14.003074004430
         C           -2.677290519181    -0.573492029695     0.002689892832    12.000000000000
         N           -1.699396519181    -1.539425029695    -0.005122107168    14.003074004430
         N            2.925353480819    -0.983490429695    -0.071658607168    14.003074004430
         H            2.294692480819     1.382864970305    -0.102320107168     1.007825032230
         H           -3.730027519181    -0.824953029695    -0.001218107168     1.007825032230
         H           -1.821994519181    -2.545303029695    -0.018845107168     1.007825032230
         H            3.093706480819    -2.015137029695     0.070214892832     1.007825032230
         H            3.673049480819    -0.496051029695     0.502649892832     1.007825032230

  Basis Set: AUG-CC-PVTZ
    Blend: AUG-CC-PVTZ
  Basis Set: (AUG-CC-PVTZ AUX)
    Blend: AUG-CC-PVTZ-JKFIT
	 Reference Energy          =    -539.5751643196573468 [Eh]
	 Singles Energy            =      -0.0000000000000000 [Eh]
	 Same-Spin Energy          =      -0.5736468427224919 [Eh]
	 Opposite-Spin Energy      =      -1.6632233108894570 [Eh]
	 Correlation Energy        =      -2.2368701536119486 [Eh]
	 Total Energy              =    -541.8120344732692502 [Eh]

	 ================> DF-SCS-MP2 Energies <==================
	-----------------------------------------------------------
	 SCS Same-Spin Scale       =       0.3333333333333333 [-]
	 SCS Opposite-Spin Scale   =       1.2000000000000000 [-]
	 SCS Same-Spin Energy      =      -0.1912156142408306 [Eh]
	 SCS Opposite-Spin Energy  =      -1.9958679730673483 [Eh]
	 SCS Correlation Energy    =      -2.1870835873081789 [Eh]
	 SCS Total Energy          =    -541.7622479069655128 [Eh]
	-----------------------------------------------------------

  Dipole Moment: [D]
     X:     3.4649      Y:    -5.8376      Z:     0.7960     Total:     6.8350

*** Psi4 exiting successfully. Buy a developer a beer!
