                               Psi4 1.3.2 release

  ==> Input File <==

--------------------------------------------------------------------------
#psi4
#
memory 32 gb

molecule  {
0 1
  O        0.1763910     2.6970700    -0.0085580
  C        0.2089260     1.4725840     0.0042240
  N        1.4659430     0.7906670    -0.0052000
  C        1.6696020    -0.5667920     0.0018180
  N        0.6824926    -1.4956816     0.0113355
  C       -0.5247500    -0.8567100    -0.0036900
  C       -0.8535700     0.4975280     0.0150930
  N       -2.2178770     0.6874110     0.0132550
  C       -2.7081380    -0.5423290     0.0003530
  N       -1.7302440    -1.5082620    -0.0074590
  N        2.9897270    -0.9822980    -0.0798890
  H        2.2638450     1.4140280    -0.1046570
  H       -3.7608750    -0.7937900    -0.0035550
  H       -1.8528420    -2.5141400    -0.0211820
  H        3.0628590    -1.9839740     0.0678780
  H        3.6422020    -0.4648880     0.5003130
units angstrom
no_reorient  #important for SAPT in psi4, default
symmetry c1  #important for SAPT in psi4, default
}

set PROPERTIES_ORIGIN ["COM"]
properties('MP2/aug-cc-pvtz', properties = ['dipole'])
--------------------------------------------------------------------------

    Molecular point group: c1
  Charge       = 0
  Multiplicity = 1
  Basis Set: AUG-CC-PVTZ
    Blend: AUG-CC-PVTZ
  Basis Set: (AUG-CC-PVTZ AUX)
    Blend: AUG-CC-PVTZ-JKFIT

    Orbital Energies [Eh]
    ---------------------

    Doubly Occupied:

       1A    -20.524992     2A    -15.637087     3A    -15.632835
       4A    -15.616778     5A    -15.578420     6A    -15.563943
       7A    -11.407379     8A    -11.368521     9A    -11.326195
      10A    -11.312672    11A    -11.250168    12A     -1.393026
      13A     -1.359468    14A     -1.333115    15A     -1.223639
      16A     -1.215294    17A     -1.174851    18A     -1.028196
      19A     -0.905378    20A     -0.887399    21A     -0.843382
      22A     -0.795256    23A     -0.741824    24A     -0.729240
      25A     -0.702092    26A     -0.673563    27A     -0.654457
      28A     -0.627780    29A     -0.614440    30A     -0.600740
      31A     -0.595234    32A     -0.546989    33A     -0.502557
      34A     -0.462816    35A     -0.444618    36A     -0.434356
      37A     -0.433273    38A     -0.410579    39A     -0.299682

  @DF-RHF Final Energy:  -539.58238270584593

   => Energetics <=

    Nuclear Repulsion Energy =            592.5899095345848764
    One-Electron Energy =               -1910.6401192978155450
    Two-Electron Energy =                 778.4678270573847385
    Total Energy =                       -539.5823827058459301
  Basis Set: (AUG-CC-PVTZ AUX)
    Blend: AUG-CC-PVTZ-RI
    Molecular point group: c1

    Geometry (in Angstrom), charge = 0, multiplicity = 1:

       Center              X                  Y                   Z               Mass
    ------------   -----------------  -----------------  -----------------  -----------------
         O            0.200410405073     2.672627470873    -0.005693428858    15.994914619570
         C            0.232945405073     1.448141470873     0.007088571142    12.000000000000
         N            1.489962405073     0.766224470873    -0.002335428858    14.003074004430
         C            1.693621405073    -0.591234529127     0.004682571142    12.000000000000
         N            0.706512005073    -1.520124129127     0.014200071142    14.003074004430
         C           -0.500730594927    -0.881152529127    -0.000825428858    12.000000000000
         C           -0.829550594927     0.473085470873     0.017957571142    12.000000000000
         N           -2.193857594927     0.662968470873     0.016119571142    14.003074004430
         C           -2.684118594927    -0.566771529127     0.003217571142    12.000000000000
         N           -1.706224594927    -1.532704529127    -0.004594428858    14.003074004430
         N            3.013746405073    -1.006740529127    -0.077024428858    14.003074004430
         H            2.287864405073     1.389585470873    -0.101792428858     1.007825032230
         H           -3.736855594927    -0.818232529127    -0.000690428858     1.007825032230
         H           -1.828822594927    -2.538582529127    -0.018317428858     1.007825032230
         H            3.086878405073    -2.008416529127     0.070742571142     1.007825032230
         H            3.666221405073    -0.489330529127     0.503177571142     1.007825032230

  Basis Set: AUG-CC-PVTZ
    Blend: AUG-CC-PVTZ
  Basis Set: (AUG-CC-PVTZ AUX)
    Blend: AUG-CC-PVTZ-JKFIT
	 Reference Energy          =    -539.5823827058459301 [Eh]
	 Singles Energy            =      -0.0000000000000000 [Eh]
	 Same-Spin Energy          =      -0.5735807150161183 [Eh]
	 Opposite-Spin Energy      =      -1.6646739857361397 [Eh]
	 Correlation Energy        =      -2.2382547007522580 [Eh]
	 Total Energy              =    -541.8206374065981663 [Eh]

	 ================> DF-SCS-MP2 Energies <==================
	-----------------------------------------------------------
	 SCS Same-Spin Scale       =       0.3333333333333333 [-]
	 SCS Opposite-Spin Scale   =       1.2000000000000000 [-]
	 SCS Same-Spin Energy      =      -0.1911935716720394 [Eh]
	 SCS Opposite-Spin Energy  =      -1.9976087828833675 [Eh]
	 SCS Correlation Energy    =      -2.1888023545554072 [Eh]
	 SCS Total Energy          =    -541.7711850604013080 [Eh]
	-----------------------------------------------------------

  Dipole Moment: [D]
     X:     2.8540      Y:    -5.5376      Z:     0.8392     Total:     6.2860

*** Psi4 exiting successfully. Buy a developer a beer!
