                               Psi4 1.3.2 release

  ==> Input File <==

--------------------------------------------------------------------------
#psi4
#
memory 32 gb

molecule  {
0 1
  O        0.1763910     2.6970700    -0.0085580
  C        0.2089260     1.4725840     0.0042240
  N        1.4659430     0.7906670    -0.0052000
  C        1.6696020    -0.5667920     0.0018180
  N        0.7040600    -1.4531590     0.0111340
  C       -0.4632501    -0.9862719    -0.0058090
  C       -0.8535700     0.4975280     0.0150930
  N       -2.2178770     0.6874110     0.0132550
  C       -2.7081380    -0.5423290     0.0003530
  N       -1.7302440    -1.5082620    -0.0074590
  N        2.9897270    -0.9822980    -0.0798890
  H        2.2638450     1.4140280    -0.1046570
  H       -3.7608750    -0.7937900    -0.0035550
  H       -1.8528420    -2.5141400    -0.0211820
  H        3.0628590    -1.9839740     0.0678780
  H        3.6422020    -0.4648880     0.5003130
units angstrom
no_reorient  #important for SAPT in psi4, default
symmetry c1  #important for SAPT in psi4, default
}

set PROPERTIES_ORIGIN ["COM"]
properties('MP2/aug-cc-pvtz', properties = ['dipole'])
--------------------------------------------------------------------------

    Molecular point group: c1
  Charge       = 0
  Multiplicity = 1
  Basis Set: AUG-CC-PVTZ
    Blend: AUG-CC-PVTZ
  Basis Set: (AUG-CC-PVTZ AUX)
    Blend: AUG-CC-PVTZ-JKFIT

    Orbital Energies [Eh]
    ---------------------

    Doubly Occupied:

       1A    -20.511947     2A    -15.638464     3A    -15.636890
       4A    -15.619712     5A    -15.576301     6A    -15.567792
       7A    -11.410568     8A    -11.358202     9A    -11.339642
      10A    -11.310306    11A    -11.252169    12A     -1.393863
      13A     -1.357774    14A     -1.336691    15A     -1.247530
      16A     -1.223487    17A     -1.180286    18A     -1.013335
      19A     -0.915467    20A     -0.896213    21A     -0.834855
      22A     -0.807996    23A     -0.745777    24A     -0.738113
      25A     -0.699338    26A     -0.666017    27A     -0.657955
      28A     -0.644929    29A     -0.606049    30A     -0.596636
      31A     -0.593912    32A     -0.549707    33A     -0.500805
      34A     -0.478182    35A     -0.437578    36A     -0.436212
      37A     -0.417090    38A     -0.409733    39A     -0.279552

  @DF-RHF Final Energy:  -539.55545969496336

   => Energetics <=

    Nuclear Repulsion Energy =            592.6080476750440766
    One-Electron Energy =               -1910.5528615345147045
    Two-Electron Energy =                 778.3893541645073810
    Total Energy =                       -539.5554596949633606
  Basis Set: (AUG-CC-PVTZ AUX)
    Blend: AUG-CC-PVTZ-RI
    Molecular point group: c1

    Geometry (in Angstrom), charge = 0, multiplicity = 1:

       Center              X                  Y                   Z               Mass
    ------------   -----------------  -----------------  -----------------  -----------------
         O            0.193525183213     2.678978344316    -0.005506406483    15.994914619570
         C            0.226060183213     1.454492344316     0.007275593517    12.000000000000
         N            1.483077183213     0.772575344316    -0.002148406483    14.003074004430
         C            1.686736183213    -0.584883655684     0.004869593517    12.000000000000
         N            0.721194183213    -1.471250655684     0.014185593517    14.003074004430
         C           -0.446115916787    -1.004363555684    -0.002757406483    12.000000000000
         C           -0.836435816787     0.479436344316     0.018144593517    12.000000000000
         N           -2.200742816787     0.669319344316     0.016306593517    14.003074004430
         C           -2.691003816787    -0.560420655684     0.003404593517    12.000000000000
         N           -1.713109816787    -1.526353655684    -0.004407406483    14.003074004430
         N            3.006861183213    -1.000389655684    -0.076837406483    14.003074004430
         H            2.280979183213     1.395936344316    -0.101605406483     1.007825032230
         H           -3.743740816787    -0.811881655684    -0.000503406483     1.007825032230
         H           -1.835707816787    -2.532231655684    -0.018130406483     1.007825032230
         H            3.079993183213    -2.002065655684     0.070929593517     1.007825032230
         H            3.659336183213    -0.482979655684     0.503364593517     1.007825032230

  Basis Set: AUG-CC-PVTZ
    Blend: AUG-CC-PVTZ
  Basis Set: (AUG-CC-PVTZ AUX)
    Blend: AUG-CC-PVTZ-JKFIT
	 Reference Energy          =    -539.5554596949633606 [Eh]
	 Singles Energy            =      -0.0000000000000000 [Eh]
	 Same-Spin Energy          =      -0.5765267407839072 [Eh]
	 Opposite-Spin Energy      =      -1.6659367482339351 [Eh]
	 Correlation Energy        =      -2.2424634890178421 [Eh]
	 Total Energy              =    -541.7979231839811973 [Eh]

	 ================> DF-SCS-MP2 Energies <==================
	-----------------------------------------------------------
	 SCS Same-Spin Scale       =       0.3333333333333333 [-]
	 SCS Opposite-Spin Scale   =       1.2000000000000000 [-]
	 SCS Same-Spin Energy      =      -0.1921755802613024 [Eh]
	 SCS Opposite-Spin Energy  =      -1.9991240978807221 [Eh]
	 SCS Correlation Energy    =      -2.1912996781420246 [Eh]
	 SCS Total Energy          =    -541.7467593731054194 [Eh]
	-----------------------------------------------------------

  Dipole Moment: [D]
     X:     2.8658      Y:    -6.0017      Z:     0.8437     Total:     6.7041

*** Psi4 exiting successfully. Buy a developer a beer!
