                               Psi4 1.3.2 release

  ==> Input File <==

--------------------------------------------------------------------------
#psi4
#
memory 32 gb

molecule  {
0 1
  O        0.1763910     2.6970700    -0.0085580
  C        0.2209397     1.4943085     0.0016345
  N        1.4659430     0.7906670    -0.0052000
  C        1.6696020    -0.5667920     0.0018180
  N        0.7040600    -1.4531590     0.0111340
  C       -0.5247500    -0.8567100    -0.0036900
  C       -0.8535700     0.4975280     0.0150930
  N       -2.2178770     0.6874110     0.0132550
  C       -2.7081380    -0.5423290     0.0003530
  N       -1.7302440    -1.5082620    -0.0074590
  N        2.9897270    -0.9822980    -0.0798890
  H        2.2638450     1.4140280    -0.1046570
  H       -3.7608750    -0.7937900    -0.0035550
  H       -1.8528420    -2.5141400    -0.0211820
  H        3.0628590    -1.9839740     0.0678780
  H        3.6422020    -0.4648880     0.5003130
units angstrom
no_reorient  #important for SAPT in psi4, default
symmetry c1  #important for SAPT in psi4, default
}

set PROPERTIES_ORIGIN ["COM"]
properties('MP2/aug-cc-pvtz', properties = ['dipole'])
--------------------------------------------------------------------------

    Molecular point group: c1
  Charge       = 0
  Multiplicity = 1
  Basis Set: AUG-CC-PVTZ
    Blend: AUG-CC-PVTZ
  Basis Set: (AUG-CC-PVTZ AUX)
    Blend: AUG-CC-PVTZ-JKFIT

    Orbital Energies [Eh]
    ---------------------

    Doubly Occupied:

       1A    -20.529732     2A    -15.634317     3A    -15.630758
       4A    -15.611565     5A    -15.571902     6A    -15.563639
       7A    -11.397667     8A    -11.368876     9A    -11.324252
      10A    -11.312106    11A    -11.251042    12A     -1.402956
      13A     -1.364001    14A     -1.336525    15A     -1.221132
      16A     -1.217154    17A     -1.176215    18A     -1.026552
      19A     -0.902987    20A     -0.884797    21A     -0.842941
      22A     -0.798227    23A     -0.737783    24A     -0.728909
      25A     -0.700421    26A     -0.672860    27A     -0.655284
      28A     -0.633238    29A     -0.622389    30A     -0.600080
      31A     -0.595769    32A     -0.553170    33A     -0.498284
      34A     -0.462010    35A     -0.445525    36A     -0.434862
      37A     -0.432306    38A     -0.410608    39A     -0.300710

  @DF-RHF Final Energy:  -539.58811829921319

   => Energetics <=

    Nuclear Repulsion Energy =            593.5047135332979451
    One-Electron Energy =               -1912.4785613379967799
    Two-Electron Energy =                 779.3857295054856422
    Total Energy =                       -539.5881182992131926
  Basis Set: (AUG-CC-PVTZ AUX)
    Blend: AUG-CC-PVTZ-RI
    Molecular point group: c1

    Geometry (in Angstrom), charge = 0, multiplicity = 1:

       Center              X                  Y                   Z               Mass
    ------------   -----------------  -----------------  -----------------  -----------------
         O            0.197456574940     2.666959516819    -0.005469027985    15.994914619570
         C            0.242005274940     1.464198016819     0.004723472015    12.000000000000
         N            1.487008574940     0.760556516819    -0.002111027985    14.003074004430
         C            1.690667574940    -0.596902483181     0.004906972015    12.000000000000
         N            0.725125574940    -1.483269483181     0.014222972015    14.003074004430
         C           -0.503684425060    -0.886820483181    -0.000601027985    12.000000000000
         C           -0.832504425060     0.467417516819     0.018181972015    12.000000000000
         N           -2.196811425060     0.657300516819     0.016343972015    14.003074004430
         C           -2.687072425060    -0.572439483181     0.003441972015    12.000000000000
         N           -1.709178425060    -1.538372483181    -0.004370027985    14.003074004430
         N            3.010792574940    -1.012408483181    -0.076800027985    14.003074004430
         H            2.284910574940     1.383917516819    -0.101568027985     1.007825032230
         H           -3.739809425060    -0.823900483181    -0.000466027985     1.007825032230
         H           -1.831776425060    -2.544250483181    -0.018093027985     1.007825032230
         H            3.083924574940    -2.014084483181     0.070966972015     1.007825032230
         H            3.663267574940    -0.494998483181     0.503401972015     1.007825032230

  Basis Set: AUG-CC-PVTZ
    Blend: AUG-CC-PVTZ
  Basis Set: (AUG-CC-PVTZ AUX)
    Blend: AUG-CC-PVTZ-JKFIT
	 Reference Energy          =    -539.5881182992131926 [Eh]
	 Singles Energy            =      -0.0000000000000000 [Eh]
	 Same-Spin Energy          =      -0.5725793451358800 [Eh]
	 Opposite-Spin Energy      =      -1.6623861342384418 [Eh]
	 Correlation Energy        =      -2.2349654793743219 [Eh]
	 Total Energy              =    -541.8230837785874883 [Eh]

	 ================> DF-SCS-MP2 Energies <==================
	-----------------------------------------------------------
	 SCS Same-Spin Scale       =       0.3333333333333333 [-]
	 SCS Opposite-Spin Scale   =       1.2000000000000000 [-]
	 SCS Same-Spin Energy      =      -0.1908597817119600 [Eh]
	 SCS Opposite-Spin Energy  =      -1.9948633610861302 [Eh]
	 SCS Correlation Energy    =      -2.1857231427980901 [Eh]
	 SCS Total Energy          =    -541.7738414420113031 [Eh]
	-----------------------------------------------------------

  Dipole Moment: [D]
     X:     2.7206      Y:    -5.4155      Z:     0.8405     Total:     6.1185

*** Psi4 exiting successfully. Buy a developer a beer!
