                               Psi4 1.3.2 release

  ==> Input File <==

--------------------------------------------------------------------------
#psi4
#
memory 32 gb

molecule  {
0 1
  O        0.1763910     2.6970700    -0.0085580
  C        0.2089260     1.4725840     0.0042240
  N        1.4659430     0.7906670    -0.0052000
  C        1.6696020    -0.5667920     0.0018180
  N        0.7142731    -1.4316257     0.0117617
  C       -0.5247500    -0.8567100    -0.0036900
  C       -0.8535700     0.4975280     0.0150930
  N       -2.2178770     0.6874110     0.0132550
  C       -2.7081380    -0.5423290     0.0003530
  N       -1.7302440    -1.5082620    -0.0074590
  N        2.9897270    -0.9822980    -0.0798890
  H        2.2638450     1.4140280    -0.1046570
  H       -3.7608750    -0.7937900    -0.0035550
  H       -1.8528420    -2.5141400    -0.0211820
  H        3.0628590    -1.9839740     0.0678780
  H        3.6422020    -0.4648880     0.5003130
units angstrom
no_reorient  #important for SAPT in psi4, default
symmetry c1  #important for SAPT in psi4, default
}

set PROPERTIES_ORIGIN ["COM"]
properties('MP2/aug-cc-pvtz', properties = ['dipole'])
--------------------------------------------------------------------------

    Molecular point group: c1
  Charge       = 0
  Multiplicity = 1
  Basis Set: AUG-CC-PVTZ
    Blend: AUG-CC-PVTZ
  Basis Set: (AUG-CC-PVTZ AUX)
    Blend: AUG-CC-PVTZ-JKFIT

    Orbital Energies [Eh]
    ---------------------

    Doubly Occupied:

       1A    -20.524124     2A    -15.637938     3A    -15.629334
       4A    -15.610157     5A    -15.571075     6A    -15.565995
       7A    -11.393981     8A    -11.367759     9A    -11.328352
      10A    -11.315161    11A    -11.252146    12A     -1.394056
      13A     -1.361719    14A     -1.337610    15A     -1.219919
      16A     -1.219147    17A     -1.179822    18A     -1.033070
      19A     -0.907700    20A     -0.884225    21A     -0.845777
      22A     -0.801193    23A     -0.739631    24A     -0.730931
      25A     -0.699963    26A     -0.673008    27A     -0.657395
      28A     -0.636708    29A     -0.614703    30A     -0.601801
      31A     -0.597382    32A     -0.548428    33A     -0.498414
      34A     -0.462457    35A     -0.442376    36A     -0.432883
      37A     -0.431806    38A     -0.413069    39A     -0.304600

  @DF-RHF Final Energy:  -539.58849669309905

   => Energetics <=

    Nuclear Repulsion Energy =            594.2059632975141312
    One-Electron Energy =               -1913.8572900782271518
    Two-Electron Energy =                 780.0628300876140884
    Total Energy =                       -539.5884966930990458
  Basis Set: (AUG-CC-PVTZ AUX)
    Blend: AUG-CC-PVTZ-RI
    Molecular point group: c1

    Geometry (in Angstrom), charge = 0, multiplicity = 1:

       Center              X                  Y                   Z               Mass
    ------------   -----------------  -----------------  -----------------  -----------------
         O            0.197464185727     2.666689152350    -0.005732939838    15.994914619570
         C            0.229999185727     1.442203152350     0.007049060162    12.000000000000
         N            1.487016185727     0.760286152350    -0.002374939838    14.003074004430
         C            1.690675185727    -0.597172847650     0.004643060162    12.000000000000
         N            0.735346285727    -1.462006547650     0.014586760162    14.003074004430
         C           -0.503676814273    -0.887090847650    -0.000864939838    12.000000000000
         C           -0.832496814273     0.467147152350     0.017918060162    12.000000000000
         N           -2.196803814273     0.657030152350     0.016080060162    14.003074004430
         C           -2.687064814273    -0.572709847650     0.003178060162    12.000000000000
         N           -1.709170814273    -1.538642847650    -0.004633939838    14.003074004430
         N            3.010800185727    -1.012678847650    -0.077063939838    14.003074004430
         H            2.284918185727     1.383647152350    -0.101831939838     1.007825032230
         H           -3.739801814273    -0.824170847650    -0.000729939838     1.007825032230
         H           -1.831768814273    -2.544520847650    -0.018356939838     1.007825032230
         H            3.083932185727    -2.014354847650     0.070703060162     1.007825032230
         H            3.663275185727    -0.495268847650     0.503138060162     1.007825032230

  Basis Set: AUG-CC-PVTZ
    Blend: AUG-CC-PVTZ
  Basis Set: (AUG-CC-PVTZ AUX)
    Blend: AUG-CC-PVTZ-JKFIT
	 Reference Energy          =    -539.5884966930990458 [Eh]
	 Singles Energy            =      -0.0000000000000000 [Eh]
	 Same-Spin Energy          =      -0.5727843161927310 [Eh]
	 Opposite-Spin Energy      =      -1.6625268199254832 [Eh]
	 Correlation Energy        =      -2.2353111361182143 [Eh]
	 Total Energy              =    -541.8238078292172304 [Eh]

	 ================> DF-SCS-MP2 Energies <==================
	-----------------------------------------------------------
	 SCS Same-Spin Scale       =       0.3333333333333333 [-]
	 SCS Opposite-Spin Scale   =       1.2000000000000000 [-]
	 SCS Same-Spin Energy      =      -0.1909281053975770 [Eh]
	 SCS Opposite-Spin Energy  =      -1.9950321839105798 [Eh]
	 SCS Correlation Energy    =      -2.1859602893081567 [Eh]
	 SCS Total Energy          =    -541.7744569824071732 [Eh]
	-----------------------------------------------------------

  Dipole Moment: [D]
     X:     2.5743      Y:    -5.6877      Z:     0.8457     Total:     6.3002

*** Psi4 exiting successfully. Buy a developer a beer!
