                               Psi4 1.3.2 release

  ==> Input File <==

--------------------------------------------------------------------------
#psi4
#
memory 32 gb

molecule  {
0 1
  O        0.1763910     2.6970700    -0.0085580
  C        0.2089260     1.4725840     0.0042240
  N        1.4659430     0.7906670    -0.0052000
  C        1.6696020    -0.5667920     0.0018180
  N        0.7596194    -1.3214654     0.0148257
  C       -0.5247500    -0.8567100    -0.0036900
  C       -0.8535700     0.4975280     0.0150930
  N       -2.2178770     0.6874110     0.0132550
  C       -2.7081380    -0.5423290     0.0003530
  N       -1.7302440    -1.5082620    -0.0074590
  N        2.9897270    -0.9822980    -0.0798890
  H        2.2638450     1.4140280    -0.1046570
  H       -3.7608750    -0.7937900    -0.0035550
  H       -1.8528420    -2.5141400    -0.0211820
  H        3.0628590    -1.9839740     0.0678780
  H        3.6422020    -0.4648880     0.5003130
units angstrom
no_reorient  #important for SAPT in psi4, default
symmetry c1  #important for SAPT in psi4, default
}

set PROPERTIES_ORIGIN ["COM"]
properties('MP2/aug-cc-pvtz', properties = ['dipole'])
--------------------------------------------------------------------------

    Molecular point group: c1
  Charge       = 0
  Multiplicity = 1
  Basis Set: AUG-CC-PVTZ
    Blend: AUG-CC-PVTZ
  Basis Set: (AUG-CC-PVTZ AUX)
    Blend: AUG-CC-PVTZ-JKFIT

    Orbital Energies [Eh]
    ---------------------

    Doubly Occupied:

       1A    -20.522500     2A    -15.646257     3A    -15.614996
       4A    -15.598797     5A    -15.569242     6A    -15.557251
       7A    -11.369358     8A    -11.366124     9A    -11.332687
      10A    -11.319439    11A    -11.255558    12A     -1.400219
      13A     -1.365008    14A     -1.348923    15A     -1.223904
      16A     -1.211932    17A     -1.186157    18A     -1.042570
      19A     -0.912047    20A     -0.880662    21A     -0.848915
      22A     -0.810688    23A     -0.736517    24A     -0.734616
      25A     -0.696285    26A     -0.673065    27A     -0.662555
      28A     -0.648701    29A     -0.614450    30A     -0.603577
      31A     -0.601415    32A     -0.550838    33A     -0.491950
      34A     -0.461751    35A     -0.436693    36A     -0.430124
      37A     -0.426573    38A     -0.416803    39A     -0.313173

  @DF-RHF Final Energy:  -539.57123603058267

   => Energetics <=

    Nuclear Repulsion Energy =            597.1481927645218093
    One-Electron Energy =               -1919.6742225432628857
    Two-Electron Energy =                 782.9547937481584086
    Total Energy =                       -539.5712360305826678
  Basis Set: (AUG-CC-PVTZ AUX)
    Blend: AUG-CC-PVTZ-RI
    Molecular point group: c1

    Geometry (in Angstrom), charge = 0, multiplicity = 1:

       Center              X                  Y                   Z               Mass
    ------------   -----------------  -----------------  -----------------  -----------------
         O            0.193260345437     2.656476713683    -0.006016988738    15.994914619570
         C            0.225795345437     1.431990713683     0.006765011262    12.000000000000
         N            1.482812345437     0.750073713683    -0.002658988738    14.003074004430
         C            1.686471345437    -0.607385286317     0.004359011262    12.000000000000
         N            0.776488745437    -1.362058686317     0.017366711262    14.003074004430
         C           -0.507880654563    -0.897303286317    -0.001148988738    12.000000000000
         C           -0.836700654563     0.456934713683     0.017634011262    12.000000000000
         N           -2.201007654563     0.646817713683     0.015796011262    14.003074004430
         C           -2.691268654563    -0.582922286317     0.002894011262    12.000000000000
         N           -1.713374654563    -1.548855286317    -0.004917988738    14.003074004430
         N            3.006596345437    -1.022891286317    -0.077347988738    14.003074004430
         H            2.280714345437     1.373434713683    -0.102115988738     1.007825032230
         H           -3.744005654563    -0.834383286317    -0.001013988738     1.007825032230
         H           -1.835972654563    -2.554733286317    -0.018640988738     1.007825032230
         H            3.079728345437    -2.024567286317     0.070419011262     1.007825032230
         H            3.659071345437    -0.505481286317     0.502854011262     1.007825032230

  Basis Set: AUG-CC-PVTZ
    Blend: AUG-CC-PVTZ
  Basis Set: (AUG-CC-PVTZ AUX)
    Blend: AUG-CC-PVTZ-JKFIT
	 Reference Energy          =    -539.5712360305826678 [Eh]
	 Singles Energy            =      -0.0000000000000000 [Eh]
	 Same-Spin Energy          =      -0.5719137958564782 [Eh]
	 Opposite-Spin Energy      =      -1.6599593783542586 [Eh]
	 Correlation Energy        =      -2.2318731742107367 [Eh]
	 Total Energy              =    -541.8031092047933726 [Eh]

	 ================> DF-SCS-MP2 Energies <==================
	-----------------------------------------------------------
	 SCS Same-Spin Scale       =       0.3333333333333333 [-]
	 SCS Opposite-Spin Scale   =       1.2000000000000000 [-]
	 SCS Same-Spin Energy      =      -0.1906379319521594 [Eh]
	 SCS Opposite-Spin Energy  =      -1.9919512540251101 [Eh]
	 SCS Correlation Energy    =      -2.1825891859772693 [Eh]
	 SCS Total Energy          =    -541.7538252165599033 [Eh]
	-----------------------------------------------------------

  Dipole Moment: [D]
     X:     2.0858      Y:    -6.0047      Z:     0.8550     Total:     6.4139

*** Psi4 exiting successfully. Buy a developer a beer!
