                               Psi4 1.4a3.dev225

  ==> Input File <==

--------------------------------------------------------------------------
#psi4
#
memory 32 gb

molecule  {
0 1
  O        0.1763800     2.6970850    -0.0086780
  C        0.2088860     1.4725900     0.0042210
  N        1.4659360     0.7906750    -0.0050880
  C        1.6696170    -0.5667500     0.0018210
  N        0.7040680    -1.4531450     0.0111020
  C       -0.5247290    -0.8567090    -0.0037110
  C       -0.8535850     0.4975420     0.0152200
  N       -2.2178950     0.6873840     0.0133320
  C       -2.7081200    -0.5423560     0.0003580
  N       -1.7302140    -1.5082770    -0.0075250
  N        2.9897250    -0.9823190    -0.0798750
  H        2.2637990     1.4140370    -0.1048620
  H       -3.7122188    -0.7822283    -0.0033781
  H       -1.8527810    -2.5141570    -0.0214260
  H        3.0628080    -1.9839860     0.0679760
  H        3.6422460    -0.4648460     0.5002060
units angstrom
no_reorient  #important for SAPT in psi4, default
symmetry c1  #important for SAPT in psi4, default
}

set PROPERTIES_ORIGIN ["COM"]
properties('MP2/aug-cc-pvtz', properties = ['dipole'])
--------------------------------------------------------------------------

    Molecular point group: c1
  Charge       = 0
  Multiplicity = 1
  Basis Set: AUG-CC-PVTZ
    Blend: AUG-CC-PVTZ
  Basis Set: (AUG-CC-PVTZ AUX)
    Blend: AUG-CC-PVTZ-JKFIT

    Orbital Energies [Eh]
    ---------------------

    Doubly Occupied:

       1A    -20.524396     2A    -15.635905     3A    -15.631949
       4A    -15.612367     5A    -15.573538     6A    -15.565159
       7A    -11.398573     8A    -11.367964     9A    -11.327484
      10A    -11.308838    11A    -11.251277    12A     -1.393512
      13A     -1.360887    14A     -1.335841    15A     -1.220783
      16A     -1.218312    17A     -1.178057    18A     -1.032678
      19A     -0.908733    20A     -0.885778    21A     -0.847139
      22A     -0.801241    23A     -0.740961    24A     -0.732400
      25A     -0.701768    26A     -0.673181    27A     -0.656783
      28A     -0.635317    29A     -0.615078    30A     -0.605459
      31A     -0.597270    32A     -0.547898    33A     -0.499817
      34A     -0.462527    35A     -0.443353    36A     -0.433138
      37A     -0.432572    38A     -0.412049    39A     -0.302914

  @DF-RHF Final Energy:  -539.58675575059783

   => Energetics <=

    Nuclear Repulsion Energy =            593.9390937685329845
    One-Electron Energy =               -1913.3059092358600992
    Two-Electron Energy =                 779.7800597167292835
    Total Energy =                       -539.5867557505978311
  Basis Set: (AUG-CC-PVTZ AUX)
    Blend: AUG-CC-PVTZ-RI
    Molecular point group: c1

    Geometry (in Angstrom), charge = 0, multiplicity = 1:

       Center              X                  Y                   Z               Mass
    ------------   -----------------  -----------------  -----------------  -----------------
         O            0.198075523190     2.668622466717    -0.005798718533    15.994914619570
         C            0.230581523190     1.444127466717     0.007100281467    12.000000000000
         N            1.487631523190     0.762212466717    -0.002208718533    14.003074004430
         C            1.691312523190    -0.595212533283     0.004700281467    12.000000000000
         N            0.725763523190    -1.481607533283     0.013981281467    14.003074004430
         C           -0.503033476810    -0.885171533283    -0.000831718533    12.000000000000
         C           -0.831889476810     0.469079466717     0.018099281467    12.000000000000
         N           -2.196199476810     0.658921466717     0.016211281467    14.003074004430
         C           -2.686424476810    -0.570818533283     0.003237281467    12.000000000000
         N           -1.708518476810    -1.536739533283    -0.004645718533    14.003074004430
         N            3.011420523190    -1.010781533283    -0.076995718533    14.003074004430
         H            2.285494523190     1.385574466717    -0.101982718533     1.007825032230
         H           -3.690523276810    -0.810690833283    -0.000498818533     1.007825032230
         H           -1.831085476810    -2.542619533283    -0.018546718533     1.007825032230
         H            3.084503523190    -2.012448533283     0.070855281467     1.007825032230
         H            3.663941523190    -0.493308533283     0.503085281467     1.007825032230

  Basis Set: AUG-CC-PVTZ
    Blend: AUG-CC-PVTZ
  Basis Set: (AUG-CC-PVTZ AUX)
    Blend: AUG-CC-PVTZ-JKFIT
	 Reference Energy          =    -539.5867557505965806 [Eh]
	 Singles Energy            =      -0.0000000000000000 [Eh]
	 Same-Spin Energy          =      -0.5729314555633744 [Eh]
	 Opposite-Spin Energy      =      -1.6629232172282773 [Eh]
	 Correlation Energy        =      -2.2358546727916515 [Eh]
	 Total Energy              =    -541.8226104233882552 [Eh]

	 ================> DF-SCS-MP2 Energies <==================
	-----------------------------------------------------------
	 SCS Same-Spin Scale       =       0.3333333333333333 [-]
	 SCS Opposite-Spin Scale   =       1.2000000000000000 [-]
	 SCS Same-Spin Energy      =      -0.1909771518544581 [Eh]
	 SCS Opposite-Spin Energy  =      -1.9955078606739327 [Eh]
	 SCS Correlation Energy    =      -2.1864850125283910 [Eh]
	 SCS Total Energy          =    -541.7732407631249316 [Eh]
	-----------------------------------------------------------

  Dipole Moment: [D]
     X:     2.6753      Y:    -5.6379      Z:     0.8434     Total:     6.2972

*** Psi4 exiting successfully. Buy a developer a beer!
