                               Psi4 1.3.2 release

  ==> Input File <==

--------------------------------------------------------------------------
#psi4
#
memory 32 gb

molecule  {
0 1
  O        0.3045698     2.6937619    -0.0086048
  C        0.2089260     1.4725840     0.0042240
  N        1.4659430     0.7906670    -0.0052000
  C        1.6696020    -0.5667920     0.0018180
  N        0.7040600    -1.4531590     0.0111340
  C       -0.5247500    -0.8567100    -0.0036900
  C       -0.8535700     0.4975280     0.0150930
  N       -2.2178770     0.6874110     0.0132550
  C       -2.7081380    -0.5423290     0.0003530
  N       -1.7302440    -1.5082620    -0.0074590
  N        2.9897270    -0.9822980    -0.0798890
  H        2.2638450     1.4140280    -0.1046570
  H       -3.7608750    -0.7937900    -0.0035550
  H       -1.8528420    -2.5141400    -0.0211820
  H        3.0628590    -1.9839740     0.0678780
  H        3.6422020    -0.4648880     0.5003130
units angstrom
no_reorient  #important for SAPT in psi4, default
symmetry c1  #important for SAPT in psi4, default
}

set PROPERTIES_ORIGIN ["COM"]
properties('MP2/aug-cc-pvtz', properties = ['dipole'])
--------------------------------------------------------------------------

    Molecular point group: c1
  Charge       = 0
  Multiplicity = 1
  Basis Set: AUG-CC-PVTZ
    Blend: AUG-CC-PVTZ
  Basis Set: (AUG-CC-PVTZ AUX)
    Blend: AUG-CC-PVTZ-JKFIT

    Orbital Energies [Eh]
    ---------------------

    Doubly Occupied:

       1A    -20.523220     2A    -15.638255     3A    -15.626207
       4A    -15.610908     5A    -15.572552     6A    -15.567563
       7A    -11.396292     8A    -11.368591     9A    -11.331101
      10A    -11.316274    11A    -11.255609    12A     -1.395649
      13A     -1.363364    14A     -1.333865    15A     -1.218876
      16A     -1.215476    17A     -1.179748    18A     -1.033655
      19A     -0.907986    20A     -0.883071    21A     -0.847136
      22A     -0.798362    23A     -0.738946    24A     -0.729905
      25A     -0.700797    26A     -0.673538    27A     -0.656340
      28A     -0.633485    29A     -0.614632    30A     -0.603419
      31A     -0.597183    32A     -0.547984    33A     -0.500437
      34A     -0.461964    35A     -0.442242    36A     -0.436003
      37A     -0.429838    38A     -0.414370    39A     -0.305005

  @DF-RHF Final Energy:  -539.58560269361453

   => Energetics <=

    Nuclear Repulsion Energy =            593.6695022238843649
    One-Electron Energy =               -1912.7705127132101097
    Two-Electron Energy =                 779.5154077957112122
    Total Energy =                       -539.5856026936145327
  Basis Set: (AUG-CC-PVTZ AUX)
    Blend: AUG-CC-PVTZ-RI
    Molecular point group: c1

    Geometry (in Angstrom), charge = 0, multiplicity = 1:

       Center              X                  Y                   Z               Mass
    ------------   -----------------  -----------------  -----------------  -----------------
         O            0.313016692321     2.665727603528    -0.005716593007    15.994914619570
         C            0.217372892321     1.444549703528     0.007112206993    12.000000000000
         N            1.474389892321     0.762632703528    -0.002311793007    14.003074004430
         C            1.678048892321    -0.594826296472     0.004706206993    12.000000000000
         N            0.712506892321    -1.481193296472     0.014022206993    14.003074004430
         C           -0.516303107679    -0.884744296472    -0.000801793007    12.000000000000
         C           -0.845123107679     0.469493703528     0.017981206993    12.000000000000
         N           -2.209430107679     0.659376703528     0.016143206993    14.003074004430
         C           -2.699691107679    -0.570363296472     0.003241206993    12.000000000000
         N           -1.721797107679    -1.536296296472    -0.004570793007    14.003074004430
         N            2.998173892321    -1.010332296472    -0.077000793007    14.003074004430
         H            2.272291892321     1.385993703528    -0.101768793007     1.007825032230
         H           -3.752428107679    -0.821824296472    -0.000666793007     1.007825032230
         H           -1.844395107679    -2.542174296472    -0.018293793007     1.007825032230
         H            3.071305892321    -2.012008296472     0.070766206993     1.007825032230
         H            3.650648892321    -0.492922296472     0.503201206993     1.007825032230

  Basis Set: AUG-CC-PVTZ
    Blend: AUG-CC-PVTZ
  Basis Set: (AUG-CC-PVTZ AUX)
    Blend: AUG-CC-PVTZ-JKFIT
	 Reference Energy          =    -539.5856026936145327 [Eh]
	 Singles Energy            =      -0.0000000000000000 [Eh]
	 Same-Spin Energy          =      -0.5729020310668436 [Eh]
	 Opposite-Spin Energy      =      -1.6628354191703072 [Eh]
	 Correlation Energy        =      -2.2357374502371510 [Eh]
	 Total Energy              =    -541.8213401438516712 [Eh]

	 ================> DF-SCS-MP2 Energies <==================
	-----------------------------------------------------------
	 SCS Same-Spin Scale       =       0.3333333333333333 [-]
	 SCS Opposite-Spin Scale   =       1.2000000000000000 [-]
	 SCS Same-Spin Energy      =      -0.1909673436889479 [Eh]
	 SCS Opposite-Spin Energy  =      -1.9954025030043685 [Eh]
	 SCS Correlation Energy    =      -2.1863698466933164 [Eh]
	 SCS Total Energy          =    -541.7719725403078428 [Eh]
	-----------------------------------------------------------

  Dipole Moment: [D]
     X:     2.3835      Y:    -5.6731      Z:     0.8442     Total:     6.2111

*** Psi4 exiting successfully. Buy a developer a beer!
