                               Psi4 1.4a3.dev225

  ==> Input File <==

--------------------------------------------------------------------------
#psi4
#
memory 32 gb

molecule  {
0 1
  O        0.1763800     2.6970850    -0.0086780
  C        0.2088860     1.4725900     0.0042210
  N        1.4659360     0.7906750    -0.0050880
  C        1.6696170    -0.5667500     0.0018210
  N        0.7040680    -1.4531450     0.0111020
  C       -0.5247290    -0.8567090    -0.0037110
  C       -0.8535850     0.4975420     0.0152200
  N       -2.2178950     0.6873840     0.0133320
  C       -2.7081200    -0.5423560     0.0003580
  N       -1.7302140    -1.5082770    -0.0075250
  N        2.9897250    -0.9823190    -0.0798750
  H        2.2794832     1.4262909    -0.1068233
  H       -3.7608500    -0.7938460    -0.0035590
  H       -1.8527810    -2.5141570    -0.0214260
  H        3.0628080    -1.9839860     0.0679760
  H        3.6422460    -0.4648460     0.5002060
units angstrom
no_reorient  #important for SAPT in psi4, default
symmetry c1  #important for SAPT in psi4, default
}

set PROPERTIES_ORIGIN ["COM"]
properties('MP2/aug-cc-pvtz', properties = ['dipole'])
--------------------------------------------------------------------------

    Molecular point group: c1
  Charge       = 0
  Multiplicity = 1
  Basis Set: AUG-CC-PVTZ
    Blend: AUG-CC-PVTZ
  Basis Set: (AUG-CC-PVTZ AUX)
    Blend: AUG-CC-PVTZ-JKFIT

    Orbital Energies [Eh]
    ---------------------

    Doubly Occupied:

       1A    -20.524253     2A    -15.636151     3A    -15.633586
       4A    -15.612224     5A    -15.573500     6A    -15.565253
       7A    -11.398458     8A    -11.367938     9A    -11.327503
      10A    -11.314251    11A    -11.251437    12A     -1.393021
      13A     -1.360854    14A     -1.335429    15A     -1.220088
      16A     -1.217280    17A     -1.177894    18A     -1.031177
      19A     -0.906045    20A     -0.884243    21A     -0.844812
      22A     -0.798517    23A     -0.736727    24A     -0.730157
      25A     -0.700359    26A     -0.673058    27A     -0.656114
      28A     -0.633146    29A     -0.614545    30A     -0.600982
      31A     -0.596464    32A     -0.547779    33A     -0.499585
      34A     -0.462442    35A     -0.443100    36A     -0.433041
      37A     -0.432312    38A     -0.412133    39A     -0.302838

  @DF-RHF Final Energy:  -539.58646795785262

   => Energetics <=

    Nuclear Repulsion Energy =            593.5257738560319467
    One-Electron Energy =               -1912.5270896528465983
    Two-Electron Energy =                 779.4148478389620323
    Total Energy =                       -539.5864679578526193
  Basis Set: (AUG-CC-PVTZ AUX)
    Blend: AUG-CC-PVTZ-RI
    Molecular point group: c1

    Geometry (in Angstrom), charge = 0, multiplicity = 1:

       Center              X                  Y                   Z               Mass
    ------------   -----------------  -----------------  -----------------  -----------------
         O            0.198295350671     2.668618221892    -0.005784425443    15.994914619570
         C            0.230801350671     1.444123221892     0.007114574557    12.000000000000
         N            1.487851350671     0.762208221892    -0.002194425443    14.003074004430
         C            1.691532350671    -0.595216778108     0.004714574557    12.000000000000
         N            0.725983350671    -1.481611778108     0.013995574557    14.003074004430
         C           -0.502813649329    -0.885175778108    -0.000817425443    12.000000000000
         C           -0.831669649329     0.469075221892     0.018113574557    12.000000000000
         N           -2.195979649329     0.658917221892     0.016225574557    14.003074004430
         C           -2.686204649329    -0.570822778108     0.003251574557    12.000000000000
         N           -1.708298649329    -1.536743778108    -0.004631425443    14.003074004430
         N            3.011640350671    -1.010785778108    -0.076981425443    14.003074004430
         H            2.301398550671     1.397824121892    -0.103929725443     1.007825032230
         H           -3.738934649329    -0.822312778108    -0.000665425443     1.007825032230
         H           -1.830865649329    -2.542623778108    -0.018532425443     1.007825032230
         H            3.084723350671    -2.012452778108     0.070869574557     1.007825032230
         H            3.664161350671    -0.493312778108     0.503099574557     1.007825032230

  Basis Set: AUG-CC-PVTZ
    Blend: AUG-CC-PVTZ
  Basis Set: (AUG-CC-PVTZ AUX)
    Blend: AUG-CC-PVTZ-JKFIT
	 Reference Energy          =    -539.5864679578526193 [Eh]
	 Singles Energy            =      -0.0000000000000000 [Eh]
	 Same-Spin Energy          =      -0.5732128867103599 [Eh]
	 Opposite-Spin Energy      =      -1.6635705848103091 [Eh]
	 Correlation Energy        =      -2.2367834715206687 [Eh]
	 Total Energy              =    -541.8232514293732720 [Eh]

	 ================> DF-SCS-MP2 Energies <==================
	-----------------------------------------------------------
	 SCS Same-Spin Scale       =       0.3333333333333333 [-]
	 SCS Opposite-Spin Scale   =       1.2000000000000000 [-]
	 SCS Same-Spin Energy      =      -0.1910709622367866 [Eh]
	 SCS Opposite-Spin Energy  =      -1.9962847017723708 [Eh]
	 SCS Correlation Energy    =      -2.1873556640091576 [Eh]
	 SCS Total Energy          =    -541.7738236218617658 [Eh]
	-----------------------------------------------------------

  Dipole Moment: [D]
     X:     2.6848      Y:    -5.6196      Z:     0.8407     Total:     6.2845

*** Psi4 exiting successfully. Buy a developer a beer!
