                               Psi4 1.4a3.dev225

  ==> Input File <==

--------------------------------------------------------------------------
#psi4
#
memory 32 gb

molecule  {
0 1
  O        0.1763800     2.6970850    -0.0086780
  C        0.2088860     1.4725900     0.0042210
  N        1.4659360     0.7906750    -0.0050880
  C        1.6696170    -0.5667500     0.0018210
  N        0.7408999    -1.4193325     0.0107480
  C       -0.5247290    -0.8567090    -0.0037110
  C       -0.8535850     0.4975420     0.0152200
  N       -2.2178950     0.6873840     0.0133320
  C       -2.7081200    -0.5423560     0.0003580
  N       -1.7302140    -1.5082770    -0.0075250
  N        2.9897250    -0.9823190    -0.0798750
  H        2.2637990     1.4140370    -0.1048620
  H       -3.7608500    -0.7938460    -0.0035590
  H       -1.8527810    -2.5141570    -0.0214260
  H        3.0628080    -1.9839860     0.0679760
  H        3.6422460    -0.4648460     0.5002060
units angstrom
no_reorient  #important for SAPT in psi4, default
symmetry c1  #important for SAPT in psi4, default
}

set PROPERTIES_ORIGIN ["COM"]
properties('MP2/aug-cc-pvtz', properties = ['dipole'])
--------------------------------------------------------------------------

    Molecular point group: c1
  Charge       = 0
  Multiplicity = 1
  Basis Set: AUG-CC-PVTZ
    Blend: AUG-CC-PVTZ
  Basis Set: (AUG-CC-PVTZ AUX)
    Blend: AUG-CC-PVTZ-JKFIT

    Orbital Energies [Eh]
    ---------------------

    Doubly Occupied:

       1A    -20.524937     2A    -15.640988     3A    -15.626110
       4A    -15.605768     5A    -15.569475     6A    -15.567597
       7A    -11.386978     8A    -11.368277     9A    -11.330740
      10A    -11.316796    11A    -11.254316    12A     -1.394780
      13A     -1.362768    14A     -1.340068    15A     -1.219007
      16A     -1.216592    17A     -1.182104    18A     -1.035670
      19A     -0.908582    20A     -0.880562    21A     -0.847285
      22A     -0.802558    23A     -0.738968    24A     -0.730155
      25A     -0.698650    26A     -0.672442    27A     -0.657988
      28A     -0.637598    29A     -0.615208    30A     -0.602882
      31A     -0.598660    32A     -0.549146    33A     -0.497832
      34A     -0.460386    35A     -0.442290    36A     -0.434015
      37A     -0.430500    38A     -0.414458    39A     -0.308607

  @DF-RHF Final Energy:  -539.58724630362110

   => Energetics <=

    Nuclear Repulsion Energy =            594.4361463254541604
    One-Electron Energy =               -1914.3032949459611700
    Two-Electron Energy =                 780.2799023168860231
    Total Energy =                       -539.5872463036211002
  Basis Set: (AUG-CC-PVTZ AUX)
    Blend: AUG-CC-PVTZ-RI
    Molecular point group: c1

    Geometry (in Angstrom), charge = 0, multiplicity = 1:

       Center              X                  Y                   Z               Mass
    ------------   -----------------  -----------------  -----------------  -----------------
         O            0.194985487410     2.665565385385    -0.005764693880    15.994914619570
         C            0.227491487410     1.441070385385     0.007134306120    12.000000000000
         N            1.484541487410     0.759155385385    -0.002174693880    14.003074004430
         C            1.688222487410    -0.598269614615     0.004734306120    12.000000000000
         N            0.759505387410    -1.450852114615     0.013661306120    14.003074004430
         C           -0.506123512590    -0.888228614615    -0.000797693880    12.000000000000
         C           -0.834979512590     0.466022385385     0.018133306120    12.000000000000
         N           -2.199289512590     0.655864385385     0.016245306120    14.003074004430
         C           -2.689514512590    -0.573875614615     0.003271306120    12.000000000000
         N           -1.711608512590    -1.539796614615    -0.004611693880    14.003074004430
         N            3.008330487410    -1.013838614615    -0.076961693880    14.003074004430
         H            2.282404487410     1.382517385385    -0.101948693880     1.007825032230
         H           -3.742244512590    -0.825365614615    -0.000645693880     1.007825032230
         H           -1.834175512590    -2.545676614615    -0.018512693880     1.007825032230
         H            3.081413487410    -2.015505614615     0.070889306120     1.007825032230
         H            3.660851487410    -0.496365614615     0.503119306120     1.007825032230

  Basis Set: AUG-CC-PVTZ
    Blend: AUG-CC-PVTZ
  Basis Set: (AUG-CC-PVTZ AUX)
    Blend: AUG-CC-PVTZ-JKFIT
	 Reference Energy          =    -539.5872463036211002 [Eh]
	 Singles Energy            =      -0.0000000000000000 [Eh]
	 Same-Spin Energy          =      -0.5723324439796902 [Eh]
	 Opposite-Spin Energy      =      -1.6619757514293028 [Eh]
	 Correlation Energy        =      -2.2343081954089929 [Eh]
	 Total Energy              =    -541.8215544990300714 [Eh]

	 ================> DF-SCS-MP2 Energies <==================
	-----------------------------------------------------------
	 SCS Same-Spin Scale       =       0.3333333333333333 [-]
	 SCS Opposite-Spin Scale   =       1.2000000000000000 [-]
	 SCS Same-Spin Energy      =      -0.1907774813265634 [Eh]
	 SCS Opposite-Spin Energy  =      -1.9943709017151632 [Eh]
	 SCS Correlation Energy    =      -2.1851483830417266 [Eh]
	 SCS Total Energy          =    -541.7723946866627784 [Eh]
	-----------------------------------------------------------

  Dipole Moment: [D]
     X:     2.3856      Y:    -5.6998      Z:     0.8494     Total:     6.2371

*** Psi4 exiting successfully. Buy a developer a beer!
