                               Psi4 1.3.2 release

  ==> Input File <==

--------------------------------------------------------------------------
#psi4
#
memory 32 gb

molecule  {
0 1
  O        0.1763910     2.6970700    -0.0085580
  C        0.2089260     1.4725840     0.0042240
  N        1.4659430     0.7906670    -0.0052000
  C        1.6539852    -0.5500789     0.0014883
  N        0.7040600    -1.4531590     0.0111340
  C       -0.5247500    -0.8567100    -0.0036900
  C       -0.8535700     0.4975280     0.0150930
  N       -2.2178770     0.6874110     0.0132550
  C       -2.7081380    -0.5423290     0.0003530
  N       -1.7302440    -1.5082620    -0.0074590
  N        2.9897270    -0.9822980    -0.0798890
  H        2.2638450     1.4140280    -0.1046570
  H       -3.7608750    -0.7937900    -0.0035550
  H       -1.8528420    -2.5141400    -0.0211820
  H        3.0628590    -1.9839740     0.0678780
  H        3.6422020    -0.4648880     0.5003130
units angstrom
no_reorient  #important for SAPT in psi4, default
symmetry c1  #important for SAPT in psi4, default
}

set PROPERTIES_ORIGIN ["COM"]
properties('MP2/aug-cc-pvtz', properties = ['dipole'])
--------------------------------------------------------------------------

    Molecular point group: c1
  Charge       = 0
  Multiplicity = 1
  Basis Set: AUG-CC-PVTZ
    Blend: AUG-CC-PVTZ
  Basis Set: (AUG-CC-PVTZ AUX)
    Blend: AUG-CC-PVTZ-JKFIT

    Orbital Energies [Eh]
    ---------------------

    Doubly Occupied:

       1A    -20.525743     2A    -15.636547     3A    -15.634797
       4A    -15.609454     5A    -15.574200     6A    -15.565867
       7A    -11.397969     8A    -11.369265     9A    -11.328161
      10A    -11.314934    11A    -11.252169    12A     -1.396053
      13A     -1.361784    14A     -1.336367    15A     -1.222891
      16A     -1.214550    17A     -1.179248    18A     -1.032009
      19A     -0.908582    20A     -0.886930    21A     -0.845689
      22A     -0.799561    23A     -0.744084    24A     -0.725364
      25A     -0.699095    26A     -0.674311    27A     -0.657850
      28A     -0.630544    29A     -0.615752    30A     -0.602505
      31A     -0.597521    32A     -0.546710    33A     -0.501915
      34A     -0.461131    35A     -0.444751    36A     -0.434879
      37A     -0.434073    38A     -0.413015    39A     -0.303503

  @DF-RHF Final Energy:  -539.58711192046451

   => Energetics <=

    Nuclear Repulsion Energy =            593.9131856271739025
    One-Electron Energy =               -1913.2410536680599762
    Two-Electron Energy =                 779.7407561204216790
    Total Energy =                       -539.5871119204645083
  Basis Set: (AUG-CC-PVTZ AUX)
    Blend: AUG-CC-PVTZ-RI
    Molecular point group: c1

    Geometry (in Angstrom), charge = 0, multiplicity = 1:

       Center              X                  Y                   Z               Mass
    ------------   -----------------  -----------------  -----------------  -----------------
         O            0.199651657995     2.667357643499    -0.005648555996    15.994914619570
         C            0.232186657995     1.442871643499     0.007133444004    12.000000000000
         N            1.489203657995     0.760954643499    -0.002290555996    14.003074004430
         C            1.677245857995    -0.579791256501     0.004397744004    12.000000000000
         N            0.727320657995    -1.482871356501     0.014043444004    14.003074004430
         C           -0.501489342005    -0.886422356501    -0.000780555996    12.000000000000
         C           -0.830309342005     0.467815643499     0.018002444004    12.000000000000
         N           -2.194616342005     0.657698643499     0.016164444004    14.003074004430
         C           -2.684877342005    -0.572041356501     0.003262444004    12.000000000000
         N           -1.706983342005    -1.537974356501    -0.004549555996    14.003074004430
         N            3.012987657995    -1.012010356501    -0.076979555996    14.003074004430
         H            2.287105657995     1.384315643499    -0.101747555996     1.007825032230
         H           -3.737614342005    -0.823502356501    -0.000645555996     1.007825032230
         H           -1.829581342005    -2.543852356501    -0.018272555996     1.007825032230
         H            3.086119657995    -2.013686356501     0.070787444004     1.007825032230
         H            3.665462657995    -0.494600356501     0.503222444004     1.007825032230

  Basis Set: AUG-CC-PVTZ
    Blend: AUG-CC-PVTZ
  Basis Set: (AUG-CC-PVTZ AUX)
    Blend: AUG-CC-PVTZ-JKFIT
	 Reference Energy          =    -539.5871119204645083 [Eh]
	 Singles Energy            =      -0.0000000000000000 [Eh]
	 Same-Spin Energy          =      -0.5729819781055578 [Eh]
	 Opposite-Spin Energy      =      -1.6631995075215715 [Eh]
	 Correlation Energy        =      -2.2361814856271294 [Eh]
	 Total Energy              =    -541.8232934060916932 [Eh]

	 ================> DF-SCS-MP2 Energies <==================
	-----------------------------------------------------------
	 SCS Same-Spin Scale       =       0.3333333333333333 [-]
	 SCS Opposite-Spin Scale   =       1.2000000000000000 [-]
	 SCS Same-Spin Energy      =      -0.1909939927018526 [Eh]
	 SCS Opposite-Spin Energy  =      -1.9958394090258857 [Eh]
	 SCS Correlation Energy    =      -2.1868334017277382 [Eh]
	 SCS Total Energy          =    -541.7739453221922759 [Eh]
	-----------------------------------------------------------

  Dipole Moment: [D]
     X:     2.5355      Y:    -5.5359      Z:     0.8459     Total:     6.1474

*** Psi4 exiting successfully. Buy a developer a beer!
