                               Psi4 1.3.2 release

  ==> Input File <==

--------------------------------------------------------------------------
#psi4
#
memory 32 gb

molecule  {
0 1
  O        0.1763910     2.6970700    -0.0085580
  C        0.1647352     1.3836761     0.0145453
  N        1.4659430     0.7906670    -0.0052000
  C        1.6696020    -0.5667920     0.0018180
  N        0.7040600    -1.4531590     0.0111340
  C       -0.5247500    -0.8567100    -0.0036900
  C       -0.8535700     0.4975280     0.0150930
  N       -2.2178770     0.6874110     0.0132550
  C       -2.7081380    -0.5423290     0.0003530
  N       -1.7302440    -1.5082620    -0.0074590
  N        2.9897270    -0.9822980    -0.0798890
  H        2.2638450     1.4140280    -0.1046570
  H       -3.7608750    -0.7937900    -0.0035550
  H       -1.8528420    -2.5141400    -0.0211820
  H        3.0628590    -1.9839740     0.0678780
  H        3.6422020    -0.4648880     0.5003130
units angstrom
no_reorient  #important for SAPT in psi4, default
symmetry c1  #important for SAPT in psi4, default
}

set PROPERTIES_ORIGIN ["COM"]
properties('MP2/aug-cc-pvtz', properties = ['dipole'])
--------------------------------------------------------------------------

    Molecular point group: c1
  Charge       = 0
  Multiplicity = 1
  Basis Set: AUG-CC-PVTZ
    Blend: AUG-CC-PVTZ
  Basis Set: (AUG-CC-PVTZ AUX)
    Blend: AUG-CC-PVTZ-JKFIT

    Orbital Energies [Eh]
    ---------------------

    Doubly Occupied:

       1A    -20.501052     2A    -15.644354     3A    -15.637089
       4A    -15.615861     5A    -15.581157     6A    -15.572068
       7A    -11.402726     8A    -11.361373     9A    -11.341855
      10A    -11.323914    11A    -11.251525    12A     -1.388769
      13A     -1.352297    14A     -1.305775    15A     -1.225663
      16A     -1.212349    17A     -1.186868    18A     -1.052641
      19A     -0.923887    20A     -0.885673    21A     -0.853501
      22A     -0.803082    23A     -0.751457    24A     -0.736534
      25A     -0.703127    26A     -0.677254    27A     -0.662605
      28A     -0.641169    29A     -0.611622    30A     -0.601103
      31A     -0.573435    32A     -0.533035    33A     -0.505982
      34A     -0.466622    35A     -0.443279    36A     -0.424761
      37A     -0.417777    38A     -0.413359    39A     -0.311383

  @DF-RHF Final Energy:  -539.56553982152218

   => Energetics <=

    Nuclear Repulsion Energy =            594.4250066937635211
    One-Electron Energy =               -1914.1851260205773997
    Two-Electron Energy =                 780.1945795052915855
    Total Energy =                       -539.5655398215221794
  Basis Set: (AUG-CC-PVTZ AUX)
    Blend: AUG-CC-PVTZ-RI
    Molecular point group: c1

    Geometry (in Angstrom), charge = 0, multiplicity = 1:

       Center              X                  Y                   Z               Mass
    ------------   -----------------  -----------------  -----------------  -----------------
         O            0.201921696657     2.675748619681    -0.006494716204    15.994914619570
         C            0.190265896657     1.362354719681     0.016608583796    12.000000000000
         N            1.491473696657     0.769345619681    -0.003136716204    14.003074004430
         C            1.695132696657    -0.588113380319     0.003881283796    12.000000000000
         N            0.729590696657    -1.474480380319     0.013197283796    14.003074004430
         C           -0.499219303343    -0.878031380319    -0.001626716204    12.000000000000
         C           -0.828039303343     0.476206619681     0.017156283796    12.000000000000
         N           -2.192346303343     0.666089619681     0.015318283796    14.003074004430
         C           -2.682607303343    -0.563650380319     0.002416283796    12.000000000000
         N           -1.704713303343    -1.529583380319    -0.005395716204    14.003074004430
         N            3.015257696657    -1.003619380319    -0.077825716204    14.003074004430
         H            2.289375696657     1.392706619681    -0.102593716204     1.007825032230
         H           -3.735344303343    -0.815111380319    -0.001491716204     1.007825032230
         H           -1.827311303343    -2.535461380319    -0.019118716204     1.007825032230
         H            3.088389696657    -2.005295380319     0.069941283796     1.007825032230
         H            3.667732696657    -0.486209380319     0.502376283796     1.007825032230

  Basis Set: AUG-CC-PVTZ
    Blend: AUG-CC-PVTZ
  Basis Set: (AUG-CC-PVTZ AUX)
    Blend: AUG-CC-PVTZ-JKFIT
	 Reference Energy          =    -539.5655398215221794 [Eh]
	 Singles Energy            =      -0.0000000000000000 [Eh]
	 Same-Spin Energy          =      -0.5748872911201177 [Eh]
	 Opposite-Spin Energy      =      -1.6667068581170184 [Eh]
	 Correlation Energy        =      -2.2415941492371361 [Eh]
	 Total Energy              =    -541.8071339707593097 [Eh]

	 ================> DF-SCS-MP2 Energies <==================
	-----------------------------------------------------------
	 SCS Same-Spin Scale       =       0.3333333333333333 [-]
	 SCS Opposite-Spin Scale   =       1.2000000000000000 [-]
	 SCS Same-Spin Energy      =      -0.1916290970400392 [Eh]
	 SCS Opposite-Spin Energy  =      -2.0000482297404218 [Eh]
	 SCS Correlation Energy    =      -2.1916773267804612 [Eh]
	 SCS Total Energy          =    -541.7572171483026295 [Eh]
	-----------------------------------------------------------

  Dipole Moment: [D]
     X:     2.4862      Y:    -6.5007      Z:     0.8533     Total:     7.0120

*** Psi4 exiting successfully. Buy a developer a beer!
