                               Psi4 1.3.2 release

  ==> Input File <==

--------------------------------------------------------------------------
#psi4
#
memory 32 gb

molecule  {
0 1
  O        0.0910498     2.6918184    -0.0084489
  C        0.2089260     1.4725840     0.0042240
  N        1.4659430     0.7906670    -0.0052000
  C        1.6696020    -0.5667920     0.0018180
  N        0.7040600    -1.4531590     0.0111340
  C       -0.5247500    -0.8567100    -0.0036900
  C       -0.8535700     0.4975280     0.0150930
  N       -2.2178770     0.6874110     0.0132550
  C       -2.7081380    -0.5423290     0.0003530
  N       -1.7302440    -1.5082620    -0.0074590
  N        2.9897270    -0.9822980    -0.0798890
  H        2.2638450     1.4140280    -0.1046570
  H       -3.7608750    -0.7937900    -0.0035550
  H       -1.8528420    -2.5141400    -0.0211820
  H        3.0628590    -1.9839740     0.0678780
  H        3.6422020    -0.4648880     0.5003130
units angstrom
no_reorient  #important for SAPT in psi4, default
symmetry c1  #important for SAPT in psi4, default
}

set PROPERTIES_ORIGIN ["COM"]
properties('MP2/aug-cc-pvtz', properties = ['dipole'])
--------------------------------------------------------------------------

    Molecular point group: c1
  Charge       = 0
  Multiplicity = 1
  Basis Set: AUG-CC-PVTZ
    Blend: AUG-CC-PVTZ
  Basis Set: (AUG-CC-PVTZ AUX)
    Blend: AUG-CC-PVTZ-JKFIT

    Orbital Energies [Eh]
    ---------------------

    Doubly Occupied:

       1A    -20.524988     2A    -15.635620     3A    -15.634742
       4A    -15.613199     5A    -15.574124     6A    -15.563670
       7A    -11.399815     8A    -11.367823     9A    -11.325046
      10A    -11.312918    11A    -11.248636    12A     -1.392637
      13A     -1.359479    14A     -1.336975    15A     -1.223169
      16A     -1.218657    17A     -1.176977    18A     -1.029672
      19A     -0.906140    20A     -0.886441    21A     -0.843417
      22A     -0.799536    23A     -0.741289    24A     -0.730323
      25A     -0.700617    26A     -0.672881    27A     -0.656365
      28A     -0.633961    29A     -0.614469    30A     -0.599968
      31A     -0.596036    32A     -0.547999    33A     -0.499364
      34A     -0.462933    35A     -0.443173    36A     -0.434376
      37A     -0.430575    38A     -0.410517    39A     -0.301350

  @DF-RHF Final Energy:  -539.58579860098928

   => Energetics <=

    Nuclear Repulsion Energy =            593.7854688285935936
    One-Electron Energy =               -1913.0427787371409067
    Two-Electron Energy =                 779.6715113075580348
    Total Energy =                       -539.5857986009892784
  Basis Set: (AUG-CC-PVTZ AUX)
    Blend: AUG-CC-PVTZ-RI
    Molecular point group: c1

    Geometry (in Angstrom), charge = 0, multiplicity = 1:

       Center              X                  Y                   Z               Mass
    ------------   -----------------  -----------------  -----------------  -----------------
         O            0.122106738756     2.663989904508    -0.005577201560    15.994914619570
         C            0.239982938756     1.444755504508     0.007095698440    12.000000000000
         N            1.496999938756     0.762838504508    -0.002328301560    14.003074004430
         C            1.700658938756    -0.594620495492     0.004689698440    12.000000000000
         N            0.735116938756    -1.480987495492     0.014005698440    14.003074004430
         C           -0.493693061244    -0.884538495492    -0.000818301560    12.000000000000
         C           -0.822513061244     0.469699504508     0.017964698440    12.000000000000
         N           -2.186820061244     0.659582504508     0.016126698440    14.003074004430
         C           -2.677081061244    -0.570157495492     0.003224698440    12.000000000000
         N           -1.699187061244    -1.536090495492    -0.004587301560    14.003074004430
         N            3.020783938756    -1.010126495492    -0.077017301560    14.003074004430
         H            2.294901938756     1.386199504508    -0.101785301560     1.007825032230
         H           -3.729818061244    -0.821618495492    -0.000683301560     1.007825032230
         H           -1.821785061244    -2.541968495492    -0.018310301560     1.007825032230
         H            3.093915938756    -2.011802495492     0.070749698440     1.007825032230
         H            3.673258938756    -0.492716495492     0.503184698440     1.007825032230

  Basis Set: AUG-CC-PVTZ
    Blend: AUG-CC-PVTZ
  Basis Set: (AUG-CC-PVTZ AUX)
    Blend: AUG-CC-PVTZ-JKFIT
	 Reference Energy          =    -539.5857986009892784 [Eh]
	 Singles Energy            =      -0.0000000000000000 [Eh]
	 Same-Spin Energy          =      -0.5732427279331908 [Eh]
	 Opposite-Spin Energy      =      -1.6636493510751529 [Eh]
	 Correlation Energy        =      -2.2368920790083435 [Eh]
	 Total Energy              =    -541.8226906799976632 [Eh]

	 ================> DF-SCS-MP2 Energies <==================
	-----------------------------------------------------------
	 SCS Same-Spin Scale       =       0.3333333333333333 [-]
	 SCS Opposite-Spin Scale   =       1.2000000000000000 [-]
	 SCS Same-Spin Energy      =      -0.1910809093110636 [Eh]
	 SCS Opposite-Spin Energy  =      -1.9963792212901834 [Eh]
	 SCS Correlation Energy    =      -2.1874601306012469 [Eh]
	 SCS Total Energy          =    -541.7732587315905448 [Eh]
	-----------------------------------------------------------

  Dipole Moment: [D]
     X:     2.8551      Y:    -5.5852      Z:     0.8437     Total:     6.3291

*** Psi4 exiting successfully. Buy a developer a beer!
