                               Psi4 1.3.2 release

  ==> Input File <==

--------------------------------------------------------------------------
#psi4
#
memory 32 gb

molecule  {
0 1
  O        0.1763910     2.6970700    -0.0085580
  C        0.2089260     1.4725840     0.0042240
  N        1.4659430     0.7906670    -0.0052000
  C        1.6696020    -0.5667920     0.0018180
  N        0.7040600    -1.4531590     0.0111340
  C       -0.5135628    -0.8778454    -0.0040409
  C       -0.8535700     0.4975280     0.0150930
  N       -2.2178770     0.6874110     0.0132550
  C       -2.7081380    -0.5423290     0.0003530
  N       -1.7302440    -1.5082620    -0.0074590
  N        2.9897270    -0.9822980    -0.0798890
  H        2.2638450     1.4140280    -0.1046570
  H       -3.7608750    -0.7937900    -0.0035550
  H       -1.8528420    -2.5141400    -0.0211820
  H        3.0628590    -1.9839740     0.0678780
  H        3.6422020    -0.4648880     0.5003130
units angstrom
no_reorient  #important for SAPT in psi4, default
symmetry c1  #important for SAPT in psi4, default
}

set PROPERTIES_ORIGIN ["COM"]
properties('MP2/aug-cc-pvtz', properties = ['dipole'])
--------------------------------------------------------------------------

    Molecular point group: c1
  Charge       = 0
  Multiplicity = 1
  Basis Set: AUG-CC-PVTZ
    Blend: AUG-CC-PVTZ
  Basis Set: (AUG-CC-PVTZ AUX)
    Blend: AUG-CC-PVTZ-JKFIT

    Orbital Energies [Eh]
    ---------------------

    Doubly Occupied:

       1A    -20.522335     2A    -15.636707     3A    -15.632720
       4A    -15.613525     5A    -15.574038     6A    -15.565833
       7A    -11.400497     8A    -11.366411     9A    -11.329878
      10A    -11.313683    11A    -11.252090    12A     -1.393083
      13A     -1.360113    14A     -1.336359    15A     -1.223326
      16A     -1.221016    17A     -1.178700    18A     -1.027969
      19A     -0.907081    20A     -0.887849    21A     -0.843433
      22A     -0.800935    23A     -0.741012    24A     -0.731600
      25A     -0.699452    26A     -0.670698    27A     -0.656878
      28A     -0.637617    29A     -0.613128    30A     -0.600699
      31A     -0.596344    32A     -0.548196    33A     -0.500283
      34A     -0.464843    35A     -0.442562    36A     -0.433696
      37A     -0.431045    38A     -0.411746    39A     -0.298840

  @DF-RHF Final Energy:  -539.58596826553810

   => Energetics <=

    Nuclear Repulsion Energy =            593.4686259993707154
    One-Electron Energy =               -1912.3767459522175614
    Two-Electron Energy =                 779.3221516873087467
    Total Energy =                       -539.5859682655380993
  Basis Set: (AUG-CC-PVTZ AUX)
    Blend: AUG-CC-PVTZ-RI
    Molecular point group: c1

    Geometry (in Angstrom), charge = 0, multiplicity = 1:

       Center              X                  Y                   Z               Mass
    ------------   -----------------  -----------------  -----------------  -----------------
         O            0.197522235574     2.670364487422    -0.005646871779    15.994914619570
         C            0.230057235574     1.445878487422     0.007135128221    12.000000000000
         N            1.487074235574     0.763961487422    -0.002288871779    14.003074004430
         C            1.690733235574    -0.593497512578     0.004729128221    12.000000000000
         N            0.725191235574    -1.479864512578     0.014045128221    14.003074004430
         C           -0.492431564426    -0.904550912578    -0.001129771779    12.000000000000
         C           -0.832438764426     0.470822487422     0.018004128221    12.000000000000
         N           -2.196745764426     0.660705487422     0.016166128221    14.003074004430
         C           -2.687006764426    -0.569034512578     0.003264128221    12.000000000000
         N           -1.709112764426    -1.534967512578    -0.004547871779    14.003074004430
         N            3.010858235574    -1.009003512578    -0.076977871779    14.003074004430
         H            2.284976235574     1.387322487422    -0.101745871779     1.007825032230
         H           -3.739743764426    -0.820495512578    -0.000643871779     1.007825032230
         H           -1.831710764426    -2.540845512578    -0.018270871779     1.007825032230
         H            3.083990235574    -2.010679512578     0.070789128221     1.007825032230
         H            3.663333235574    -0.491593512578     0.503224128221     1.007825032230

  Basis Set: AUG-CC-PVTZ
    Blend: AUG-CC-PVTZ
  Basis Set: (AUG-CC-PVTZ AUX)
    Blend: AUG-CC-PVTZ-JKFIT
	 Reference Energy          =    -539.5859682655380993 [Eh]
	 Singles Energy            =      -0.0000000000000000 [Eh]
	 Same-Spin Energy          =      -0.5735593506120276 [Eh]
	 Opposite-Spin Energy      =      -1.6634723439518444 [Eh]
	 Correlation Energy        =      -2.2370316945638722 [Eh]
	 Total Energy              =    -541.8229999601019244 [Eh]

	 ================> DF-SCS-MP2 Energies <==================
	-----------------------------------------------------------
	 SCS Same-Spin Scale       =       0.3333333333333333 [-]
	 SCS Opposite-Spin Scale   =       1.2000000000000000 [-]
	 SCS Same-Spin Energy      =      -0.1911864502040092 [Eh]
	 SCS Opposite-Spin Energy  =      -1.9961668127422132 [Eh]
	 SCS Correlation Energy    =      -2.1873532629462225 [Eh]
	 SCS Total Energy          =    -541.7733215284843027 [Eh]
	-----------------------------------------------------------

  Dipole Moment: [D]
     X:     2.7032      Y:    -5.6957      Z:     0.8439     Total:     6.3609

*** Psi4 exiting successfully. Buy a developer a beer!
