                               Psi4 1.3.2 release

  ==> Input File <==

--------------------------------------------------------------------------
#psi4
#
memory 32 gb

molecule  {
0 1
  O        0.1763910     2.6970700    -0.0085580
  C        0.2089260     1.4725840     0.0042240
  N        1.4659430     0.7906670    -0.0052000
  C        1.6696020    -0.5667920     0.0018180
  N        0.7040600    -1.4531590     0.0111340
  C       -0.5482235    -0.8150370    -0.0033680
  C       -0.8535700     0.4975280     0.0150930
  N       -2.2178770     0.6874110     0.0132550
  C       -2.7081380    -0.5423290     0.0003530
  N       -1.7302440    -1.5082620    -0.0074590
  N        2.9897270    -0.9822980    -0.0798890
  H        2.2638450     1.4140280    -0.1046570
  H       -3.7608750    -0.7937900    -0.0035550
  H       -1.8528420    -2.5141400    -0.0211820
  H        3.0628590    -1.9839740     0.0678780
  H        3.6422020    -0.4648880     0.5003130
units angstrom
no_reorient  #important for SAPT in psi4, default
symmetry c1  #important for SAPT in psi4, default
}

set PROPERTIES_ORIGIN ["COM"]
properties('MP2/aug-cc-pvtz', properties = ['dipole'])
--------------------------------------------------------------------------

    Molecular point group: c1
  Charge       = 0
  Multiplicity = 1
  Basis Set: AUG-CC-PVTZ
    Blend: AUG-CC-PVTZ
  Basis Set: (AUG-CC-PVTZ AUX)
    Blend: AUG-CC-PVTZ-JKFIT

    Orbital Energies [Eh]
    ---------------------

    Doubly Occupied:

       1A    -20.528518     2A    -15.635189     3A    -15.630666
       4A    -15.610241     5A    -15.572761     6A    -15.564218
       7A    -11.395002     8A    -11.371208     9A    -11.322764
      10A    -11.315544    11A    -11.249677    12A     -1.394961
      13A     -1.363133    14A     -1.334650    15A     -1.219998
      16A     -1.209293    17A     -1.177256    18A     -1.038498
      19A     -0.907279    20A     -0.879990    21A     -0.847800
      22A     -0.795471    23A     -0.739598    24A     -0.727828
      25A     -0.704705    26A     -0.677063    27A     -0.655814
      28A     -0.625837    29A     -0.617227    30A     -0.602888
      31A     -0.597008    32A     -0.547445    33A     -0.498567
      34A     -0.458667    35A     -0.444283    36A     -0.436355
      37A     -0.430235    38A     -0.413432    39A     -0.311195

  @DF-RHF Final Energy:  -539.58583310178847

   => Energetics <=

    Nuclear Repulsion Energy =            594.0458683886298559
    One-Electron Energy =               -1913.5588790208951195
    Two-Electron Energy =                 779.9271775304769108
    Total Energy =                       -539.5858331017884666
  Basis Set: (AUG-CC-PVTZ AUX)
    Blend: AUG-CC-PVTZ-RI
    Molecular point group: c1

    Geometry (in Angstrom), charge = 0, multiplicity = 1:

       Center              X                  Y                   Z               Mass
    ------------   -----------------  -----------------  -----------------  -----------------
         O            0.200275827266     2.665374724132    -0.005700329783    15.994914619570
         C            0.232810827266     1.440888724132     0.007081670217    12.000000000000
         N            1.489827827266     0.758971724132    -0.002342329783    14.003074004430
         C            1.693486827266    -0.598487275868     0.004675670217    12.000000000000
         N            0.727944827266    -1.484854275868     0.013991670217    14.003074004430
         C           -0.524338672734    -0.846732275868    -0.000510329783    12.000000000000
         C           -0.829685172734     0.465832724132     0.017950670217    12.000000000000
         N           -2.193992172734     0.655715724132     0.016112670217    14.003074004430
         C           -2.684253172734    -0.574024275868     0.003210670217    12.000000000000
         N           -1.706359172734    -1.539957275868    -0.004601329783    14.003074004430
         N            3.013611827266    -1.013993275868    -0.077031329783    14.003074004430
         H            2.287729827266     1.382332724132    -0.101799329783     1.007825032230
         H           -3.736990172734    -0.825485275868    -0.000697329783     1.007825032230
         H           -1.828957172734    -2.545835275868    -0.018324329783     1.007825032230
         H            3.086743827266    -2.015669275868     0.070735670217     1.007825032230
         H            3.666086827266    -0.496583275868     0.503170670217     1.007825032230

  Basis Set: AUG-CC-PVTZ
    Blend: AUG-CC-PVTZ
  Basis Set: (AUG-CC-PVTZ AUX)
    Blend: AUG-CC-PVTZ-JKFIT
	 Reference Energy          =    -539.5858331017884666 [Eh]
	 Singles Energy            =      -0.0000000000000000 [Eh]
	 Same-Spin Energy          =      -0.5720802299359909 [Eh]
	 Opposite-Spin Energy      =      -1.6628775442344590 [Eh]
	 Correlation Energy        =      -2.2349577741704501 [Eh]
	 Total Energy              =    -541.8207908759588918 [Eh]

	 ================> DF-SCS-MP2 Energies <==================
	-----------------------------------------------------------
	 SCS Same-Spin Scale       =       0.3333333333333333 [-]
	 SCS Opposite-Spin Scale   =       1.2000000000000000 [-]
	 SCS Same-Spin Energy      =      -0.1906934099786636 [Eh]
	 SCS Opposite-Spin Energy  =      -1.9954530530813508 [Eh]
	 SCS Correlation Energy    =      -2.1861464630600143 [Eh]
	 SCS Total Energy          =    -541.7719795648484933 [Eh]
	-----------------------------------------------------------

  Dipole Moment: [D]
     X:     2.5980      Y:    -5.5117      Z:     0.8440     Total:     6.1515

*** Psi4 exiting successfully. Buy a developer a beer!
