                               Psi4 1.4a3.dev225

  ==> Input File <==

--------------------------------------------------------------------------
#psi4
#
memory 32 gb

molecule  {
0 1
  O        0.1763800     2.6970850    -0.0086780
  C        0.2088860     1.4725900     0.0042210
  N        1.4659360     0.7906750    -0.0050880
  C        1.6696170    -0.5667500     0.0018210
  N        0.6672361    -1.4869575     0.0114560
  C       -0.5247290    -0.8567090    -0.0037110
  C       -0.8535850     0.4975420     0.0152200
  N       -2.2178950     0.6873840     0.0133320
  C       -2.7081200    -0.5423560     0.0003580
  N       -1.7302140    -1.5082770    -0.0075250
  N        2.9897250    -0.9823190    -0.0798750
  H        2.2637990     1.4140370    -0.1048620
  H       -3.7608500    -0.7938460    -0.0035590
  H       -1.8527810    -2.5141570    -0.0214260
  H        3.0628080    -1.9839860     0.0679760
  H        3.6422460    -0.4648460     0.5002060
units angstrom
no_reorient  #important for SAPT in psi4, default
symmetry c1  #important for SAPT in psi4, default
}

set PROPERTIES_ORIGIN ["COM"]
properties('MP2/aug-cc-pvtz', properties = ['dipole'])
--------------------------------------------------------------------------

    Molecular point group: c1
  Charge       = 0
  Multiplicity = 1
  Basis Set: AUG-CC-PVTZ
    Blend: AUG-CC-PVTZ
  Basis Set: (AUG-CC-PVTZ AUX)
    Blend: AUG-CC-PVTZ-JKFIT

    Orbital Energies [Eh]
    ---------------------

    Doubly Occupied:

       1A    -20.523885     2A    -15.637613     3A    -15.631465
       4A    -15.618676     5A    -15.577327     6A    -15.563051
       7A    -11.409164     8A    -11.367709     9A    -11.324635
      10A    -11.311928    11A    -11.248754    12A     -1.392861
      13A     -1.359312    14A     -1.333064    15A     -1.224600
      16A     -1.218122    17A     -1.174327    18A     -1.027194
      19A     -0.904967    20A     -0.889722    21A     -0.842613
      22A     -0.795890    23A     -0.741770    24A     -0.730421
      25A     -0.702592    26A     -0.673800    27A     -0.654954
      28A     -0.629553    29A     -0.613996    30A     -0.600094
      31A     -0.595009    32A     -0.547033    33A     -0.501781
      34A     -0.464610    35A     -0.443692    36A     -0.434934
      37A     -0.432040    38A     -0.410062    39A     -0.297535

  @DF-RHF Final Energy:  -539.58205196748418

   => Energetics <=

    Nuclear Repulsion Energy =            592.9219008994508613
    One-Electron Energy =               -1911.3063993567980106
    Two-Electron Energy =                 778.8024464898628594
    Total Energy =                       -539.5820519674841762
  Basis Set: (AUG-CC-PVTZ AUX)
    Blend: AUG-CC-PVTZ-RI
    Molecular point group: c1

    Geometry (in Angstrom), charge = 0, multiplicity = 1:

       Center              X                  Y                   Z               Mass
    ------------   -----------------  -----------------  -----------------  -----------------
         O            0.201814508750     2.671834578233    -0.005830329200    15.994914619570
         C            0.234320508750     1.447339578233     0.007068670800    12.000000000000
         N            1.491370508750     0.765424578233    -0.002240329200    14.003074004430
         C            1.695051508750    -0.592000421767     0.004668670800    12.000000000000
         N            0.692670608750    -1.512207921767     0.014303670800    14.003074004430
         C           -0.499294491250    -0.881959421767    -0.000863329200    12.000000000000
         C           -0.828150491250     0.472291578233     0.018067670800    12.000000000000
         N           -2.192460491250     0.662133578233     0.016179670800    14.003074004430
         C           -2.682685491250    -0.567606421767     0.003205670800    12.000000000000
         N           -1.704779491250    -1.533527421767    -0.004677329200    14.003074004430
         N            3.015159508750    -1.007569421767    -0.077027329200    14.003074004430
         H            2.289233508750     1.388786578233    -0.102014329200     1.007825032230
         H           -3.735415491250    -0.819096421767    -0.000711329200     1.007825032230
         H           -1.827346491250    -2.539407421767    -0.018578329200     1.007825032230
         H            3.088242508750    -2.009236421767     0.070823670800     1.007825032230
         H            3.667680508750    -0.490096421767     0.503053670800     1.007825032230

  Basis Set: AUG-CC-PVTZ
    Blend: AUG-CC-PVTZ
  Basis Set: (AUG-CC-PVTZ AUX)
    Blend: AUG-CC-PVTZ-JKFIT
	 Reference Energy          =    -539.5820519674841762 [Eh]
	 Singles Energy            =      -0.0000000000000000 [Eh]
	 Same-Spin Energy          =      -0.5737165704717722 [Eh]
	 Opposite-Spin Energy      =      -1.6645266495450222 [Eh]
	 Correlation Energy        =      -2.2382432200167943 [Eh]
	 Total Energy              =    -541.8202951875009603 [Eh]

	 ================> DF-SCS-MP2 Energies <==================
	-----------------------------------------------------------
	 SCS Same-Spin Scale       =       0.3333333333333333 [-]
	 SCS Opposite-Spin Scale   =       1.2000000000000000 [-]
	 SCS Same-Spin Energy      =      -0.1912388568239241 [Eh]
	 SCS Opposite-Spin Energy  =      -1.9974319794540265 [Eh]
	 SCS Correlation Energy    =      -2.1886708362779506 [Eh]
	 SCS Total Energy          =    -541.7707228037621690 [Eh]
	-----------------------------------------------------------

  Dipole Moment: [D]
     X:     2.9367      Y:    -5.5793      Z:     0.8379     Total:     6.3605

*** Psi4 exiting successfully. Buy a developer a beer!
