                               Psi4 1.3.2 release

  ==> Input File <==

--------------------------------------------------------------------------
#psi4
#
memory 32 gb

molecule  {
0 1
  O        0.1763910     2.6970700    -0.0085580
  C        0.2089260     1.4725840     0.0042240
  N        1.4659430     0.7906670    -0.0052000
  C        1.6696020    -0.5667920     0.0018180
  N        0.7040600    -1.4531590     0.0111340
  C       -0.4632471    -0.9862840    -0.0046819
  C       -0.8535700     0.4975280     0.0150930
  N       -2.2178770     0.6874110     0.0132550
  C       -2.7081380    -0.5423290     0.0003530
  N       -1.7302440    -1.5082620    -0.0074590
  N        2.9897270    -0.9822980    -0.0798890
  H        2.2638450     1.4140280    -0.1046570
  H       -3.7608750    -0.7937900    -0.0035550
  H       -1.8528420    -2.5141400    -0.0211820
  H        3.0628590    -1.9839740     0.0678780
  H        3.6422020    -0.4648880     0.5003130
units angstrom
no_reorient  #important for SAPT in psi4, default
symmetry c1  #important for SAPT in psi4, default
}

set PROPERTIES_ORIGIN ["COM"]
properties('MP2/aug-cc-pvtz', properties = ['dipole'])
--------------------------------------------------------------------------

    Molecular point group: c1
  Charge       = 0
  Multiplicity = 1
  Basis Set: AUG-CC-PVTZ
    Blend: AUG-CC-PVTZ
  Basis Set: (AUG-CC-PVTZ AUX)
    Blend: AUG-CC-PVTZ-JKFIT

    Orbital Energies [Eh]
    ---------------------

    Doubly Occupied:

       1A    -20.511945     2A    -15.638463     3A    -15.636893
       4A    -15.619710     5A    -15.576302     6A    -15.567790
       7A    -11.410572     8A    -11.358201     9A    -11.339643
      10A    -11.310305    11A    -11.252166    12A     -1.393865
      13A     -1.357774    14A     -1.336692    15A     -1.247537
      16A     -1.223488    17A     -1.180285    18A     -1.013335
      19A     -0.915471    20A     -0.896215    21A     -0.834855
      22A     -0.808000    23A     -0.745777    24A     -0.738111
      25A     -0.699333    26A     -0.666024    27A     -0.657952
      28A     -0.644934    29A     -0.606044    30A     -0.596622
      31A     -0.593940    32A     -0.549712    33A     -0.500811
      34A     -0.478170    35A     -0.437574    36A     -0.436219
      37A     -0.417088    38A     -0.409734    39A     -0.279549

  @DF-RHF Final Energy:  -539.55546191614349

   => Energetics <=

    Nuclear Repulsion Energy =            592.6082970735357094
    One-Electron Energy =               -1910.5533150574256069
    Two-Electron Energy =                 778.3895560677465255
    Total Energy =                       -539.5554619161434857
  Basis Set: (AUG-CC-PVTZ AUX)
    Blend: AUG-CC-PVTZ-RI
    Molecular point group: c1

    Geometry (in Angstrom), charge = 0, multiplicity = 1:

       Center              X                  Y                   Z               Mass
    ------------   -----------------  -----------------  -----------------  -----------------
         O            0.193524944881     2.678979305591    -0.005595948044    15.994914619570
         C            0.226059944881     1.454493305591     0.007186051956    12.000000000000
         N            1.483076944881     0.772576305591    -0.002237948044    14.003074004430
         C            1.686735944881    -0.584882694409     0.004780051956    12.000000000000
         N            0.721193944881    -1.471249694409     0.014096051956    14.003074004430
         C           -0.446113155119    -1.004374694409    -0.001719848044    12.000000000000
         C           -0.836436055119     0.479437305591     0.018055051956    12.000000000000
         N           -2.200743055119     0.669320305591     0.016217051956    14.003074004430
         C           -2.691004055119    -0.560419694409     0.003315051956    12.000000000000
         N           -1.713110055119    -1.526352694409    -0.004496948044    14.003074004430
         N            3.006860944881    -1.000388694409    -0.076926948044    14.003074004430
         H            2.280978944881     1.395937305591    -0.101694948044     1.007825032230
         H           -3.743741055119    -0.811880694409    -0.000592948044     1.007825032230
         H           -1.835708055119    -2.532230694409    -0.018219948044     1.007825032230
         H            3.079992944881    -2.002064694409     0.070840051956     1.007825032230
         H            3.659335944881    -0.482978694409     0.503275051956     1.007825032230

  Basis Set: AUG-CC-PVTZ
    Blend: AUG-CC-PVTZ
  Basis Set: (AUG-CC-PVTZ AUX)
    Blend: AUG-CC-PVTZ-JKFIT
	 Reference Energy          =    -539.5554619161434857 [Eh]
	 Singles Energy            =      -0.0000000000000000 [Eh]
	 Same-Spin Energy          =      -0.5765260988840363 [Eh]
	 Opposite-Spin Energy      =      -1.6659360130541845 [Eh]
	 Correlation Energy        =      -2.2424621119382206 [Eh]
	 Total Energy              =    -541.7979240280817521 [Eh]

	 ================> DF-SCS-MP2 Energies <==================
	-----------------------------------------------------------
	 SCS Same-Spin Scale       =       0.3333333333333333 [-]
	 SCS Opposite-Spin Scale   =       1.2000000000000000 [-]
	 SCS Same-Spin Energy      =      -0.1921753662946787 [Eh]
	 SCS Opposite-Spin Energy  =      -1.9991232156650214 [Eh]
	 SCS Correlation Energy    =      -2.1912985819597002 [Eh]
	 SCS Total Energy          =    -541.7467604981031855 [Eh]
	-----------------------------------------------------------

  Dipole Moment: [D]
     X:     2.8659      Y:    -6.0018      Z:     0.8440     Total:     6.7043

*** Psi4 exiting successfully. Buy a developer a beer!
