                               Psi4 1.3.2 release

  ==> Input File <==

--------------------------------------------------------------------------
#psi4
#
memory 32 gb

molecule  {
0 1
  O        0.1763910     2.6970700    -0.0085580
  C        0.2089260     1.4725840     0.0042240
  N        1.4659430     0.7906670    -0.0052000
  C        1.6696020    -0.5667920     0.0018180
  N        0.7040600    -1.4531590     0.0111340
  C       -0.5247500    -0.8567100    -0.0036900
  C       -0.8535700     0.4975280     0.0150930
  N       -2.1332843     0.6502171     0.0129973
  C       -2.7081380    -0.5423290     0.0003530
  N       -1.7302440    -1.5082620    -0.0074590
  N        2.9897270    -0.9822980    -0.0798890
  H        2.2638450     1.4140280    -0.1046570
  H       -3.7608750    -0.7937900    -0.0035550
  H       -1.8528420    -2.5141400    -0.0211820
  H        3.0628590    -1.9839740     0.0678780
  H        3.6422020    -0.4648880     0.5003130
units angstrom
no_reorient  #important for SAPT in psi4, default
symmetry c1  #important for SAPT in psi4, default
}

set PROPERTIES_ORIGIN ["COM"]
properties('MP2/aug-cc-pvtz', properties = ['dipole'])
--------------------------------------------------------------------------

    Molecular point group: c1
  Charge       = 0
  Multiplicity = 1
  Basis Set: AUG-CC-PVTZ
    Blend: AUG-CC-PVTZ
  Basis Set: (AUG-CC-PVTZ AUX)
    Blend: AUG-CC-PVTZ-JKFIT

    Orbital Energies [Eh]
    ---------------------

    Doubly Occupied:

       1A    -20.526643     2A    -15.636051     3A    -15.631276
       4A    -15.610578     5A    -15.570907     6A    -15.554230
       7A    -11.395790     8A    -11.368482     9A    -11.321188
      10A    -11.309991    11A    -11.245849    12A     -1.395931
      13A     -1.366841    14A     -1.337352    15A     -1.220850
      16A     -1.219251    17A     -1.186827    18A     -1.029219
      19A     -0.907887    20A     -0.885567    21A     -0.851209
      22A     -0.798021    23A     -0.742390    24A     -0.730993
      25A     -0.699436    26A     -0.672890    27A     -0.657815
      28A     -0.634111    29A     -0.619983    30A     -0.614911
      31A     -0.598680    32A     -0.548507    33A     -0.497691
      34A     -0.461872    35A     -0.445007    36A     -0.432808
      37A     -0.422363    38A     -0.419314    39A     -0.294958

  @DF-RHF Final Energy:  -539.58065332332296

   => Energetics <=

    Nuclear Repulsion Energy =            596.3635168839924745
    One-Electron Energy =               -1918.1610008796678812
    Two-Electron Energy =                 782.2168306723525575
    Total Energy =                       -539.5806533233229629
  Basis Set: (AUG-CC-PVTZ AUX)
    Blend: AUG-CC-PVTZ-RI
    Molecular point group: c1

    Geometry (in Angstrom), charge = 0, multiplicity = 1:

       Center              X                  Y                   Z               Mass
    ------------   -----------------  -----------------  -----------------  -----------------
         O            0.190568805966     2.672133472382    -0.005650858605    15.994914619570
         C            0.223103805966     1.447647472382     0.007131141395    12.000000000000
         N            1.480120805966     0.765730472382    -0.002292858605    14.003074004430
         C            1.683779805966    -0.591728527618     0.004725141395    12.000000000000
         N            0.718237805966    -1.478095527618     0.014041141395    14.003074004430
         C           -0.510572194034    -0.881646527618    -0.000782858605    12.000000000000
         C           -0.839392194034     0.472591472382     0.018000141395    12.000000000000
         N           -2.119106494034     0.625280572382     0.015904441395    14.003074004430
         C           -2.693960194034    -0.567265527618     0.003260141395    12.000000000000
         N           -1.716066194034    -1.533198527618    -0.004551858605    14.003074004430
         N            3.003904805966    -1.007234527618    -0.076981858605    14.003074004430
         H            2.278022805966     1.389091472382    -0.101749858605     1.007825032230
         H           -3.746697194034    -0.818726527618    -0.000647858605     1.007825032230
         H           -1.838664194034    -2.539076527618    -0.018274858605     1.007825032230
         H            3.077036805966    -2.008910527618     0.070785141395     1.007825032230
         H            3.656379805966    -0.489824527618     0.503220141395     1.007825032230

  Basis Set: AUG-CC-PVTZ
    Blend: AUG-CC-PVTZ
  Basis Set: (AUG-CC-PVTZ AUX)
    Blend: AUG-CC-PVTZ-JKFIT
	 Reference Energy          =    -539.5806533233229629 [Eh]
	 Singles Energy            =      -0.0000000000000000 [Eh]
	 Same-Spin Energy          =      -0.5741917033392214 [Eh]
	 Opposite-Spin Energy      =      -1.6630416388477387 [Eh]
	 Correlation Energy        =      -2.2372333421869603 [Eh]
	 Total Energy              =    -541.8178866655099455 [Eh]

	 ================> DF-SCS-MP2 Energies <==================
	-----------------------------------------------------------
	 SCS Same-Spin Scale       =       0.3333333333333333 [-]
	 SCS Opposite-Spin Scale   =       1.2000000000000000 [-]
	 SCS Same-Spin Energy      =      -0.1913972344464071 [Eh]
	 SCS Opposite-Spin Energy  =      -1.9956499666172864 [Eh]
	 SCS Correlation Energy    =      -2.1870472010636934 [Eh]
	 SCS Total Energy          =    -541.7677005243866688 [Eh]
	-----------------------------------------------------------

  Dipole Moment: [D]
     X:     2.4684      Y:    -5.5270      Z:     0.8460     Total:     6.1120

*** Psi4 exiting successfully. Buy a developer a beer!
