                               Psi4 1.3.2 release

  ==> Input File <==

--------------------------------------------------------------------------
#psi4
#
memory 32 gb

molecule  {
0 1
  O        0.1763910     2.6970700    -0.0085580
  C        0.3050330     1.3561879     0.0054819
  N        1.4659430     0.7906670    -0.0052000
  C        1.6696020    -0.5667920     0.0018180
  N        0.7040600    -1.4531590     0.0111340
  C       -0.5247500    -0.8567100    -0.0036900
  C       -0.8535700     0.4975280     0.0150930
  N       -2.2178770     0.6874110     0.0132550
  C       -2.7081380    -0.5423290     0.0003530
  N       -1.7302440    -1.5082620    -0.0074590
  N        2.9897270    -0.9822980    -0.0798890
  H        2.2638450     1.4140280    -0.1046570
  H       -3.7608750    -0.7937900    -0.0035550
  H       -1.8528420    -2.5141400    -0.0211820
  H        3.0628590    -1.9839740     0.0678780
  H        3.6422020    -0.4648880     0.5003130
units angstrom
no_reorient  #important for SAPT in psi4, default
symmetry c1  #important for SAPT in psi4, default
}

set PROPERTIES_ORIGIN ["COM"]
properties('MP2/aug-cc-pvtz', properties = ['dipole'])
--------------------------------------------------------------------------

    Molecular point group: c1
  Charge       = 0
  Multiplicity = 1
  Basis Set: AUG-CC-PVTZ
    Blend: AUG-CC-PVTZ
  Basis Set: (AUG-CC-PVTZ AUX)
    Blend: AUG-CC-PVTZ-JKFIT

    Orbital Energies [Eh]
    ---------------------

    Doubly Occupied:

       1A    -20.492873     2A    -15.653967     3A    -15.639115
       4A    -15.622225     5A    -15.588578     6A    -15.569602
       7A    -11.409434     8A    -11.360379     9A    -11.328472
      10A    -11.319751    11A    -11.258658    12A     -1.405482
      13A     -1.357821    14A     -1.301019    15A     -1.230100
      16A     -1.225088    17A     -1.183161    18A     -1.038198
      19A     -0.926651    20A     -0.906997    21A     -0.847429
      22A     -0.814063    23A     -0.767823    24A     -0.737238
      25A     -0.707459    26A     -0.674021    27A     -0.668518
      28A     -0.643362    29A     -0.613073    30A     -0.607507
      31A     -0.555904    32A     -0.540890    33A     -0.506809
      34A     -0.467479    35A     -0.439756    36A     -0.422030
      37A     -0.406643    38A     -0.406255    39A     -0.306065

  @DF-RHF Final Energy:  -539.55204708073063

   => Energetics <=

    Nuclear Repulsion Energy =            594.7689140300993813
    One-Electron Energy =               -1914.7421367742995244
    Two-Electron Energy =                 780.4211756634693984
    Total Energy =                       -539.5520470807306310
  Basis Set: (AUG-CC-PVTZ AUX)
    Blend: AUG-CC-PVTZ-RI
    Molecular point group: c1

    Geometry (in Angstrom), charge = 0, multiplicity = 1:

       Center              X                  Y                   Z               Mass
    ------------   -----------------  -----------------  -----------------  -----------------
         O            0.190775849730     2.677932397826    -0.005774681613    15.994914619570
         C            0.319417849730     1.337050297826     0.008265218387    12.000000000000
         N            1.480327849730     0.771529397826    -0.002416681613    14.003074004430
         C            1.683986849730    -0.585929602174     0.004601318387    12.000000000000
         N            0.718444849730    -1.472296602174     0.013917318387    14.003074004430
         C           -0.510365150270    -0.875847602174    -0.000906681613    12.000000000000
         C           -0.839185150270     0.478390397826     0.017876318387    12.000000000000
         N           -2.203492150270     0.668273397826     0.016038318387    14.003074004430
         C           -2.693753150270    -0.561466602174     0.003136318387    12.000000000000
         N           -1.715859150270    -1.527399602174    -0.004675681613    14.003074004430
         N            3.004111849730    -1.001435602174    -0.077105681613    14.003074004430
         H            2.278229849730     1.394890397826    -0.101873681613     1.007825032230
         H           -3.746490150270    -0.812927602174    -0.000771681613     1.007825032230
         H           -1.838457150270    -2.533277602174    -0.018398681613     1.007825032230
         H            3.077243849730    -2.003111602174     0.070661318387     1.007825032230
         H            3.656586849730    -0.484025602174     0.503096318387     1.007825032230

  Basis Set: AUG-CC-PVTZ
    Blend: AUG-CC-PVTZ
  Basis Set: (AUG-CC-PVTZ AUX)
    Blend: AUG-CC-PVTZ-JKFIT
	 Reference Energy          =    -539.5520470807306310 [Eh]
	 Singles Energy            =      -0.0000000000000000 [Eh]
	 Same-Spin Energy          =      -0.5756312306377005 [Eh]
	 Opposite-Spin Energy      =      -1.6675484865296415 [Eh]
	 Correlation Energy        =      -2.2431797171673420 [Eh]
	 Total Energy              =    -541.7952267978979535 [Eh]

	 ================> DF-SCS-MP2 Energies <==================
	-----------------------------------------------------------
	 SCS Same-Spin Scale       =       0.3333333333333333 [-]
	 SCS Opposite-Spin Scale   =       1.2000000000000000 [-]
	 SCS Same-Spin Energy      =      -0.1918770768792335 [Eh]
	 SCS Opposite-Spin Energy  =      -2.0010581838355699 [Eh]
	 SCS Correlation Energy    =      -2.1929352607148034 [Eh]
	 SCS Total Energy          =    -541.7449823414453931 [Eh]
	-----------------------------------------------------------

  Dipole Moment: [D]
     X:     3.1014      Y:    -6.8351      Z:     0.8533     Total:     7.5542

*** Psi4 exiting successfully. Buy a developer a beer!
