                               Psi4 1.3.2 release

  ==> Input File <==

--------------------------------------------------------------------------
#psi4
#
memory 32 gb

molecule  {
0 1
  O        0.1763910     2.6970700    -0.0085580
  C        0.2089260     1.4725840     0.0042240
  N        1.4659430     0.7906670    -0.0052000
  C        1.6696020    -0.5667920     0.0018180
  N        0.7040600    -1.4531590     0.0111340
  C       -0.5027462    -0.8991728    -0.0043929
  C       -0.8535700     0.4975280     0.0150930
  N       -2.2178770     0.6874110     0.0132550
  C       -2.7081380    -0.5423290     0.0003530
  N       -1.7302440    -1.5082620    -0.0074590
  N        2.9897270    -0.9822980    -0.0798890
  H        2.2638450     1.4140280    -0.1046570
  H       -3.7608750    -0.7937900    -0.0035550
  H       -1.8528420    -2.5141400    -0.0211820
  H        3.0628590    -1.9839740     0.0678780
  H        3.6422020    -0.4648880     0.5003130
units angstrom
no_reorient  #important for SAPT in psi4, default
symmetry c1  #important for SAPT in psi4, default
}

set PROPERTIES_ORIGIN ["COM"]
properties('MP2/aug-cc-pvtz', properties = ['dipole'])
--------------------------------------------------------------------------

    Molecular point group: c1
  Charge       = 0
  Multiplicity = 1
  Basis Set: AUG-CC-PVTZ
    Blend: AUG-CC-PVTZ
  Basis Set: (AUG-CC-PVTZ AUX)
    Blend: AUG-CC-PVTZ-JKFIT

    Orbital Energies [Eh]
    ---------------------

    Doubly Occupied:

       1A    -20.520244     2A    -15.637133     3A    -15.633484
       4A    -15.614703     5A    -15.574466     6A    -15.566315
       7A    -11.402440     8A    -11.364780     9A    -11.332055
      10A    -11.313027    11A    -11.252504    12A     -1.392774
      13A     -1.359399    14A     -1.336722    15A     -1.228135
      16A     -1.221518    17A     -1.179087    18A     -1.024697
      19A     -0.907672    20A     -0.890273    21A     -0.841784
      22A     -0.802605    23A     -0.741796    24A     -0.732890
      25A     -0.698707    26A     -0.668100    27A     -0.657470
      28A     -0.640978    29A     -0.611570    30A     -0.599914
      31A     -0.595948    32A     -0.548466    33A     -0.500654
      34A     -0.467290    35A     -0.441741    36A     -0.434542
      37A     -0.428782    38A     -0.411291    39A     -0.294807

  @DF-RHF Final Energy:  -539.58278174873351

   => Energetics <=

    Nuclear Repulsion Energy =            593.2880959546554323
    One-Electron Energy =               -1912.0002194797637003
    Two-Electron Energy =                 779.1293417763748721
    Total Energy =                       -539.5827817487335096
  Basis Set: (AUG-CC-PVTZ AUX)
    Blend: AUG-CC-PVTZ-RI
    Molecular point group: c1

    Geometry (in Angstrom), charge = 0, multiplicity = 1:

       Center              X                  Y                   Z               Mass
    ------------   -----------------  -----------------  -----------------  -----------------
         O            0.196662919406     2.672058825721    -0.005618907419    15.994914619570
         C            0.229197919406     1.447572825721     0.007163092581    12.000000000000
         N            1.486214919406     0.765655825721    -0.002260907419    14.003074004430
         C            1.689873919406    -0.591803174279     0.004757092581    12.000000000000
         N            0.724331919406    -1.478170174279     0.014073092581    14.003074004430
         C           -0.482474280594    -0.924183974279    -0.001453807419    12.000000000000
         C           -0.833298080594     0.472516825721     0.018032092581    12.000000000000
         N           -2.197605080594     0.662399825721     0.016194092581    14.003074004430
         C           -2.687866080594    -0.567340174279     0.003292092581    12.000000000000
         N           -1.709972080594    -1.533273174279    -0.004519907419    14.003074004430
         N            3.009998919406    -1.007309174279    -0.076949907419    14.003074004430
         H            2.284116919406     1.389016825721    -0.101717907419     1.007825032230
         H           -3.740603080594    -0.818801174279    -0.000615907419     1.007825032230
         H           -1.832570080594    -2.539151174279    -0.018242907419     1.007825032230
         H            3.083130919406    -2.008985174279     0.070817092581     1.007825032230
         H            3.662473919406    -0.489899174279     0.503252092581     1.007825032230

  Basis Set: AUG-CC-PVTZ
    Blend: AUG-CC-PVTZ
  Basis Set: (AUG-CC-PVTZ AUX)
    Blend: AUG-CC-PVTZ-JKFIT
	 Reference Energy          =    -539.5827817487335096 [Eh]
	 Singles Energy            =      -0.0000000000000000 [Eh]
	 Same-Spin Energy          =      -0.5741109460202969 [Eh]
	 Opposite-Spin Energy      =      -1.6638165367130591 [Eh]
	 Correlation Energy        =      -2.2379274827333560 [Eh]
	 Total Energy              =    -541.8207092314668216 [Eh]

	 ================> DF-SCS-MP2 Energies <==================
	-----------------------------------------------------------
	 SCS Same-Spin Scale       =       0.3333333333333333 [-]
	 SCS Opposite-Spin Scale   =       1.2000000000000000 [-]
	 SCS Same-Spin Energy      =      -0.1913703153400990 [Eh]
	 SCS Opposite-Spin Energy  =      -1.9965798440556708 [Eh]
	 SCS Correlation Energy    =      -2.1879501593957698 [Eh]
	 SCS Total Energy          =    -541.7707319081292781 [Eh]
	-----------------------------------------------------------

  Dipole Moment: [D]
     X:     2.7375      Y:    -5.7567      Z:     0.8439     Total:     6.4301

*** Psi4 exiting successfully. Buy a developer a beer!
