                               Psi4 1.3.2 release

  ==> Input File <==

--------------------------------------------------------------------------
#psi4
#
memory 32 gb

molecule  {
0 1
  O        0.1763910     2.6970700    -0.0085580
  C        0.2089260     1.4725840     0.0042240
  N        1.4659430     0.7906670    -0.0052000
  C        1.6696020    -0.5667920     0.0018180
  N        0.7040600    -1.4531590     0.0111340
  C       -0.5247500    -0.8567100    -0.0036900
  C       -0.8436497     0.5931556     0.0160213
  N       -2.2178770     0.6874110     0.0132550
  C       -2.7081380    -0.5423290     0.0003530
  N       -1.7302440    -1.5082620    -0.0074590
  N        2.9897270    -0.9822980    -0.0798890
  H        2.2638450     1.4140280    -0.1046570
  H       -3.7608750    -0.7937900    -0.0035550
  H       -1.8528420    -2.5141400    -0.0211820
  H        3.0628590    -1.9839740     0.0678780
  H        3.6422020    -0.4648880     0.5003130
units angstrom
no_reorient  #important for SAPT in psi4, default
symmetry c1  #important for SAPT in psi4, default
}

set PROPERTIES_ORIGIN ["COM"]
properties('MP2/aug-cc-pvtz', properties = ['dipole'])
--------------------------------------------------------------------------

    Molecular point group: c1
  Charge       = 0
  Multiplicity = 1
  Basis Set: AUG-CC-PVTZ
    Blend: AUG-CC-PVTZ
  Basis Set: (AUG-CC-PVTZ AUX)
    Blend: AUG-CC-PVTZ-JKFIT

    Orbital Energies [Eh]
    ---------------------

    Doubly Occupied:

       1A    -20.511245     2A    -15.642732     3A    -15.632447
       4A    -15.614418     5A    -15.577386     6A    -15.567876
       7A    -11.401487     8A    -11.356593     9A    -11.343317
      10A    -11.315690    11A    -11.254553    12A     -1.390608
      13A     -1.356314    14A     -1.335164    15A     -1.221570
      16A     -1.219478    17A     -1.180714    18A     -1.031527
      19A     -0.916294    20A     -0.886602    21A     -0.840885
      22A     -0.800650    23A     -0.743535    24A     -0.735757
      25A     -0.698002    26A     -0.669181    27A     -0.656509
      28A     -0.638280    29A     -0.611797    30A     -0.605149
      31A     -0.596374    32A     -0.549515    33A     -0.500557
      34A     -0.464396    35A     -0.437485    36A     -0.431536
      37A     -0.422317    38A     -0.413093    39A     -0.296624

  @DF-RHF Final Energy:  -539.57333799192463

   => Energetics <=

    Nuclear Repulsion Energy =            592.9507025946829799
    One-Electron Energy =               -1911.3127663090633632
    Two-Electron Energy =                 778.7887257224557516
    Total Energy =                       -539.5733379919246318
  Basis Set: (AUG-CC-PVTZ AUX)
    Blend: AUG-CC-PVTZ-RI
    Molecular point group: c1

    Geometry (in Angstrom), charge = 0, multiplicity = 1:

       Center              X                  Y                   Z               Mass
    ------------   -----------------  -----------------  -----------------  -----------------
         O            0.197622883435     2.661088343928    -0.005748496803    15.994914619570
         C            0.230157883435     1.436602343928     0.007033503197    12.000000000000
         N            1.487174883435     0.754685343928    -0.002390496803    14.003074004430
         C            1.690833883435    -0.602773656072     0.004627503197    12.000000000000
         N            0.725291883435    -1.489140656072     0.013943503197    14.003074004430
         C           -0.503518116565    -0.892691656072    -0.000880496803    12.000000000000
         C           -0.822417816565     0.557173943928     0.018830803197    12.000000000000
         N           -2.196645116565     0.651429343928     0.016064503197    14.003074004430
         C           -2.686906116565    -0.578310656072     0.003162503197    12.000000000000
         N           -1.709012116565    -1.544243656072    -0.004649496803    14.003074004430
         N            3.010958883435    -1.018279656072    -0.077079496803    14.003074004430
         H            2.285076883435     1.378046343928    -0.101847496803     1.007825032230
         H           -3.739643116565    -0.829771656072    -0.000745496803     1.007825032230
         H           -1.831610116565    -2.550121656072    -0.018372496803     1.007825032230
         H            3.084090883435    -2.019955656072     0.070687503197     1.007825032230
         H            3.663433883435    -0.500869656072     0.503122503197     1.007825032230

  Basis Set: AUG-CC-PVTZ
    Blend: AUG-CC-PVTZ
  Basis Set: (AUG-CC-PVTZ AUX)
    Blend: AUG-CC-PVTZ-JKFIT
	 Reference Energy          =    -539.5733379919246318 [Eh]
	 Singles Energy            =      -0.0000000000000000 [Eh]
	 Same-Spin Energy          =      -0.5743770184625976 [Eh]
	 Opposite-Spin Energy      =      -1.6646482355621979 [Eh]
	 Correlation Energy        =      -2.2390252540247957 [Eh]
	 Total Energy              =    -541.8123632459494274 [Eh]

	 ================> DF-SCS-MP2 Energies <==================
	-----------------------------------------------------------
	 SCS Same-Spin Scale       =       0.3333333333333333 [-]
	 SCS Opposite-Spin Scale   =       1.2000000000000000 [-]
	 SCS Same-Spin Energy      =      -0.1914590061541992 [Eh]
	 SCS Opposite-Spin Energy  =      -1.9975778826746373 [Eh]
	 SCS Correlation Energy    =      -2.1890368888288365 [Eh]
	 SCS Total Energy          =    -541.7623748807534412 [Eh]
	-----------------------------------------------------------

  Dipole Moment: [D]
     X:     2.5811      Y:    -5.9209      Z:     0.8447     Total:     6.5140

*** Psi4 exiting successfully. Buy a developer a beer!
