                               Psi4 1.4a3.dev225

  ==> Input File <==

--------------------------------------------------------------------------
#psi4
#
memory 32 gb

molecule  {
0 1
  O        0.1763800     2.6970850    -0.0086780
  C        0.2102128     1.4226104     0.0047475
  N        1.4659360     0.7906750    -0.0050880
  C        1.6696170    -0.5667500     0.0018210
  N        0.7040680    -1.4531450     0.0111020
  C       -0.5247290    -0.8567090    -0.0037110
  C       -0.8535850     0.4975420     0.0152200
  N       -2.2178950     0.6873840     0.0133320
  C       -2.7081200    -0.5423560     0.0003580
  N       -1.7302140    -1.5082770    -0.0075250
  N        2.9897250    -0.9823190    -0.0798750
  H        2.2637990     1.4140370    -0.1048620
  H       -3.7608500    -0.7938460    -0.0035590
  H       -1.8527810    -2.5141570    -0.0214260
  H        3.0628080    -1.9839860     0.0679760
  H        3.6422460    -0.4648460     0.5002060
units angstrom
no_reorient  #important for SAPT in psi4, default
symmetry c1  #important for SAPT in psi4, default
}

set PROPERTIES_ORIGIN ["COM"]
properties('MP2/aug-cc-pvtz', properties = ['dipole'])
--------------------------------------------------------------------------

    Molecular point group: c1
  Charge       = 0
  Multiplicity = 1
  Basis Set: AUG-CC-PVTZ
    Blend: AUG-CC-PVTZ
  Basis Set: (AUG-CC-PVTZ AUX)
    Blend: AUG-CC-PVTZ-JKFIT

    Orbital Energies [Eh]
    ---------------------

    Doubly Occupied:

       1A    -20.511337     2A    -15.639396     3A    -15.637957
       4A    -15.615336     5A    -15.578582     6A    -15.568290
       7A    -11.402016     8A    -11.365105     9A    -11.332434
      10A    -11.318375    11A    -11.252681    12A     -1.388807
      13A     -1.353264    14A     -1.323814    15A     -1.223801
      16A     -1.220847    17A     -1.182155    18A     -1.039479
      19A     -0.914453    20A     -0.889930    21A     -0.848174
      22A     -0.803424    23A     -0.748718    24A     -0.733601
      25A     -0.702076    26A     -0.674283    27A     -0.660353
      28A     -0.637592    29A     -0.607266    30A     -0.600039
      31A     -0.590872    32A     -0.539255    33A     -0.503226
      34A     -0.464578    35A     -0.441335    36A     -0.427487
      37A     -0.426569    38A     -0.414104    39A     -0.306386

  @DF-RHF Final Energy:  -539.58035241064476

   => Energetics <=

    Nuclear Repulsion Energy =            594.0611009597494103
    One-Electron Energy =               -1913.5081136658118339
    Two-Electron Energy =                 779.8666602954176597
    Total Energy =                       -539.5803524106447639
  Basis Set: (AUG-CC-PVTZ AUX)
    Blend: AUG-CC-PVTZ-RI
    Molecular point group: c1

    Geometry (in Angstrom), charge = 0, multiplicity = 1:

       Center              X                  Y                   Z               Mass
    ------------   -----------------  -----------------  -----------------  -----------------
         O            0.198294591511     2.672670571305    -0.005839338913    15.994914619570
         C            0.232127391511     1.398195971305     0.007586161087    12.000000000000
         N            1.487850591511     0.766260571305    -0.002249338913    14.003074004430
         C            1.691531591511    -0.591164428695     0.004659661087    12.000000000000
         N            0.725982591511    -1.477559428695     0.013940661087    14.003074004430
         C           -0.502814408489    -0.881123428695    -0.000872338913    12.000000000000
         C           -0.831670408489     0.473127571305     0.018058661087    12.000000000000
         N           -2.195980408489     0.662969571305     0.016170661087    14.003074004430
         C           -2.686205408489    -0.566770428695     0.003196661087    12.000000000000
         N           -1.708299408489    -1.532691428695    -0.004686338913    14.003074004430
         N            3.011639591511    -1.006733428695    -0.077036338913    14.003074004430
         H            2.285713591511     1.389622571305    -0.102023338913     1.007825032230
         H           -3.738935408489    -0.818260428695    -0.000720338913     1.007825032230
         H           -1.830866408489    -2.538571428695    -0.018587338913     1.007825032230
         H            3.084722591511    -2.008400428695     0.070814661087     1.007825032230
         H            3.664160591511    -0.489260428695     0.503044661087     1.007825032230

  Basis Set: AUG-CC-PVTZ
    Blend: AUG-CC-PVTZ
  Basis Set: (AUG-CC-PVTZ AUX)
    Blend: AUG-CC-PVTZ-JKFIT
	 Reference Energy          =    -539.5803524106447639 [Eh]
	 Singles Energy            =      -0.0000000000000000 [Eh]
	 Same-Spin Energy          =      -0.5740523591779496 [Eh]
	 Opposite-Spin Energy      =      -1.6650091706987231 [Eh]
	 Correlation Energy        =      -2.2390615298766727 [Eh]
	 Total Energy              =    -541.8194139405214855 [Eh]

	 ================> DF-SCS-MP2 Energies <==================
	-----------------------------------------------------------
	 SCS Same-Spin Scale       =       0.3333333333333333 [-]
	 SCS Opposite-Spin Scale   =       1.2000000000000000 [-]
	 SCS Same-Spin Energy      =      -0.1913507863926499 [Eh]
	 SCS Opposite-Spin Energy  =      -1.9980110048384676 [Eh]
	 SCS Correlation Energy    =      -2.1893617912311174 [Eh]
	 SCS Total Energy          =    -541.7697142018758996 [Eh]
	-----------------------------------------------------------

  Dipole Moment: [D]
     X:     2.6859      Y:    -6.1382      Z:     0.8458     Total:     6.7533

*** Psi4 exiting successfully. Buy a developer a beer!
