                               Psi4 1.4a3.dev225

  ==> Input File <==

--------------------------------------------------------------------------
#psi4
#
memory 32 gb

molecule  {
0 1
  O        0.1763800     2.6970850    -0.0086780
  C        0.2088860     1.4725900     0.0042210
  N        1.4659360     0.7906750    -0.0050880
  C        1.6696170    -0.5667500     0.0018210
  N        0.7040680    -1.4531450     0.0111020
  C       -0.5247290    -0.8567090    -0.0037110
  C       -0.8535850     0.4975420     0.0152200
  N       -2.2178950     0.6873840     0.0133320
  C       -2.7081200    -0.5423560     0.0003580
  N       -1.7302140    -1.5082770    -0.0075250
  N        2.9897250    -0.9823190    -0.0798750
  H        2.2637990     1.4140370    -0.1048620
  H       -3.7803025    -0.7984931    -0.0036314
  H       -1.8527810    -2.5141570    -0.0214260
  H        3.0628080    -1.9839860     0.0679760
  H        3.6422460    -0.4648460     0.5002060
units angstrom
no_reorient  #important for SAPT in psi4, default
symmetry c1  #important for SAPT in psi4, default
}

set PROPERTIES_ORIGIN ["COM"]
properties('MP2/aug-cc-pvtz', properties = ['dipole'])
--------------------------------------------------------------------------

    Molecular point group: c1
  Charge       = 0
  Multiplicity = 1
  Basis Set: AUG-CC-PVTZ
    Blend: AUG-CC-PVTZ
  Basis Set: (AUG-CC-PVTZ AUX)
    Blend: AUG-CC-PVTZ-JKFIT

    Orbital Energies [Eh]
    ---------------------

    Doubly Occupied:

       1A    -20.524431     2A    -15.636387     3A    -15.632026
       4A    -15.612404     5A    -15.573645     6A    -15.565400
       7A    -11.398632     8A    -11.368065     9A    -11.327656
      10A    -11.316460    11A    -11.251569    12A     -1.393595
      13A     -1.361019    14A     -1.335902    15A     -1.220823
      16A     -1.218357    17A     -1.178369    18A     -1.030943
      19A     -0.906294    20A     -0.885081    21A     -0.844264
      22A     -0.798414    23A     -0.740214    24A     -0.729503
      25A     -0.700260    26A     -0.673210    27A     -0.656233
      28A     -0.633295    29A     -0.614567    30A     -0.600095
      31A     -0.595854    32A     -0.547959    33A     -0.499798
      34A     -0.462599    35A     -0.443195    36A     -0.433172
      37A     -0.432652    38A     -0.412334    39A     -0.302940

  @DF-RHF Final Energy:  -539.58691237505968

   => Energetics <=

    Nuclear Repulsion Energy =            593.5456945438107823
    One-Electron Energy =               -1912.5499821988241820
    Two-Electron Energy =                 779.4173752799536032
    Total Energy =                       -539.5869123750596827
  Basis Set: (AUG-CC-PVTZ AUX)
    Blend: AUG-CC-PVTZ-RI
    Molecular point group: c1

    Geometry (in Angstrom), charge = 0, multiplicity = 1:

       Center              X                  Y                   Z               Mass
    ------------   -----------------  -----------------  -----------------  -----------------
         O            0.198529788170     2.668730987979    -0.005797028476    15.994914619570
         C            0.231035788170     1.444235987979     0.007101971524    12.000000000000
         N            1.488085788170     0.762320987979    -0.002207028476    14.003074004430
         C            1.691766788170    -0.595104012021     0.004701971524    12.000000000000
         N            0.726217788170    -1.481499012021     0.013982971524    14.003074004430
         C           -0.502579211830    -0.885063012021    -0.000830028476    12.000000000000
         C           -0.831435211830     0.469187987979     0.018100971524    12.000000000000
         N           -2.195745211830     0.659029987979     0.016212971524    14.003074004430
         C           -2.685970211830    -0.570710012021     0.003238971524    12.000000000000
         N           -1.708064211830    -1.536631012021    -0.004644028476    14.003074004430
         N            3.011874788170    -1.010673012021    -0.076994028476    14.003074004430
         H            2.285948788170     1.385682987979    -0.101981028476     1.007825032230
         H           -3.758152711830    -0.826847112021    -0.000750428476     1.007825032230
         H           -1.830631211830    -2.542511012021    -0.018545028476     1.007825032230
         H            3.084957788170    -2.012340012021     0.070856971524     1.007825032230
         H            3.664395788170    -0.493200012021     0.503086971524     1.007825032230

  Basis Set: AUG-CC-PVTZ
    Blend: AUG-CC-PVTZ
  Basis Set: (AUG-CC-PVTZ AUX)
    Blend: AUG-CC-PVTZ-JKFIT
	 Reference Energy          =    -539.5869123750596827 [Eh]
	 Singles Energy            =      -0.0000000000000000 [Eh]
	 Same-Spin Energy          =      -0.5730826904685929 [Eh]
	 Opposite-Spin Energy      =      -1.6633438612620421 [Eh]
	 Correlation Energy        =      -2.2364265517306352 [Eh]
	 Total Energy              =    -541.8233389267903704 [Eh]

	 ================> DF-SCS-MP2 Energies <==================
	-----------------------------------------------------------
	 SCS Same-Spin Scale       =       0.3333333333333333 [-]
	 SCS Opposite-Spin Scale   =       1.2000000000000000 [-]
	 SCS Same-Spin Energy      =      -0.1910275634895310 [Eh]
	 SCS Opposite-Spin Energy  =      -1.9960126335144506 [Eh]
	 SCS Correlation Energy    =      -2.1870401970039817 [Eh]
	 SCS Total Energy          =    -541.7739525720636493 [Eh]
	-----------------------------------------------------------

  Dipole Moment: [D]
     X:     2.6669      Y:    -5.6328      Z:     0.8434     Total:     6.2890

*** Psi4 exiting successfully. Buy a developer a beer!
