                               Psi4 1.3.2 release

  ==> Input File <==

--------------------------------------------------------------------------
#psi4
#
memory 32 gb

molecule  {
0 1
  O        0.3045584     2.6937446    -0.0102335
  C        0.2089260     1.4725840     0.0042240
  N        1.4659430     0.7906670    -0.0052000
  C        1.6696020    -0.5667920     0.0018180
  N        0.7040600    -1.4531590     0.0111340
  C       -0.5247500    -0.8567100    -0.0036900
  C       -0.8535700     0.4975280     0.0150930
  N       -2.2178770     0.6874110     0.0132550
  C       -2.7081380    -0.5423290     0.0003530
  N       -1.7302440    -1.5082620    -0.0074590
  N        2.9897270    -0.9822980    -0.0798890
  H        2.2638450     1.4140280    -0.1046570
  H       -3.7608750    -0.7937900    -0.0035550
  H       -1.8528420    -2.5141400    -0.0211820
  H        3.0628590    -1.9839740     0.0678780
  H        3.6422020    -0.4648880     0.5003130
units angstrom
no_reorient  #important for SAPT in psi4, default
symmetry c1  #important for SAPT in psi4, default
}

set PROPERTIES_ORIGIN ["COM"]
properties('MP2/aug-cc-pvtz', properties = ['dipole'])
--------------------------------------------------------------------------

    Molecular point group: c1
  Charge       = 0
  Multiplicity = 1
  Basis Set: AUG-CC-PVTZ
    Blend: AUG-CC-PVTZ
  Basis Set: (AUG-CC-PVTZ AUX)
    Blend: AUG-CC-PVTZ-JKFIT

    Orbital Energies [Eh]
    ---------------------

    Doubly Occupied:

       1A    -20.523220     2A    -15.638255     3A    -15.626208
       4A    -15.610908     5A    -15.572551     6A    -15.567563
       7A    -11.396292     8A    -11.368592     9A    -11.331100
      10A    -11.316273    11A    -11.255610    12A     -1.395650
      13A     -1.363364    14A     -1.333865    15A     -1.218876
      16A     -1.215476    17A     -1.179748    18A     -1.033655
      19A     -0.907986    20A     -0.883070    21A     -0.847135
      22A     -0.798362    23A     -0.738945    24A     -0.729905
      25A     -0.700797    26A     -0.673538    27A     -0.656342
      28A     -0.633485    29A     -0.614632    30A     -0.603415
      31A     -0.597184    32A     -0.547987    33A     -0.500436
      34A     -0.461964    35A     -0.442242    36A     -0.436004
      37A     -0.429837    38A     -0.414369    39A     -0.305004

  @DF-RHF Final Energy:  -539.58560233707499

   => Energetics <=

    Nuclear Repulsion Energy =            593.6697529303756937
    One-Electron Energy =               -1912.7710148479850432
    Two-Electron Energy =                 779.5156595805344750
    Total Energy =                       -539.5856023370749881
  Basis Set: (AUG-CC-PVTZ AUX)
    Blend: AUG-CC-PVTZ-RI
    Molecular point group: c1

    Geometry (in Angstrom), charge = 0, multiplicity = 1:

       Center              X                  Y                   Z               Mass
    ------------   -----------------  -----------------  -----------------  -----------------
         O            0.313006499489     2.665712135459    -0.007172826809    15.994914619570
         C            0.217374099489     1.444551535459     0.007284673191    12.000000000000
         N            1.474391099489     0.762634535459    -0.002139326809    14.003074004430
         C            1.678050099489    -0.594824464541     0.004878673191    12.000000000000
         N            0.712508099489    -1.481191464541     0.014194673191    14.003074004430
         C           -0.516301900511    -0.884742464541    -0.000629326809    12.000000000000
         C           -0.845121900511     0.469495535459     0.018153673191    12.000000000000
         N           -2.209428900511     0.659378535459     0.016315673191    14.003074004430
         C           -2.699689900511    -0.570361464541     0.003413673191    12.000000000000
         N           -1.721795900511    -1.536294464541    -0.004398326809    14.003074004430
         N            2.998175099489    -1.010330464541    -0.076828326809    14.003074004430
         H            2.272293099489     1.385995535459    -0.101596326809     1.007825032230
         H           -3.752426900511    -0.821822464541    -0.000494326809     1.007825032230
         H           -1.844393900511    -2.542172464541    -0.018121326809     1.007825032230
         H            3.071307099489    -2.012006464541     0.070938673191     1.007825032230
         H            3.650650099489    -0.492920464541     0.503373673191     1.007825032230

  Basis Set: AUG-CC-PVTZ
    Blend: AUG-CC-PVTZ
  Basis Set: (AUG-CC-PVTZ AUX)
    Blend: AUG-CC-PVTZ-JKFIT
	 Reference Energy          =    -539.5856023370749881 [Eh]
	 Singles Energy            =      -0.0000000000000000 [Eh]
	 Same-Spin Energy          =      -0.5729021463119082 [Eh]
	 Opposite-Spin Energy      =      -1.6628352691046382 [Eh]
	 Correlation Energy        =      -2.2357374154165464 [Eh]
	 Total Energy              =    -541.8213397524915536 [Eh]

	 ================> DF-SCS-MP2 Energies <==================
	-----------------------------------------------------------
	 SCS Same-Spin Scale       =       0.3333333333333333 [-]
	 SCS Opposite-Spin Scale   =       1.2000000000000000 [-]
	 SCS Same-Spin Energy      =      -0.1909673821039694 [Eh]
	 SCS Opposite-Spin Energy  =      -1.9954023229255657 [Eh]
	 SCS Correlation Energy    =      -2.1863697050295352 [Eh]
	 SCS Total Energy          =    -541.7719720421044940 [Eh]
	-----------------------------------------------------------

  Dipole Moment: [D]
     X:     2.3836      Y:    -5.6731      Z:     0.8470     Total:     6.2115

*** Psi4 exiting successfully. Buy a developer a beer!
