                               Psi4 1.3.2 release

  ==> Input File <==

--------------------------------------------------------------------------
#psi4
#
memory 32 gb

molecule  {
0 1
  O        0.1763910     2.6970700    -0.0085580
  C        0.2089260     1.4725840     0.0042240
  N        1.4659430     0.7906670    -0.0052000
  C        1.6696020    -0.5667920     0.0018180
  N        0.7040600    -1.4531590     0.0111340
  C       -0.5247500    -0.8567100    -0.0036900
  C       -0.7101998     0.5244848     0.0148878
  N       -2.2178770     0.6874110     0.0132550
  C       -2.7081380    -0.5423290     0.0003530
  N       -1.7302440    -1.5082620    -0.0074590
  N        2.9897270    -0.9822980    -0.0798890
  H        2.2638450     1.4140280    -0.1046570
  H       -3.7608750    -0.7937900    -0.0035550
  H       -1.8528420    -2.5141400    -0.0211820
  H        3.0628590    -1.9839740     0.0678780
  H        3.6422020    -0.4648880     0.5003130
units angstrom
no_reorient  #important for SAPT in psi4, default
symmetry c1  #important for SAPT in psi4, default
}

set PROPERTIES_ORIGIN ["COM"]
properties('MP2/aug-cc-pvtz', properties = ['dipole'])
--------------------------------------------------------------------------

    Molecular point group: c1
  Charge       = 0
  Multiplicity = 1
  Basis Set: AUG-CC-PVTZ
    Blend: AUG-CC-PVTZ
  Basis Set: (AUG-CC-PVTZ AUX)
    Blend: AUG-CC-PVTZ-JKFIT

    Orbital Energies [Eh]
    ---------------------

    Doubly Occupied:

       1A    -20.513298     2A    -15.639467     3A    -15.628911
       4A    -15.613961     5A    -15.576106     6A    -15.569866
       7A    -11.401555     8A    -11.353190     9A    -11.346562
      10A    -11.319951    11A    -11.247247    12A     -1.393117
      13A     -1.355622    14A     -1.332491    15A     -1.224412
      16A     -1.217281    17A     -1.159554    18A     -1.050672
      19A     -0.928271    20A     -0.884055    21A     -0.836310
      22A     -0.800882    23A     -0.739580    24A     -0.731141
      25A     -0.709235    26A     -0.681651    27A     -0.659695
      28A     -0.634789    29A     -0.615532    30A     -0.595724
      31A     -0.584347    32A     -0.550808    33A     -0.495946
      34A     -0.463141    35A     -0.436461    36A     -0.431845
      37A     -0.424618    38A     -0.399835    39A     -0.318707

  @DF-RHF Final Energy:  -539.55909426462904

   => Energetics <=

    Nuclear Repulsion Energy =            594.2014610741938441
    One-Electron Energy =               -1913.7894323231632825
    Two-Electron Energy =                 780.0288769843405134
    Total Energy =                       -539.5590942646290387
  Basis Set: (AUG-CC-PVTZ AUX)
    Blend: AUG-CC-PVTZ-RI
    Molecular point group: c1

    Geometry (in Angstrom), charge = 0, multiplicity = 1:

       Center              X                  Y                   Z               Mass
    ------------   -----------------  -----------------  -----------------  -----------------
         O            0.187021062467     2.666543840915    -0.005658446799    15.994914619570
         C            0.219556062467     1.442057840915     0.007123553201    12.000000000000
         N            1.476573062467     0.760140840915    -0.002300446799    14.003074004430
         C            1.680232062467    -0.597318159085     0.004717553201    12.000000000000
         N            0.714690062467    -1.483685159085     0.014033553201    14.003074004430
         C           -0.514119937533    -0.887236159085    -0.000790446799    12.000000000000
         C           -0.699569737533     0.493958640915     0.017787353201    12.000000000000
         N           -2.207246937533     0.656884840915     0.016154553201    14.003074004430
         C           -2.697507937533    -0.572855159085     0.003252553201    12.000000000000
         N           -1.719613937533    -1.538788159085    -0.004559446799    14.003074004430
         N            3.000357062467    -1.012824159085    -0.076989446799    14.003074004430
         H            2.274475062467     1.383501840915    -0.101757446799     1.007825032230
         H           -3.750244937533    -0.824316159085    -0.000655446799     1.007825032230
         H           -1.842211937533    -2.544666159085    -0.018282446799     1.007825032230
         H            3.073489062467    -2.014500159085     0.070777553201     1.007825032230
         H            3.652832062467    -0.495414159085     0.503212553201     1.007825032230

  Basis Set: AUG-CC-PVTZ
    Blend: AUG-CC-PVTZ
  Basis Set: (AUG-CC-PVTZ AUX)
    Blend: AUG-CC-PVTZ-JKFIT
	 Reference Energy          =    -539.5590942646290387 [Eh]
	 Singles Energy            =      -0.0000000000000000 [Eh]
	 Same-Spin Energy          =      -0.5729270698591258 [Eh]
	 Opposite-Spin Energy      =      -1.6647775074097919 [Eh]
	 Correlation Energy        =      -2.2377045772689179 [Eh]
	 Total Energy              =    -541.7967988418979530 [Eh]

	 ================> DF-SCS-MP2 Energies <==================
	-----------------------------------------------------------
	 SCS Same-Spin Scale       =       0.3333333333333333 [-]
	 SCS Opposite-Spin Scale   =       1.2000000000000000 [-]
	 SCS Same-Spin Energy      =      -0.1909756899530419 [Eh]
	 SCS Opposite-Spin Energy  =      -1.9977330088917502 [Eh]
	 SCS Correlation Energy    =      -2.1887086988447919 [Eh]
	 SCS Total Energy          =    -541.7478029634738732 [Eh]
	-----------------------------------------------------------

  Dipole Moment: [D]
     X:     2.6096      Y:    -5.9960      Z:     0.8424     Total:     6.5933

*** Psi4 exiting successfully. Buy a developer a beer!
