                               Psi4 1.3.2 release

  ==> Input File <==

--------------------------------------------------------------------------
#psi4
#
memory 32 gb

molecule  {
0 1
  O        0.1763910     2.6970700    -0.0085580
  C        0.1860509     1.4285186     0.0093935
  N        1.4659430     0.7906670    -0.0052000
  C        1.6696020    -0.5667920     0.0018180
  N        0.7040600    -1.4531590     0.0111340
  C       -0.5247500    -0.8567100    -0.0036900
  C       -0.8535700     0.4975280     0.0150930
  N       -2.2178770     0.6874110     0.0132550
  C       -2.7081380    -0.5423290     0.0003530
  N       -1.7302440    -1.5082620    -0.0074590
  N        2.9897270    -0.9822980    -0.0798890
  H        2.2638450     1.4140280    -0.1046570
  H       -3.7608750    -0.7937900    -0.0035550
  H       -1.8528420    -2.5141400    -0.0211820
  H        3.0628590    -1.9839740     0.0678780
  H        3.6422020    -0.4648880     0.5003130
units angstrom
no_reorient  #important for SAPT in psi4, default
symmetry c1  #important for SAPT in psi4, default
}

set PROPERTIES_ORIGIN ["COM"]
properties('MP2/aug-cc-pvtz', properties = ['dipole'])
--------------------------------------------------------------------------

    Molecular point group: c1
  Charge       = 0
  Multiplicity = 1
  Basis Set: AUG-CC-PVTZ
    Blend: AUG-CC-PVTZ
  Basis Set: (AUG-CC-PVTZ AUX)
    Blend: AUG-CC-PVTZ-JKFIT

    Orbital Energies [Eh]
    ---------------------

    Doubly Occupied:

       1A    -20.513147     2A    -15.640212     3A    -15.634547
       4A    -15.614095     5A    -15.577258     6A    -15.568682
       7A    -11.400607     8A    -11.365442     9A    -11.334551
      10A    -11.318972    11A    -11.251803    12A     -1.387271
      13A     -1.353111    14A     -1.326102    15A     -1.222484
      16A     -1.217336    17A     -1.182501    18A     -1.041654
      19A     -0.915315    20A     -0.885572    21A     -0.849195
      22A     -0.801132    23A     -0.745776    24A     -0.733358
      25A     -0.701696    26A     -0.674872    27A     -0.659177
      28A     -0.637014    29A     -0.606502    30A     -0.598831
      31A     -0.594604    32A     -0.539176    33A     -0.502896
      34A     -0.464289    35A     -0.441554    36A     -0.428808
      37A     -0.427463    38A     -0.414773    39A     -0.307278

  @DF-RHF Final Energy:  -539.58041046390872

   => Energetics <=

    Nuclear Repulsion Energy =            594.0053786157182003
    One-Electron Energy =               -1913.4134657110337230
    Two-Electron Energy =                 779.8276766314068027
    Total Energy =                       -539.5804104639087200
  Basis Set: (AUG-CC-PVTZ AUX)
    Blend: AUG-CC-PVTZ-RI
    Molecular point group: c1

    Geometry (in Angstrom), charge = 0, multiplicity = 1:

       Center              X                  Y                   Z               Mass
    ------------   -----------------  -----------------  -----------------  -----------------
         O            0.200228287855     2.672186143001    -0.006085435558    15.994914619570
         C            0.209888187855     1.403634743001     0.011866064442    12.000000000000
         N            1.489780287855     0.765783143001    -0.002727435558    14.003074004430
         C            1.693439287855    -0.591675856999     0.004290564442    12.000000000000
         N            0.727897287855    -1.478042856999     0.013606564442    14.003074004430
         C           -0.500912712145    -0.881593856999    -0.001217435558    12.000000000000
         C           -0.829732712145     0.472644143001     0.017565564442    12.000000000000
         N           -2.194039712145     0.662527143001     0.015727564442    14.003074004430
         C           -2.684300712145    -0.567212856999     0.002825564442    12.000000000000
         N           -1.706406712145    -1.533145856999    -0.004986435558    14.003074004430
         N            3.013564287855    -1.007181856999    -0.077416435558    14.003074004430
         H            2.287682287855     1.389144143001    -0.102184435558     1.007825032230
         H           -3.737037712145    -0.818673856999    -0.001082435558     1.007825032230
         H           -1.829004712145    -2.539023856999    -0.018709435558     1.007825032230
         H            3.086696287855    -2.008857856999     0.070350564442     1.007825032230
         H            3.666039287855    -0.489771856999     0.502785564442     1.007825032230

  Basis Set: AUG-CC-PVTZ
    Blend: AUG-CC-PVTZ
  Basis Set: (AUG-CC-PVTZ AUX)
    Blend: AUG-CC-PVTZ-JKFIT
	 Reference Energy          =    -539.5804104639087200 [Eh]
	 Singles Energy            =      -0.0000000000000000 [Eh]
	 Same-Spin Energy          =      -0.5739802215111152 [Eh]
	 Opposite-Spin Energy      =      -1.6649441078689797 [Eh]
	 Correlation Energy        =      -2.2389243293800947 [Eh]
	 Total Energy              =    -541.8193347932888173 [Eh]

	 ================> DF-SCS-MP2 Energies <==================
	-----------------------------------------------------------
	 SCS Same-Spin Scale       =       0.3333333333333333 [-]
	 SCS Opposite-Spin Scale   =       1.2000000000000000 [-]
	 SCS Same-Spin Energy      =      -0.1913267405037050 [Eh]
	 SCS Opposite-Spin Energy  =      -1.9979329294427757 [Eh]
	 SCS Correlation Energy    =      -2.1892596699464808 [Eh]
	 SCS Total Energy          =    -541.7696701338552430 [Eh]
	-----------------------------------------------------------

  Dipole Moment: [D]
     X:     2.5723      Y:    -6.0686      Z:     0.8496     Total:     6.6457

*** Psi4 exiting successfully. Buy a developer a beer!
