                               Psi4 1.3.2 release

  ==> Input File <==

--------------------------------------------------------------------------
#psi4
#
memory 32 gb

molecule  {
0 1
  O        0.1763910     2.6970700    -0.0085580
  C        0.2089260     1.4725840     0.0042240
  N        1.4659430     0.7906670    -0.0052000
  C        1.6696020    -0.5667920     0.0018180
  N        0.7040600    -1.4531590     0.0111340
  C       -0.5247500    -0.8567100    -0.0036900
  C       -0.8701371     0.4028255     0.0141558
  N       -2.2178770     0.6874110     0.0132550
  C       -2.7081380    -0.5423290     0.0003530
  N       -1.7302440    -1.5082620    -0.0074590
  N        2.9897270    -0.9822980    -0.0798890
  H        2.2638450     1.4140280    -0.1046570
  H       -3.7608750    -0.7937900    -0.0035550
  H       -1.8528420    -2.5141400    -0.0211820
  H        3.0628590    -1.9839740     0.0678780
  H        3.6422020    -0.4648880     0.5003130
units angstrom
no_reorient  #important for SAPT in psi4, default
symmetry c1  #important for SAPT in psi4, default
}

set PROPERTIES_ORIGIN ["COM"]
properties('MP2/aug-cc-pvtz', properties = ['dipole'])
--------------------------------------------------------------------------

    Molecular point group: c1
  Charge       = 0
  Multiplicity = 1
  Basis Set: AUG-CC-PVTZ
    Blend: AUG-CC-PVTZ
  Basis Set: (AUG-CC-PVTZ AUX)
    Blend: AUG-CC-PVTZ-JKFIT

    Orbital Energies [Eh]
    ---------------------

    Doubly Occupied:

       1A    -20.535020     2A    -15.630971     3A    -15.629606
       4A    -15.610809     5A    -15.570091     6A    -15.563624
       7A    -11.396442     8A    -11.376436     9A    -11.314431
      10A    -11.309993    11A    -11.248295    12A     -1.396444
      13A     -1.366955    14A     -1.336674    15A     -1.219930
      16A     -1.217187    17A     -1.175603    18A     -1.036234
      19A     -0.899717    20A     -0.881760    21A     -0.849023
      22A     -0.798238    23A     -0.736639    24A     -0.726570
      25A     -0.703754    26A     -0.675156    27A     -0.656936
      28A     -0.632411    29A     -0.618254    30A     -0.599277
      31A     -0.586894    32A     -0.546727    33A     -0.499353
      34A     -0.461646    35A     -0.448818    36A     -0.437438
      37A     -0.433398    38A     -0.411446    39A     -0.311000

  @DF-RHF Final Energy:  -539.57639085757387

   => Energetics <=

    Nuclear Repulsion Energy =            594.4454745417632466
    One-Electron Energy =               -1914.3453373965053288
    Two-Electron Energy =                 780.3234719971680988
    Total Energy =                       -539.5763908575738697
  Basis Set: (AUG-CC-PVTZ AUX)
    Blend: AUG-CC-PVTZ-RI
    Molecular point group: c1

    Geometry (in Angstrom), charge = 0, multiplicity = 1:

       Center              X                  Y                   Z               Mass
    ------------   -----------------  -----------------  -----------------  -----------------
         O            0.199727153822     2.676208967061    -0.005600293642    15.994914619570
         C            0.232262153822     1.451722967061     0.007181706358    12.000000000000
         N            1.489279153822     0.769805967061    -0.002242293642    14.003074004430
         C            1.692938153822    -0.587653032939     0.004775706358    12.000000000000
         N            0.727396153822    -1.474020032939     0.014091706358    14.003074004430
         C           -0.501413846178    -0.877571032939    -0.000732293642    12.000000000000
         C           -0.846800946178     0.381964467061     0.017113506358    12.000000000000
         N           -2.194540846178     0.666549967061     0.016212706358    14.003074004430
         C           -2.684801846178    -0.563190032939     0.003310706358    12.000000000000
         N           -1.706907846178    -1.529123032939    -0.004501293642    14.003074004430
         N            3.013063153822    -1.003159032939    -0.076931293642    14.003074004430
         H            2.287181153822     1.393166967061    -0.101699293642     1.007825032230
         H           -3.737538846178    -0.814651032939    -0.000597293642     1.007825032230
         H           -1.829505846178    -2.535001032939    -0.018224293642     1.007825032230
         H            3.086195153822    -2.004835032939     0.070835706358     1.007825032230
         H            3.665538153822    -0.485749032939     0.503270706358     1.007825032230

  Basis Set: AUG-CC-PVTZ
    Blend: AUG-CC-PVTZ
  Basis Set: (AUG-CC-PVTZ AUX)
    Blend: AUG-CC-PVTZ-JKFIT
	 Reference Energy          =    -539.5763908575738697 [Eh]
	 Singles Energy            =      -0.0000000000000000 [Eh]
	 Same-Spin Energy          =      -0.5718866885876657 [Eh]
	 Opposite-Spin Energy      =      -1.6623856591567194 [Eh]
	 Correlation Energy        =      -2.2342723477443851 [Eh]
	 Total Energy              =    -541.8106632053182921 [Eh]

	 ================> DF-SCS-MP2 Energies <==================
	-----------------------------------------------------------
	 SCS Same-Spin Scale       =       0.3333333333333333 [-]
	 SCS Opposite-Spin Scale   =       1.2000000000000000 [-]
	 SCS Same-Spin Energy      =      -0.1906288961958885 [Eh]
	 SCS Opposite-Spin Energy  =      -1.9948627909880632 [Eh]
	 SCS Correlation Energy    =      -2.1854916871839518 [Eh]
	 SCS Total Energy          =    -541.7618825447577819 [Eh]
	-----------------------------------------------------------

  Dipole Moment: [D]
     X:     2.7597      Y:    -5.3352      Z:     0.8431     Total:     6.0656

*** Psi4 exiting successfully. Buy a developer a beer!
