                               Psi4 1.3.2 release

  ==> Input File <==

--------------------------------------------------------------------------
#psi4
#
memory 32 gb

molecule  {
0 1
  O        0.1763910     2.6970700    -0.0085580
  C        0.1012174     1.5783006     0.0072305
  N        1.4659430     0.7906670    -0.0052000
  C        1.6696020    -0.5667920     0.0018180
  N        0.7040600    -1.4531590     0.0111340
  C       -0.5247500    -0.8567100    -0.0036900
  C       -0.8535700     0.4975280     0.0150930
  N       -2.2178770     0.6874110     0.0132550
  C       -2.7081380    -0.5423290     0.0003530
  N       -1.7302440    -1.5082620    -0.0074590
  N        2.9897270    -0.9822980    -0.0798890
  H        2.2638450     1.4140280    -0.1046570
  H       -3.7608750    -0.7937900    -0.0035550
  H       -1.8528420    -2.5141400    -0.0211820
  H        3.0628590    -1.9839740     0.0678780
  H        3.6422020    -0.4648880     0.5003130
units angstrom
no_reorient  #important for SAPT in psi4, default
symmetry c1  #important for SAPT in psi4, default
}

set PROPERTIES_ORIGIN ["COM"]
properties('MP2/aug-cc-pvtz', properties = ['dipole'])
--------------------------------------------------------------------------

    Molecular point group: c1
  Charge       = 0
  Multiplicity = 1
  Basis Set: AUG-CC-PVTZ
    Blend: AUG-CC-PVTZ
  Basis Set: (AUG-CC-PVTZ AUX)
    Blend: AUG-CC-PVTZ-JKFIT

    Orbital Energies [Eh]
    ---------------------

    Doubly Occupied:

       1A    -20.556672     2A    -15.634651     3A    -15.600707
       4A    -15.600235     5A    -15.563027     6A    -15.559351
       7A    -11.383891     8A    -11.373739     9A    -11.328660
      10A    -11.310739    11A    -11.250551    12A     -1.467266
      13A     -1.365318    14A     -1.324017    15A     -1.209108
      16A     -1.194253    17A     -1.169124    18A     -1.026012
      19A     -0.899092    20A     -0.861511    21A     -0.843985
      22A     -0.782147    23A     -0.727396    24A     -0.717041
      25A     -0.704991    26A     -0.673489    27A     -0.657295
      28A     -0.649627    29A     -0.627729    30A     -0.599482
      31A     -0.595844    32A     -0.574834    33A     -0.492465
      34A     -0.454642    35A     -0.448549    36A     -0.436054
      37A     -0.431722    38A     -0.406080    39A     -0.300571

  @DF-RHF Final Energy:  -539.56855907602835

   => Energetics <=

    Nuclear Repulsion Energy =            593.0329841100307249
    One-Electron Energy =               -1911.5993514708302428
    Two-Electron Energy =                 778.9978082847712813
    Total Energy =                       -539.5685590760283503
  Basis Set: (AUG-CC-PVTZ AUX)
    Blend: AUG-CC-PVTZ-RI
    Molecular point group: c1

    Geometry (in Angstrom), charge = 0, multiplicity = 1:

       Center              X                  Y                   Z               Mass
    ------------   -----------------  -----------------  -----------------  -----------------
         O            0.206967817664     2.660286831362    -0.005913597746    15.994914619570
         C            0.131794217664     1.541517431362     0.009874902254    12.000000000000
         N            1.496519817664     0.753883831362    -0.002555597746    14.003074004430
         C            1.700178817664    -0.603575168638     0.004462402254    12.000000000000
         N            0.734636817664    -1.489942168638     0.013778402254    14.003074004430
         C           -0.494173182336    -0.893493168638    -0.001045597746    12.000000000000
         C           -0.822993182336     0.460744831362     0.017737402254    12.000000000000
         N           -2.187300182336     0.650627831362     0.015899402254    14.003074004430
         C           -2.677561182336    -0.579112168638     0.002997402254    12.000000000000
         N           -1.699667182336    -1.545045168638    -0.004814597746    14.003074004430
         N            3.020303817664    -1.019081168638    -0.077244597746    14.003074004430
         H            2.294421817664     1.377244831362    -0.102012597746     1.007825032230
         H           -3.730298182336    -0.830573168638    -0.000910597746     1.007825032230
         H           -1.822265182336    -2.550923168638    -0.018537597746     1.007825032230
         H            3.093435817664    -2.020757168638     0.070522402254     1.007825032230
         H            3.672778817664    -0.501671168638     0.502957402254     1.007825032230

  Basis Set: AUG-CC-PVTZ
    Blend: AUG-CC-PVTZ
  Basis Set: (AUG-CC-PVTZ AUX)
    Blend: AUG-CC-PVTZ-JKFIT
	 Reference Energy          =    -539.5685590760283503 [Eh]
	 Singles Energy            =      -0.0000000000000000 [Eh]
	 Same-Spin Energy          =      -0.5715673363519319 [Eh]
	 Opposite-Spin Energy      =      -1.6605392550363673 [Eh]
	 Correlation Energy        =      -2.2321065913882991 [Eh]
	 Total Energy              =    -541.8006656674166379 [Eh]

	 ================> DF-SCS-MP2 Energies <==================
	-----------------------------------------------------------
	 SCS Same-Spin Scale       =       0.3333333333333333 [-]
	 SCS Opposite-Spin Scale   =       1.2000000000000000 [-]
	 SCS Same-Spin Energy      =      -0.1905224454506440 [Eh]
	 SCS Opposite-Spin Energy  =      -1.9926471060436408 [Eh]
	 SCS Correlation Energy    =      -2.1831695514942848 [Eh]
	 SCS Total Energy          =    -541.7517286275226525 [Eh]
	-----------------------------------------------------------

  Dipole Moment: [D]
     X:     2.0250      Y:    -4.3495      Z:     0.8392     Total:     4.8707

*** Psi4 exiting successfully. Buy a developer a beer!
