                               Psi4 1.3.2 release

  ==> Input File <==

--------------------------------------------------------------------------
#psi4
#
memory 32 gb

molecule  {
0 1
  O        0.1763910     2.6970700    -0.0085580
  C        0.2089260     1.4725840     0.0042240
  N        1.4659430     0.7906670    -0.0052000
  C        1.6696020    -0.5667920     0.0018180
  N        0.7596836    -1.3214426     0.0104223
  C       -0.5247500    -0.8567100    -0.0036900
  C       -0.8535700     0.4975280     0.0150930
  N       -2.2178770     0.6874110     0.0132550
  C       -2.7081380    -0.5423290     0.0003530
  N       -1.7302440    -1.5082620    -0.0074590
  N        2.9897270    -0.9822980    -0.0798890
  H        2.2638450     1.4140280    -0.1046570
  H       -3.7608750    -0.7937900    -0.0035550
  H       -1.8528420    -2.5141400    -0.0211820
  H        3.0628590    -1.9839740     0.0678780
  H        3.6422020    -0.4648880     0.5003130
units angstrom
no_reorient  #important for SAPT in psi4, default
symmetry c1  #important for SAPT in psi4, default
}

set PROPERTIES_ORIGIN ["COM"]
properties('MP2/aug-cc-pvtz', properties = ['dipole'])
--------------------------------------------------------------------------

    Molecular point group: c1
  Charge       = 0
  Multiplicity = 1
  Basis Set: AUG-CC-PVTZ
    Blend: AUG-CC-PVTZ
  Basis Set: (AUG-CC-PVTZ AUX)
    Blend: AUG-CC-PVTZ-JKFIT

    Orbital Energies [Eh]
    ---------------------

    Doubly Occupied:

       1A    -20.522493     2A    -15.646258     3A    -15.614986
       4A    -15.598797     5A    -15.569240     6A    -15.557227
       7A    -11.369334     8A    -11.366118     9A    -11.332697
      10A    -11.319436    11A    -11.255553    12A     -1.400227
      13A     -1.365007    14A     -1.348935    15A     -1.223905
      16A     -1.211931    17A     -1.186157    18A     -1.042577
      19A     -0.912050    20A     -0.880665    21A     -0.848913
      22A     -0.810710    23A     -0.736516    24A     -0.734573
      25A     -0.696243    26A     -0.673060    27A     -0.662597
      28A     -0.648656    29A     -0.614448    30A     -0.603625
      31A     -0.601445    32A     -0.550853    33A     -0.491986
      34A     -0.461731    35A     -0.436671    36A     -0.430075
      37A     -0.426622    38A     -0.416793    39A     -0.313159

  @DF-RHF Final Energy:  -539.57120631197108

   => Energetics <=

    Nuclear Repulsion Energy =            597.1510256842564104
    One-Electron Energy =               -1919.6799238890616834
    Two-Electron Energy =                 782.9576918928341911
    Total Energy =                       -539.5712063119710820
  Basis Set: (AUG-CC-PVTZ AUX)
    Blend: AUG-CC-PVTZ-RI
    Molecular point group: c1

    Geometry (in Angstrom), charge = 0, multiplicity = 1:

       Center              X                  Y                   Z               Mass
    ------------   -----------------  -----------------  -----------------  -----------------
         O            0.193254393760     2.656474600004    -0.005608770420    15.994914619570
         C            0.225789393760     1.431988600004     0.007173229580    12.000000000000
         N            1.482806393760     0.750071600004    -0.002250770420    14.003074004430
         C            1.686465393760    -0.607387399996     0.004767229580    12.000000000000
         N            0.776546993760    -1.362037999996     0.013371529580    14.003074004430
         C           -0.507886606240    -0.897305399996    -0.000740770420    12.000000000000
         C           -0.836706606240     0.456932600004     0.018042229580    12.000000000000
         N           -2.201013606240     0.646815600004     0.016204229580    14.003074004430
         C           -2.691274606240    -0.582924399996     0.003302229580    12.000000000000
         N           -1.713380606240    -1.548857399996    -0.004509770420    14.003074004430
         N            3.006590393760    -1.022893399996    -0.076939770420    14.003074004430
         H            2.280708393760     1.373432600004    -0.101707770420     1.007825032230
         H           -3.744011606240    -0.834385399996    -0.000605770420     1.007825032230
         H           -1.835978606240    -2.554735399996    -0.018232770420     1.007825032230
         H            3.079722393760    -2.024569399996     0.070827229580     1.007825032230
         H            3.659065393760    -0.505483399996     0.503262229580     1.007825032230

  Basis Set: AUG-CC-PVTZ
    Blend: AUG-CC-PVTZ
  Basis Set: (AUG-CC-PVTZ AUX)
    Blend: AUG-CC-PVTZ-JKFIT
	 Reference Energy          =    -539.5712063119710820 [Eh]
	 Singles Energy            =      -0.0000000000000000 [Eh]
	 Same-Spin Energy          =      -0.5719124484347100 [Eh]
	 Opposite-Spin Energy      =      -1.6599588275252131 [Eh]
	 Correlation Energy        =      -2.2318712759599233 [Eh]
	 Total Energy              =    -541.8030775879310568 [Eh]

	 ================> DF-SCS-MP2 Energies <==================
	-----------------------------------------------------------
	 SCS Same-Spin Scale       =       0.3333333333333333 [-]
	 SCS Opposite-Spin Scale   =       1.2000000000000000 [-]
	 SCS Same-Spin Energy      =      -0.1906374828115700 [Eh]
	 SCS Opposite-Spin Energy  =      -1.9919505930302557 [Eh]
	 SCS Correlation Energy    =      -2.1825880758418257 [Eh]
	 SCS Total Energy          =    -541.7537943878129454 [Eh]
	-----------------------------------------------------------

  Dipole Moment: [D]
     X:     2.0862      Y:    -6.0053      Z:     0.8600     Total:     6.4152

*** Psi4 exiting successfully. Buy a developer a beer!
