                               Psi4 1.4a3.dev225

  ==> Input File <==

--------------------------------------------------------------------------
#psi4
#
memory 32 gb

molecule  {
0 1
  O        0.1763800     2.6970850    -0.0086780
  C        0.2088860     1.4725900     0.0042210
  N        1.4659360     0.7906750    -0.0050880
  C        1.6696170    -0.5667500     0.0018210
  N        0.7040680    -1.4531450     0.0111020
  C       -0.5247290    -0.8567090    -0.0037110
  C       -0.8683199     0.4840195     0.0153725
  N       -2.2178950     0.6873840     0.0133320
  C       -2.7081200    -0.5423560     0.0003580
  N       -1.7302140    -1.5082770    -0.0075250
  N        2.9897250    -0.9823190    -0.0798750
  H        2.2637990     1.4140370    -0.1048620
  H       -3.7608500    -0.7938460    -0.0035590
  H       -1.8527810    -2.5141570    -0.0214260
  H        3.0628080    -1.9839860     0.0679760
  H        3.6422460    -0.4648460     0.5002060
units angstrom
no_reorient  #important for SAPT in psi4, default
symmetry c1  #important for SAPT in psi4, default
}

set PROPERTIES_ORIGIN ["COM"]
properties('MP2/aug-cc-pvtz', properties = ['dipole'])
--------------------------------------------------------------------------

    Molecular point group: c1
  Charge       = 0
  Multiplicity = 1
  Basis Set: AUG-CC-PVTZ
    Blend: AUG-CC-PVTZ
  Basis Set: (AUG-CC-PVTZ AUX)
    Blend: AUG-CC-PVTZ-JKFIT

    Orbital Energies [Eh]
    ---------------------

    Doubly Occupied:

       1A    -20.526535     2A    -15.635387     3A    -15.632122
       4A    -15.612049     5A    -15.573067     6A    -15.564587
       7A    -11.398063     8A    -11.370055     9A    -11.324139
      10A    -11.313765    11A    -11.251620    12A     -1.394023
      13A     -1.362383    14A     -1.336354    15A     -1.220474
      16A     -1.218709    17A     -1.179816    18A     -1.030035
      19A     -0.904083    20A     -0.884915    21A     -0.846777
      22A     -0.798866    23A     -0.740083    24A     -0.729846
      25A     -0.700531    26A     -0.672744    27A     -0.656193
      28A     -0.633601    29A     -0.615384    30A     -0.600615
      31A     -0.596862    32A     -0.547581    33A     -0.500312
      34A     -0.462482    35A     -0.445133    36A     -0.433403
      37A     -0.432822    38A     -0.413377    39A     -0.302256

  @DF-RHF Final Energy:  -539.58718176290108

   => Energetics <=

    Nuclear Repulsion Energy =            593.7163639463727804
    One-Electron Energy =               -1912.8849922397985210
    Two-Electron Energy =                 779.5814465305245449
    Total Energy =                       -539.5871817629010820
  Basis Set: (AUG-CC-PVTZ AUX)
    Blend: AUG-CC-PVTZ-RI
    Molecular point group: c1

    Geometry (in Angstrom), charge = 0, multiplicity = 1:

       Center              X                  Y                   Z               Mass
    ------------   -----------------  -----------------  -----------------  -----------------
         O            0.199570600469     2.669774266046    -0.005809626781    15.994914619570
         C            0.232076600469     1.445279266046     0.007089373219    12.000000000000
         N            1.489126600469     0.763364266046    -0.002219626781    14.003074004430
         C            1.692807600469    -0.594060733954     0.004689373219    12.000000000000
         N            0.727258600469    -1.480455733954     0.013970373219    14.003074004430
         C           -0.501538399531    -0.884019733954    -0.000842626781    12.000000000000
         C           -0.845129299531     0.456708766046     0.018240873219    12.000000000000
         N           -2.194704399531     0.660073266046     0.016200373219    14.003074004430
         C           -2.684929399531    -0.569666733954     0.003226373219    12.000000000000
         N           -1.707023399531    -1.535587733954    -0.004656626781    14.003074004430
         N            3.012915600469    -1.009629733954    -0.077006626781    14.003074004430
         H            2.286989600469     1.386726266046    -0.101993626781     1.007825032230
         H           -3.737659399531    -0.821156733954    -0.000690626781     1.007825032230
         H           -1.829590399531    -2.541467733954    -0.018557626781     1.007825032230
         H            3.085998600469    -2.011296733954     0.070844373219     1.007825032230
         H            3.665436600469    -0.492156733954     0.503074373219     1.007825032230

  Basis Set: AUG-CC-PVTZ
    Blend: AUG-CC-PVTZ
  Basis Set: (AUG-CC-PVTZ AUX)
    Blend: AUG-CC-PVTZ-JKFIT
	 Reference Energy          =    -539.5871817629010820 [Eh]
	 Singles Energy            =      -0.0000000000000000 [Eh]
	 Same-Spin Energy          =      -0.5729963950577316 [Eh]
	 Opposite-Spin Energy      =      -1.6630835455364443 [Eh]
	 Correlation Energy        =      -2.2360799405941760 [Eh]
	 Total Energy              =    -541.8232617034952909 [Eh]

	 ================> DF-SCS-MP2 Energies <==================
	-----------------------------------------------------------
	 SCS Same-Spin Scale       =       0.3333333333333333 [-]
	 SCS Opposite-Spin Scale   =       1.2000000000000000 [-]
	 SCS Same-Spin Energy      =      -0.1909987983525772 [Eh]
	 SCS Opposite-Spin Energy  =      -1.9957002546437330 [Eh]
	 SCS Correlation Energy    =      -2.1866990529963104 [Eh]
	 SCS Total Energy          =    -541.7738808158974280 [Eh]
	-----------------------------------------------------------

  Dipole Moment: [D]
     X:     2.6805      Y:    -5.5704      Z:     0.8435     Total:     6.2390

*** Psi4 exiting successfully. Buy a developer a beer!
