                               Psi4 1.3.2 release

  ==> Input File <==

--------------------------------------------------------------------------
#psi4
#
memory 32 gb

molecule  {
0 1
  O        0.1763910     2.6970700    -0.0085580
  C        0.1644285     1.3832380     0.0053353
  N        1.4659430     0.7906670    -0.0052000
  C        1.6696020    -0.5667920     0.0018180
  N        0.7040600    -1.4531590     0.0111340
  C       -0.5247500    -0.8567100    -0.0036900
  C       -0.8535700     0.4975280     0.0150930
  N       -2.2178770     0.6874110     0.0132550
  C       -2.7081380    -0.5423290     0.0003530
  N       -1.7302440    -1.5082620    -0.0074590
  N        2.9897270    -0.9822980    -0.0798890
  H        2.2638450     1.4140280    -0.1046570
  H       -3.7608750    -0.7937900    -0.0035550
  H       -1.8528420    -2.5141400    -0.0211820
  H        3.0628590    -1.9839740     0.0678780
  H        3.6422020    -0.4648880     0.5003130
units angstrom
no_reorient  #important for SAPT in psi4, default
symmetry c1  #important for SAPT in psi4, default
}

set PROPERTIES_ORIGIN ["COM"]
properties('MP2/aug-cc-pvtz', properties = ['dipole'])
--------------------------------------------------------------------------

    Molecular point group: c1
  Charge       = 0
  Multiplicity = 1
  Basis Set: AUG-CC-PVTZ
    Blend: AUG-CC-PVTZ
  Basis Set: (AUG-CC-PVTZ AUX)
    Blend: AUG-CC-PVTZ-JKFIT

    Orbital Energies [Eh]
    ---------------------

    Doubly Occupied:

       1A    -20.500924     2A    -15.644401     3A    -15.637083
       4A    -15.615884     5A    -15.581202     6A    -15.572103
       7A    -11.402752     8A    -11.361288     9A    -11.341935
      10A    -11.323965    11A    -11.251499    12A     -1.388803
      13A     -1.352314    14A     -1.305614    15A     -1.225701
      16A     -1.212298    17A     -1.186915    18A     -1.052760
      19A     -0.923965    20A     -0.885681    21A     -0.853547
      22A     -0.803116    23A     -0.751464    24A     -0.736591
      25A     -0.703094    26A     -0.677278    27A     -0.662666
      28A     -0.641266    29A     -0.611579    30A     -0.601165
      31A     -0.573256    32A     -0.533014    33A     -0.506010
      34A     -0.466650    35A     -0.443299    36A     -0.424771
      37A     -0.417664    38A     -0.413336    39A     -0.311434

  @DF-RHF Final Energy:  -539.56543082725682

   => Energetics <=

    Nuclear Repulsion Energy =            594.4329111015424587
    One-Electron Energy =               -1914.2001095053271911
    Two-Electron Energy =                 780.2017675765279137
    Total Energy =                       -539.5654308272568187
  Basis Set: (AUG-CC-PVTZ AUX)
    Blend: AUG-CC-PVTZ-RI
    Molecular point group: c1

    Geometry (in Angstrom), charge = 0, multiplicity = 1:

       Center              X                  Y                   Z               Mass
    ------------   -----------------  -----------------  -----------------  -----------------
         O            0.201946062194     2.675783424186    -0.005763035092    15.994914619570
         C            0.189983562194     1.361951424186     0.008130264908    12.000000000000
         N            1.491498062194     0.769380424186    -0.002405035092    14.003074004430
         C            1.695157062194    -0.588078575814     0.004612964908    12.000000000000
         N            0.729615062194    -1.474445575814     0.013928964908    14.003074004430
         C           -0.499194937806    -0.877996575814    -0.000895035092    12.000000000000
         C           -0.828014937806     0.476241424186     0.017887964908    12.000000000000
         N           -2.192321937806     0.666124424186     0.016049964908    14.003074004430
         C           -2.682582937806    -0.563615575814     0.003147964908    12.000000000000
         N           -1.704688937806    -1.529548575814    -0.004664035092    14.003074004430
         N            3.015282062194    -1.003584575814    -0.077094035092    14.003074004430
         H            2.289400062194     1.392741424186    -0.101862035092     1.007825032230
         H           -3.735319937806    -0.815076575814    -0.000760035092     1.007825032230
         H           -1.827286937806    -2.535426575814    -0.018387035092     1.007825032230
         H            3.088414062194    -2.005260575814     0.070672964908     1.007825032230
         H            3.667757062194    -0.486174575814     0.503107964908     1.007825032230

  Basis Set: AUG-CC-PVTZ
    Blend: AUG-CC-PVTZ
  Basis Set: (AUG-CC-PVTZ AUX)
    Blend: AUG-CC-PVTZ-JKFIT
	 Reference Energy          =    -539.5654308272568187 [Eh]
	 Singles Energy            =      -0.0000000000000000 [Eh]
	 Same-Spin Energy          =      -0.5748882415996155 [Eh]
	 Opposite-Spin Energy      =      -1.6667118971170969 [Eh]
	 Correlation Energy        =      -2.2416001387167124 [Eh]
	 Total Energy              =    -541.8070309659735813 [Eh]

	 ================> DF-SCS-MP2 Energies <==================
	-----------------------------------------------------------
	 SCS Same-Spin Scale       =       0.3333333333333333 [-]
	 SCS Opposite-Spin Scale   =       1.2000000000000000 [-]
	 SCS Same-Spin Energy      =      -0.1916294138665385 [Eh]
	 SCS Opposite-Spin Energy  =      -2.0000542765405163 [Eh]
	 SCS Correlation Energy    =      -2.1916836904070549 [Eh]
	 SCS Total Energy          =    -541.7571145176639220 [Eh]
	-----------------------------------------------------------

  Dipole Moment: [D]
     X:     2.4850      Y:    -6.5054      Z:     0.8460     Total:     7.0151

*** Psi4 exiting successfully. Buy a developer a beer!
