                               Psi4 1.3.2 release

  ==> Input File <==

--------------------------------------------------------------------------
#psi4
#
memory 32 gb

molecule  {
0 1
  O        0.1763910     2.6970700    -0.0085580
  C        0.2089260     1.4725840     0.0042240
  N        1.4659430     0.7906670    -0.0052000
  C        1.6696020    -0.5667920     0.0018180
  N        0.7040600    -1.4531590     0.0111340
  C       -0.5247500    -0.8567100    -0.0036900
  C       -0.8535700     0.4975280     0.0150930
  N       -2.2178770     0.6874110     0.0132550
  C       -2.7081380    -0.5423290     0.0003530
  N       -1.7302440    -1.5082620    -0.0074590
  N        2.9897270    -0.9822980    -0.0798890
  H        2.2638450     1.4140280    -0.1046570
  H       -3.7608750    -0.7937900    -0.0035550
  H       -1.8528420    -2.5141400    -0.0211820
  H        3.1390763    -1.9623285     0.1386819
  H        3.6422020    -0.4648880     0.5003130
units angstrom
no_reorient  #important for SAPT in psi4, default
symmetry c1  #important for SAPT in psi4, default
}

set PROPERTIES_ORIGIN ["COM"]
properties('MP2/aug-cc-pvtz', properties = ['dipole'])
--------------------------------------------------------------------------

    Molecular point group: c1
  Charge       = 0
  Multiplicity = 1
  Basis Set: AUG-CC-PVTZ
    Blend: AUG-CC-PVTZ
  Basis Set: (AUG-CC-PVTZ AUX)
    Blend: AUG-CC-PVTZ-JKFIT

    Orbital Energies [Eh]
    ---------------------

    Doubly Occupied:

       1A    -20.524560     2A    -15.636207     3A    -15.632582
       4A    -15.612617     5A    -15.573549     6A    -15.565331
       7A    -11.399640     8A    -11.368286     9A    -11.327475
      10A    -11.314393    11A    -11.251584    12A     -1.393693
      13A     -1.360983    14A     -1.335754    15A     -1.221149
      16A     -1.218511    17A     -1.178303    18A     -1.031940
      19A     -0.906786    20A     -0.887593    21A     -0.844966
      22A     -0.797515    23A     -0.740706    24A     -0.734636
      25A     -0.695171    26A     -0.671030    27A     -0.656592
      28A     -0.634017    29A     -0.614608    30A     -0.601558
      31A     -0.596761    32A     -0.548345    33A     -0.499540
      34A     -0.463662    35A     -0.443253    36A     -0.433270
      37A     -0.432694    38A     -0.412230    39A     -0.303023

  @DF-RHF Final Energy:  -539.58640601347543

   => Energetics <=

    Nuclear Repulsion Energy =            593.5219745829846261
    One-Electron Energy =               -1912.4877350235885842
    Two-Electron Energy =                 779.3793544271284190
    Total Energy =                       -539.5864060134754254
  Basis Set: (AUG-CC-PVTZ AUX)
    Blend: AUG-CC-PVTZ-RI
    Molecular point group: c1

    Geometry (in Angstrom), charge = 0, multiplicity = 1:

       Center              X                  Y                   Z               Mass
    ------------   -----------------  -----------------  -----------------  -----------------
         O            0.197902460146     2.668540980286    -0.006147163325    15.994914619570
         C            0.230437460146     1.444054980286     0.006634836675    12.000000000000
         N            1.487454460146     0.762137980286    -0.002789163325    14.003074004430
         C            1.691113460146    -0.595321019714     0.004228836675    12.000000000000
         N            0.725571460146    -1.481688019714     0.013544836675    14.003074004430
         C           -0.503238539854    -0.885239019714    -0.001279163325    12.000000000000
         C           -0.832058539854     0.468998980286     0.017503836675    12.000000000000
         N           -2.196365539854     0.658881980286     0.015665836675    14.003074004430
         C           -2.686626539854    -0.570858019714     0.002763836675    12.000000000000
         N           -1.708732539854    -1.536791019714    -0.005048163325    14.003074004430
         N            3.011238460146    -1.010827019714    -0.077478163325    14.003074004430
         H            2.285356460146     1.385498980286    -0.102246163325     1.007825032230
         H           -3.739363539854    -0.822319019714    -0.001144163325     1.007825032230
         H           -1.831330539854    -2.542669019714    -0.018771163325     1.007825032230
         H            3.160587760146    -1.990857519714     0.141092736675     1.007825032230
         H            3.663713460146    -0.493417019714     0.502723836675     1.007825032230

  Basis Set: AUG-CC-PVTZ
    Blend: AUG-CC-PVTZ
  Basis Set: (AUG-CC-PVTZ AUX)
    Blend: AUG-CC-PVTZ-JKFIT
	 Reference Energy          =    -539.5864060134754254 [Eh]
	 Singles Energy            =      -0.0000000000000000 [Eh]
	 Same-Spin Energy          =      -0.5730260404455040 [Eh]
	 Opposite-Spin Energy      =      -1.6632499355073114 [Eh]
	 Correlation Energy        =      -2.2362759759528155 [Eh]
	 Total Energy              =    -541.8226819894282471 [Eh]

	 ================> DF-SCS-MP2 Energies <==================
	-----------------------------------------------------------
	 SCS Same-Spin Scale       =       0.3333333333333333 [-]
	 SCS Opposite-Spin Scale   =       1.2000000000000000 [-]
	 SCS Same-Spin Energy      =      -0.1910086801485013 [Eh]
	 SCS Opposite-Spin Energy  =      -1.9958999226087735 [Eh]
	 SCS Correlation Energy    =      -2.1869086027572746 [Eh]
	 SCS Total Energy          =    -541.7733146162327103 [Eh]
	-----------------------------------------------------------

  Dipole Moment: [D]
     X:     2.6904      Y:    -5.6159      Z:     0.9217     Total:     6.2950

*** Psi4 exiting successfully. Buy a developer a beer!
