                               Psi4 1.3.2 release

  ==> Input File <==

--------------------------------------------------------------------------
#psi4
#
memory 32 gb

molecule  {
0 1
  O        0.1763910     2.6970700    -0.0085580
  C        0.2089260     1.4725840     0.0042240
  N        1.4659430     0.7906670    -0.0052000
  C        1.6696020    -0.5667920     0.0018180
  N        0.6303954    -1.5207831     0.0118448
  C       -0.5247500    -0.8567100    -0.0036900
  C       -0.8535700     0.4975280     0.0150930
  N       -2.2178770     0.6874110     0.0132550
  C       -2.7081380    -0.5423290     0.0003530
  N       -1.7302440    -1.5082620    -0.0074590
  N        2.9897270    -0.9822980    -0.0798890
  H        2.2638450     1.4140280    -0.1046570
  H       -3.7608750    -0.7937900    -0.0035550
  H       -1.8528420    -2.5141400    -0.0211820
  H        3.0628590    -1.9839740     0.0678780
  H        3.6422020    -0.4648880     0.5003130
units angstrom
no_reorient  #important for SAPT in psi4, default
symmetry c1  #important for SAPT in psi4, default
}

set PROPERTIES_ORIGIN ["COM"]
properties('MP2/aug-cc-pvtz', properties = ['dipole'])
--------------------------------------------------------------------------

    Molecular point group: c1
  Charge       = 0
  Multiplicity = 1
  Basis Set: AUG-CC-PVTZ
    Blend: AUG-CC-PVTZ
  Basis Set: (AUG-CC-PVTZ AUX)
    Blend: AUG-CC-PVTZ-JKFIT

    Orbital Energies [Eh]
    ---------------------

    Doubly Occupied:

       1A    -20.523383     2A    -15.642856     3A    -15.626742
       4A    -15.624555     5A    -15.580721     6A    -15.560824
       7A    -11.418477     8A    -11.367334     9A    -11.321880
      10A    -11.309637    11A    -11.246177    12A     -1.392479
      13A     -1.357830    14A     -1.331358    15A     -1.228172
      16A     -1.218153    17A     -1.170337    18A     -1.023293
      19A     -0.903075    20A     -0.893666    21A     -0.840281
      22A     -0.792850    23A     -0.743165    24A     -0.730318
      25A     -0.704151    26A     -0.674191    27A     -0.653764
      28A     -0.625022    29A     -0.613101    30A     -0.598853
      31A     -0.593428    32A     -0.546416    33A     -0.503680
      34A     -0.466405    35A     -0.443813    36A     -0.437121
      37A     -0.430983    38A     -0.407953    39A     -0.292546

  @DF-RHF Final Energy:  -539.57209285262866

   => Energetics <=

    Nuclear Repulsion Energy =            592.2298528553711776
    One-Electron Energy =               -1909.9259069213098883
    Two-Electron Energy =                 778.1239612133101673
    Total Energy =                       -539.5720928526286571
  Basis Set: (AUG-CC-PVTZ AUX)
    Blend: AUG-CC-PVTZ-RI
    Molecular point group: c1

    Geometry (in Angstrom), charge = 0, multiplicity = 1:

       Center              X                  Y                   Z               Mass
    ------------   -----------------  -----------------  -----------------  -----------------
         O            0.205240089267     2.674954511823    -0.005740643644    15.994914619570
         C            0.237775089267     1.450468511823     0.007041356356    12.000000000000
         N            1.494792089267     0.768551511823    -0.002382643644    14.003074004430
         C            1.698451089267    -0.588907488177     0.004635356356    12.000000000000
         N            0.659244489267    -1.542898588177     0.014662156356    14.003074004430
         C           -0.495900910733    -0.878825488177    -0.000872643644    12.000000000000
         C           -0.824720910733     0.475412511823     0.017910356356    12.000000000000
         N           -2.189027910733     0.665295511823     0.016072356356    14.003074004430
         C           -2.679288910733    -0.564444488177     0.003170356356    12.000000000000
         N           -1.701394910733    -1.530377488177    -0.004641643644    14.003074004430
         N            3.018576089267    -1.004413488177    -0.077071643644    14.003074004430
         H            2.292694089267     1.391912511823    -0.101839643644     1.007825032230
         H           -3.732025910733    -0.815905488177    -0.000737643644     1.007825032230
         H           -1.823992910733    -2.536255488177    -0.018364643644     1.007825032230
         H            3.091708089267    -2.006089488177     0.070695356356     1.007825032230
         H            3.671051089267    -0.487003488177     0.503130356356     1.007825032230

  Basis Set: AUG-CC-PVTZ
    Blend: AUG-CC-PVTZ
  Basis Set: (AUG-CC-PVTZ AUX)
    Blend: AUG-CC-PVTZ-JKFIT
	 Reference Energy          =    -539.5720928526286571 [Eh]
	 Singles Energy            =      -0.0000000000000000 [Eh]
	 Same-Spin Energy          =      -0.5743382961913182 [Eh]
	 Opposite-Spin Energy      =      -1.6659094101472540 [Eh]
	 Correlation Energy        =      -2.2402477063385722 [Eh]
	 Total Energy              =    -541.8123405589672075 [Eh]

	 ================> DF-SCS-MP2 Energies <==================
	-----------------------------------------------------------
	 SCS Same-Spin Scale       =       0.3333333333333333 [-]
	 SCS Opposite-Spin Scale   =       1.2000000000000000 [-]
	 SCS Same-Spin Energy      =      -0.1914460987304394 [Eh]
	 SCS Opposite-Spin Energy  =      -1.9990912921767048 [Eh]
	 SCS Correlation Energy    =      -2.1905373909071439 [Eh]
	 SCS Total Energy          =    -541.7626302435357957 [Eh]
	-----------------------------------------------------------

  Dipole Moment: [D]
     X:     3.1926      Y:    -5.5330      Z:     0.8336     Total:     6.4422

*** Psi4 exiting successfully. Buy a developer a beer!
