                               Psi4 1.4a3.dev225

  ==> Input File <==

--------------------------------------------------------------------------
#psi4
#
memory 32 gb

molecule  {
0 1
  O        0.1763800     2.6970850    -0.0086780
  C        0.2088860     1.4725900     0.0042210
  N        1.4659360     0.7906750    -0.0050880
  C        1.6696170    -0.5667500     0.0018210
  N        0.7040680    -1.4531450     0.0111020
  C       -0.5067375    -0.8654417    -0.0034941
  C       -0.8535850     0.4975420     0.0152200
  N       -2.2178950     0.6873840     0.0133320
  C       -2.7081200    -0.5423560     0.0003580
  N       -1.7302140    -1.5082770    -0.0075250
  N        2.9897250    -0.9823190    -0.0798750
  H        2.2637990     1.4140370    -0.1048620
  H       -3.7608500    -0.7938460    -0.0035590
  H       -1.8527810    -2.5141570    -0.0214260
  H        3.0628080    -1.9839860     0.0679760
  H        3.6422460    -0.4648460     0.5002060
units angstrom
no_reorient  #important for SAPT in psi4, default
symmetry c1  #important for SAPT in psi4, default
}

set PROPERTIES_ORIGIN ["COM"]
properties('MP2/aug-cc-pvtz', properties = ['dipole'])
--------------------------------------------------------------------------

    Molecular point group: c1
  Charge       = 0
  Multiplicity = 1
  Basis Set: AUG-CC-PVTZ
    Blend: AUG-CC-PVTZ
  Basis Set: (AUG-CC-PVTZ AUX)
    Blend: AUG-CC-PVTZ-JKFIT

    Orbital Energies [Eh]
    ---------------------

    Doubly Occupied:

       1A    -20.522996     2A    -15.635136     3A    -15.633086
       4A    -15.613586     5A    -15.574368     6A    -15.564885
       7A    -11.400468     8A    -11.366849     9A    -11.329160
      10A    -11.314151    11A    -11.252043    12A     -1.393493
      13A     -1.358896    14A     -1.335971    15A     -1.223784
      16A     -1.221330    17A     -1.176904    18A     -1.029588
      19A     -0.906173    20A     -0.888036    21A     -0.842907
      22A     -0.800479    23A     -0.740002    24A     -0.731016
      25A     -0.699984    26A     -0.672267    27A     -0.656708
      28A     -0.635640    29A     -0.613261    30A     -0.600582
      31A     -0.595333    32A     -0.548343    33A     -0.501053
      34A     -0.465036    35A     -0.443195    36A     -0.433972
      37A     -0.431761    38A     -0.411361    39A     -0.300094

  @DF-RHF Final Energy:  -539.58629118561305

   => Energetics <=

    Nuclear Repulsion Energy =            593.5865556881803968
    One-Electron Energy =               -1912.6179010547568851
    Two-Electron Energy =                 779.4450541809634387
    Total Energy =                       -539.5862911856130495
  Basis Set: (AUG-CC-PVTZ AUX)
    Blend: AUG-CC-PVTZ-RI
    Molecular point group: c1

    Geometry (in Angstrom), charge = 0, multiplicity = 1:

       Center              X                  Y                   Z               Mass
    ------------   -----------------  -----------------  -----------------  -----------------
         O            0.196970677699     2.669393744202    -0.005814742987    15.994914619570
         C            0.229476677699     1.444898744202     0.007084257013    12.000000000000
         N            1.486526677699     0.762983744202    -0.002224742987    14.003074004430
         C            1.690207677699    -0.594441255798     0.004684257013    12.000000000000
         N            0.724658677699    -1.480836255798     0.013965257013    14.003074004430
         C           -0.486146822301    -0.893132955798    -0.000630842987    12.000000000000
         C           -0.832994322301     0.469850744202     0.018083257013    12.000000000000
         N           -2.197304322301     0.659692744202     0.016195257013    14.003074004430
         C           -2.687529322301    -0.570047255798     0.003221257013    12.000000000000
         N           -1.709623322301    -1.535968255798    -0.004661742987    14.003074004430
         N            3.010315677699    -1.010010255798    -0.077011742987    14.003074004430
         H            2.284389677699     1.386345744202    -0.101998742987     1.007825032230
         H           -3.740259322301    -0.821537255798    -0.000695742987     1.007825032230
         H           -1.832190322301    -2.541848255798    -0.018562742987     1.007825032230
         H            3.083398677699    -2.011677255798     0.070839257013     1.007825032230
         H            3.662836677699    -0.492537255798     0.503069257013     1.007825032230

  Basis Set: AUG-CC-PVTZ
    Blend: AUG-CC-PVTZ
  Basis Set: (AUG-CC-PVTZ AUX)
    Blend: AUG-CC-PVTZ-JKFIT
	 Reference Energy          =    -539.5862911856130495 [Eh]
	 Singles Energy            =      -0.0000000000000000 [Eh]
	 Same-Spin Energy          =      -0.5734264306059018 [Eh]
	 Opposite-Spin Energy      =      -1.6634524190610269 [Eh]
	 Correlation Energy        =      -2.2368788496669287 [Eh]
	 Total Energy              =    -541.8231700352799862 [Eh]

	 ================> DF-SCS-MP2 Energies <==================
	-----------------------------------------------------------
	 SCS Same-Spin Scale       =       0.3333333333333333 [-]
	 SCS Opposite-Spin Scale   =       1.2000000000000000 [-]
	 SCS Same-Spin Energy      =      -0.1911421435353006 [Eh]
	 SCS Opposite-Spin Energy  =      -1.9961429028732323 [Eh]
	 SCS Correlation Energy    =      -2.1872850464085327 [Eh]
	 SCS Total Energy          =    -541.7735762320215827 [Eh]
	-----------------------------------------------------------

  Dipole Moment: [D]
     X:     2.7453      Y:    -5.6632      Z:     0.8441     Total:     6.3499

*** Psi4 exiting successfully. Buy a developer a beer!
