                               Psi4 1.3.2 release

  ==> Input File <==

--------------------------------------------------------------------------
#psi4
#
memory 32 gb

molecule  {
0 1
  O        0.1763910     2.6970700    -0.0085580
  C        0.2089260     1.4725840     0.0042240
  N        1.3254850     0.7620409     0.0045985
  C        1.6696020    -0.5667920     0.0018180
  N        0.7040600    -1.4531590     0.0111340
  C       -0.5247500    -0.8567100    -0.0036900
  C       -0.8535700     0.4975280     0.0150930
  N       -2.2178770     0.6874110     0.0132550
  C       -2.7081380    -0.5423290     0.0003530
  N       -1.7302440    -1.5082620    -0.0074590
  N        2.9897270    -0.9822980    -0.0798890
  H        2.2638450     1.4140280    -0.1046570
  H       -3.7608750    -0.7937900    -0.0035550
  H       -1.8528420    -2.5141400    -0.0211820
  H        3.0628590    -1.9839740     0.0678780
  H        3.6422020    -0.4648880     0.5003130
units angstrom
no_reorient  #important for SAPT in psi4, default
symmetry c1  #important for SAPT in psi4, default
}

set PROPERTIES_ORIGIN ["COM"]
properties('MP2/aug-cc-pvtz', properties = ['dipole'])
--------------------------------------------------------------------------

    Molecular point group: c1
  Charge       = 0
  Multiplicity = 1
  Basis Set: AUG-CC-PVTZ
    Blend: AUG-CC-PVTZ
  Basis Set: (AUG-CC-PVTZ AUX)
    Blend: AUG-CC-PVTZ-JKFIT

    Orbital Energies [Eh]
    ---------------------

    Doubly Occupied:

       1A    -20.514210     2A    -15.644390     3A    -15.633999
       4A    -15.621401     5A    -15.574476     6A    -15.561895
       7A    -11.402280     8A    -11.356909     9A    -11.322463
      10A    -11.312381    11A    -11.248267    12A     -1.402154
      13A     -1.358180    14A     -1.336234    15A     -1.238375
      16A     -1.216210    17A     -1.174670    18A     -1.035230
      19A     -0.921140    20A     -0.884746    21A     -0.842768
      22A     -0.803762    23A     -0.736712    24A     -0.717694
      25A     -0.700804    26A     -0.674884    27A     -0.664472
      28A     -0.630843    29A     -0.612804    30A     -0.600277
      31A     -0.585890    32A     -0.553035    33A     -0.494408
      34A     -0.466133    35A     -0.440515    36A     -0.428987
      37A     -0.427935    38A     -0.408855    39A     -0.302491

  @DF-RHF Final Energy:  -539.55704293565839

   => Energetics <=

    Nuclear Repulsion Energy =            596.4752592116417418
    One-Electron Energy =               -1918.3588469275259740
    Two-Electron Energy =                 782.3265447802258450
    Total Energy =                       -539.5570429356583873
  Basis Set: (AUG-CC-PVTZ AUX)
    Blend: AUG-CC-PVTZ-RI
    Molecular point group: c1

    Geometry (in Angstrom), charge = 0, multiplicity = 1:

       Center              X                  Y                   Z               Mass
    ------------   -----------------  -----------------  -----------------  -----------------
         O            0.211432188425     2.671339192301    -0.006583121187    15.994914619570
         C            0.243967188425     1.446853192301     0.006198878813    12.000000000000
         N            1.360526188425     0.736310092301     0.006573378813    14.003074004430
         C            1.704643188425    -0.592522807699     0.003792878813    12.000000000000
         N            0.739101188425    -1.478889807699     0.013108878813    14.003074004430
         C           -0.489708811575    -0.882440807699    -0.001715121187    12.000000000000
         C           -0.818528811575     0.471797192301     0.017067878813    12.000000000000
         N           -2.182835811575     0.661680192301     0.015229878813    14.003074004430
         C           -2.673096811575    -0.568059807699     0.002327878813    12.000000000000
         N           -1.695202811575    -1.533992807699    -0.005484121187    14.003074004430
         N            3.024768188425    -1.008028807699    -0.077914121187    14.003074004430
         H            2.298886188425     1.388297192301    -0.102682121187     1.007825032230
         H           -3.725833811575    -0.819520807699    -0.001580121187     1.007825032230
         H           -1.817800811575    -2.539870807699    -0.019207121187     1.007825032230
         H            3.097900188425    -2.009704807699     0.069852878813     1.007825032230
         H            3.677243188425    -0.490618807699     0.502287878813     1.007825032230

  Basis Set: AUG-CC-PVTZ
    Blend: AUG-CC-PVTZ
  Basis Set: (AUG-CC-PVTZ AUX)
    Blend: AUG-CC-PVTZ-JKFIT
	 Reference Energy          =    -539.5570429356583873 [Eh]
	 Singles Energy            =      -0.0000000000000000 [Eh]
	 Same-Spin Energy          =      -0.5755695272180429 [Eh]
	 Opposite-Spin Energy      =      -1.6667238082125551 [Eh]
	 Correlation Energy        =      -2.2422933354305981 [Eh]
	 Total Energy              =    -541.7993362710890324 [Eh]

	 ================> DF-SCS-MP2 Energies <==================
	-----------------------------------------------------------
	 SCS Same-Spin Scale       =       0.3333333333333333 [-]
	 SCS Opposite-Spin Scale   =       1.2000000000000000 [-]
	 SCS Same-Spin Energy      =      -0.1918565090726810 [Eh]
	 SCS Opposite-Spin Energy  =      -2.0000685698550660 [Eh]
	 SCS Correlation Energy    =      -2.1919250789277469 [Eh]
	 SCS Total Energy          =    -541.7489680145861257 [Eh]
	-----------------------------------------------------------

  Dipole Moment: [D]
     X:     3.0468      Y:    -5.9356      Z:     0.8541     Total:     6.7263

*** Psi4 exiting successfully. Buy a developer a beer!
