                               Psi4 1.4a3.dev225

  ==> Input File <==
---------------------------------------------------------------------------##psi4
#
memory 32 gb

molecule  {
0 1
  O        0.1763800     2.6970850    -0.0086780
  C        0.2088860     1.4725900     0.0042210
  N        1.4659360     0.7906750    -0.0050880
  C        1.6696170    -0.5667500     0.0018210
  N        0.7040680    -1.4531450     0.0111020
  C       -0.5247290    -0.8567090    -0.0037110
  C       -0.8535850     0.4975420     0.0152200
  N       -2.2178950     0.6873840     0.0133320
  C       -2.7155257    -0.5609333     0.0001620
  N       -1.7302140    -1.5082770    -0.0075250
  N        2.9897250    -0.9823190    -0.0798750
  H        2.2637990     1.4140370    -0.1048620
  H       -3.7608500    -0.7938460    -0.0035590
  H       -1.8527810    -2.5141570    -0.0214260
  H        3.0628080    -1.9839860     0.0679760
  H        3.6422460    -0.4648460     0.5002060
units angstrom
no_reorient  #important for SAPT in psi4, default
symmetry c1  #important for SAPT in psi4, default
}

set PROPERTIES_ORIGIN ["COM"]
properties('MP2/aug-cc-pvtz', properties = ['dipole'])---------------------------------------------------------------------------

  Memory set to  29.802 GiB by Python driver.     SCF Algorithm Type (re)set to DF.

*** tstart() called on c444-063.stampede2.tacc.utexas.edu
*** at Fri Mar 19 05:59:05 2021
    => Loading Basis Set <=

    Name: AUG-CC-PVTZ
    Role: ORBITAL
    Keyword: BASIS
    atoms 1              entry O          line   331 file /home1/07844/xy3866/miniconda3/envs/p4env/share/psi4/basis/aug-cc-pvtz.gbs
    atoms 2, 4, 6-7, 9   entry C          line   239 file /home1/07844/xy3866/miniconda3/envs/p4env/share/psi4/basis/aug-cc-pvtz.gbs
    atoms 3, 5, 8, 10-11 entry N          line   285 file /home1/07844/xy3866/miniconda3/envs/p4env/share/psi4/basis/aug-cc-pvtz.gbs
    atoms 12-16          entry H          line    40 file /home1/07844/xy3866/miniconda3/envs/p4env/share/psi4/basis/aug-cc-pvtz.gbs

         ---------------------------------------------------------
                                   SCF
               by Justin Turney, Rob Parrish, Andy Simmonett
                          and Daniel G. A. Smith
                              RHF Reference
                       32 Threads,  30517 MiB Core
         ---------------------------------------------------------

  ==> Geometry <==

    Molecular point group: c1
    Full point group: C1

    Geometry (in Angstrom), charge = 0, multiplicity = 1:

       Center              X                  Y                   Z               Mass
    ------------   -----------------  -----------------  -----------------  -----------------
         O            0.198988338015     2.670175840604    -0.005781940476    15.994914619570
         C            0.231494338015     1.445680840604     0.007117059524    12.000000000000
         N            1.488544338015     0.763765840604    -0.002191940476    14.003074004430
         C            1.692225338015    -0.593659159396     0.004717059524    12.000000000000
         N            0.726676338015    -1.480054159396     0.013998059524    14.003074004430
         C           -0.502120661985    -0.883618159396    -0.000814940476    12.000000000000
         C           -0.830976661985     0.470632840604     0.018116059524    12.000000000000
         N           -2.195286661985     0.660474840604     0.016228059524    14.003074004430
         C           -2.692917361985    -0.587842459396     0.003058059524    12.000000000000
         N           -1.707605661985    -1.535186159396    -0.004628940476    14.003074004430
         N            3.012333338015    -1.009228159396    -0.076978940476    14.003074004430
         H            2.286407338015     1.387127840604    -0.101965940476     1.007825032230
         H           -3.738241661985    -0.820755159396    -0.000662940476     1.007825032230
         H           -1.830172661985    -2.541066159396    -0.018529940476     1.007825032230
         H            3.085416338015    -2.010895159396     0.070872059524     1.007825032230
         H            3.664854338015    -0.491755159396     0.503102059524     1.007825032230

  Running in c1 symmetry.

  Rotational constants: A =      0.06349  B =      0.03713  C =      0.02345 [cm^-1]
  Rotational constants: A =   1903.38398  B =   1113.09501  C =    703.05727 [MHz]
  Nuclear repulsion =  593.369545549325721

  Charge       = 0
  Multiplicity = 1
  Electrons    = 78
  Nalpha       = 39
  Nbeta        = 39

  ==> Algorithm <==

  SCF Algorithm Type is DF.
  DIIS enabled.
  MOM disabled.
  Fractional occupation disabled.
  Guess Type is SAD.
  Energy threshold   = 1.00e-10
  Density threshold  = 1.00e-10
  Integral threshold = 1.00e-12

  ==> Primary Basis <==

  Basis Set: AUG-CC-PVTZ
    Blend: AUG-CC-PVTZ
    Number of shells: 199
    Number of basis functions: 621
    Number of Cartesian functions: 730
    Spherical Harmonics?: true
    Max angular momentum: 3
    => Loading Basis Set <=

    Name: (AUG-CC-PVTZ AUX)
    Role: JKFIT
    Keyword: DF_BASIS_SCF
    atoms 1              entry O          line   286 file /home1/07844/xy3866/miniconda3/envs/p4env/share/psi4/basis/aug-cc-pvtz-jkfit.gbs
    atoms 2, 4, 6-7, 9   entry C          line   162 file /home1/07844/xy3866/miniconda3/envs/p4env/share/psi4/basis/aug-cc-pvtz-jkfit.gbs
    atoms 3, 5, 8, 10-11 entry N          line   224 file /home1/07844/xy3866/miniconda3/envs/p4env/share/psi4/basis/aug-cc-pvtz-jkfit.gbs
    atoms 12-16          entry H          line    70 file /home1/07844/xy3866/miniconda3/envs/p4env/share/psi4/basis/aug-cc-pvtz-jkfit.gbs
   ==> Integral Setup <==

  DFHelper Memory: AOs need 3.752 GiB; user supplied 22.352 GiB. Using in-core AOs.
  ==> MemDFJK: Density-Fitted J/K Matrices <==

    J tasked:                   Yes
    K tasked:                   Yes
    wK tasked:                   No
    OpenMP threads:              32
    Memory [MiB]:             22888
    Algorithm:                 Core
    Schwarz Cutoff:           1E-12
    Mask sparsity (%):       9.6079
    Fitting Condition:        1E-10

   => Auxiliary Basis Set <=

  Basis Set: (AUG-CC-PVTZ AUX)
    Blend: AUG-CC-PVTZ-JKFIT
    Number of shells: 400
    Number of basis functions: 1374
    Number of Cartesian functions: 1716
    Spherical Harmonics?: true
    Max angular momentum: 4

  Minimum eigenvalue in the overlap matrix is 1.8926123003E-06.
  Reciprocal condition number of the overlap matrix is 1.0990180787E-07.
    Using symmetric orthogonalization.

  ==> Pre-Iterations <==

  SCF Guess: Superposition of Atomic Densities via on-the-fly atomic UHF (no occupation information).

   -------------------------
    Irrep   Nso     Nmo
   -------------------------
     A        621     621
   -------------------------
    Total     621     621
   -------------------------

  ==> Iterations <==

                           Total Energy        Delta E     RMS |[F,P]|

   @DF-RHF iter SAD:  -539.28382948070714   -5.39284e+02   0.00000e+00
   @DF-RHF iter   1:  -539.27801052918664    5.81895e-03   1.27636e-03 DIIS
   @DF-RHF iter   2:  -539.50004376937432   -2.22033e-01   7.58833e-04 DIIS
   @DF-RHF iter   3:  -539.57921523281300   -7.91715e-02   1.57997e-04 DIIS
   @DF-RHF iter   4:  -539.58432747745860   -5.11224e-03   6.52203e-05 DIIS
   @DF-RHF iter   5:  -539.58530567315529   -9.78196e-04   1.35825e-05 DIIS
   @DF-RHF iter   6:  -539.58540700349192   -1.01330e-04   7.16218e-06 DIIS
   @DF-RHF iter   7:  -539.58543334640149   -2.63429e-05   2.98734e-06 DIIS
   @DF-RHF iter   8:  -539.58543845426277   -5.10786e-06   1.06706e-06 DIIS
   @DF-RHF iter   9:  -539.58543908143997   -6.27177e-07   4.15267e-07 DIIS
   @DF-RHF iter  10:  -539.58543918995224   -1.08512e-07   1.65780e-07 DIIS
   @DF-RHF iter  11:  -539.58543920563829   -1.56861e-08   5.68086e-08 DIIS
   @DF-RHF iter  12:  -539.58543920754926   -1.91096e-09   2.07842e-08 DIIS
   @DF-RHF iter  13:  -539.58543920780073   -2.51475e-10   6.74566e-09 DIIS
   @DF-RHF iter  14:  -539.58543920783018   -2.94449e-11   3.27492e-09 DIIS
   @DF-RHF iter  15:  -539.58543920783723   -7.04858e-12   1.26043e-09 DIIS
   @DF-RHF iter  16:  -539.58543920783768   -4.54747e-13   6.70064e-10 DIIS
   @DF-RHF iter  17:  -539.58543920783745    2.27374e-13   2.37596e-10 DIIS
   @DF-RHF iter  18:  -539.58543920783779   -3.41061e-13   1.05348e-10 DIIS
   @DF-RHF iter  19:  -539.58543920783814   -3.41061e-13   4.35122e-11 DIIS
  Energy and wave function converged.

  ==> Post-Iterations <==

    Orbital Energies [Eh]
    ---------------------

    Doubly Occupied:

       1A    -20.525005     2A    -15.638238     3A    -15.632123
       4A    -15.612196     5A    -15.573640     6A    -15.566022
       7A    -11.398293     8A    -11.368472     9A    -11.327046
      10A    -11.314751    11A    -11.251974    12A     -1.393683
      13A     -1.360880    14A     -1.335566    15A     -1.220813
      16A     -1.216928    17A     -1.175851    18A     -1.030833
      19A     -0.908677    20A     -0.884654    21A     -0.846009
      22A     -0.799677    23A     -0.739820    24A     -0.730956
      25A     -0.701499    26A     -0.673375    27A     -0.656560
      28A     -0.635327    29A     -0.614809    30A     -0.600736
      31A     -0.596692    32A     -0.548064    33A     -0.499240
      34A     -0.461825    35A     -0.443205    36A     -0.432840
      37A     -0.431955    38A     -0.411660    39A     -0.301235

    Virtual:

      40A      0.015772    41A      0.022327    42A      0.035989
      43A      0.044474    44A      0.051728    45A      0.064721
      46A      0.077250    47A      0.085282    48A      0.088883
      49A      0.094044    50A      0.097104    51A      0.106218
      52A      0.110553    53A      0.111233    54A      0.117728
      55A      0.120991    56A      0.126608    57A      0.130184
      58A      0.136061    59A      0.139253    60A      0.142210
      61A      0.143449    62A      0.151158    63A      0.155002
      64A      0.163019    65A      0.174623    66A      0.176146
      67A      0.180095    68A      0.185986    69A      0.190633
      70A      0.193906    71A      0.207276    72A      0.210618
      73A      0.211994    74A      0.214678    75A      0.219829
      76A      0.226356    77A      0.230532    78A      0.234102
      79A      0.250827    80A      0.257241    81A      0.263622
      82A      0.272020    83A      0.274646    84A      0.278646
      85A      0.284248    86A      0.296448    87A      0.299143
      88A      0.307197    89A      0.310555    90A      0.312975
      91A      0.316733    92A      0.322148    93A      0.330777
      94A      0.336070    95A      0.341069    96A      0.342353
      97A      0.356459    98A      0.360804    99A      0.362495
     100A      0.369235   101A      0.375611   102A      0.377868
     103A      0.382365   104A      0.387293   105A      0.393240
     106A      0.401635   107A      0.404915   108A      0.409852
     109A      0.421070   110A      0.425616   111A      0.433108
     112A      0.437941   113A      0.449000   114A      0.449934
     115A      0.455458   116A      0.458866   117A      0.464965
     118A      0.466888   119A      0.472461   120A      0.477023
     121A      0.480436   122A      0.492751   123A      0.494907
     124A      0.500246   125A      0.503314   126A      0.514374
     127A      0.523209   128A      0.529263   129A      0.531834
     130A      0.536707   131A      0.542841   132A      0.549749
     133A      0.553487   134A      0.558070   135A      0.568627
     136A      0.585521   137A      0.594467   138A      0.598208
     139A      0.605853   140A      0.610889   141A      0.622114
     142A      0.628608   143A      0.639564   144A      0.645636
     145A      0.653351   146A      0.654725   147A      0.659603
     148A      0.663565   149A      0.668125   150A      0.675658
     151A      0.688941   152A      0.699821   153A      0.705839
     154A      0.710917   155A      0.722190   156A      0.727033
     157A      0.730411   158A      0.741166   159A      0.748679
     160A      0.755662   161A      0.760445   162A      0.768937
     163A      0.775243   164A      0.781353   165A      0.793063
     166A      0.797408   167A      0.802967   168A      0.812616
     169A      0.818961   170A      0.826809   171A      0.836528
     172A      0.842196   173A      0.856818   174A      0.858750
     175A      0.861815   176A      0.872914   177A      0.882775
     178A      0.884445   179A      0.894231   180A      0.899111
     181A      0.906013   182A      0.908621   183A      0.917056
     184A      0.931122   185A      0.940009   186A      0.943845
     187A      0.946077   188A      0.956414   189A      0.960200
     190A      0.965989   191A      0.976014   192A      0.976984
     193A      0.987528   194A      1.002055   195A      1.005654
     196A      1.012439   197A      1.018665   198A      1.027181
     199A      1.030422   200A      1.032825   201A      1.040833
     202A      1.046987   203A      1.052260   204A      1.061939
     205A      1.071214   206A      1.076427   207A      1.082788
     208A      1.087647   209A      1.093010   210A      1.100446
     211A      1.102487   212A      1.109809   213A      1.116633
     214A      1.128508   215A      1.138475   216A      1.142741
     217A      1.148053   218A      1.165630   219A      1.171415
     220A      1.177674   221A      1.178548   222A      1.187617
     223A      1.202929   224A      1.205926   225A      1.228770
     226A      1.231762   227A      1.234829   228A      1.246872
     229A      1.247840   230A      1.250947   231A      1.254074
     232A      1.274480   233A      1.280095   234A      1.287885
     235A      1.296364   236A      1.307049   237A      1.317495
     238A      1.328742   239A      1.336265   240A      1.337938
     241A      1.350575   242A      1.352583   243A      1.360624
     244A      1.370200   245A      1.377725   246A      1.379107
     247A      1.389772   248A      1.402247   249A      1.422143
     250A      1.425185   251A      1.427133   252A      1.443356
     253A      1.448525   254A      1.455373   255A      1.466468
     256A      1.467243   257A      1.473832   258A      1.491231
     259A      1.504436   260A      1.516936   261A      1.523823
     262A      1.532934   263A      1.539932   264A      1.543066
     265A      1.553074   266A      1.560765   267A      1.573767
     268A      1.574840   269A      1.589494   270A      1.599121
     271A      1.604373   272A      1.628673   273A      1.629327
     274A      1.643314   275A      1.652423   276A      1.666528
     277A      1.670997   278A      1.685905   279A      1.693490
     280A      1.696305   281A      1.715802   282A      1.719017
     283A      1.725999   284A      1.736786   285A      1.745569
     286A      1.761074   287A      1.774100   288A      1.786632
     289A      1.816756   290A      1.819319   291A      1.833620
     292A      1.841872   293A      1.853006   294A      1.855947
     295A      1.869878   296A      1.880473   297A      1.910450
     298A      1.917258   299A      1.929994   300A      1.951980
     301A      1.958308   302A      1.971542   303A      1.987521
     304A      1.998864   305A      2.006289   306A      2.023741
     307A      2.051801   308A      2.053899   309A      2.062561
     310A      2.065470   311A      2.075921   312A      2.083812
     313A      2.095304   314A      2.105396   315A      2.110440
     316A      2.115699   317A      2.133390   318A      2.144663
     319A      2.161450   320A      2.180577   321A      2.192487
     322A      2.195964   323A      2.210492   324A      2.228756
     325A      2.236585   326A      2.246052   327A      2.259857
     328A      2.284610   329A      2.297110   330A      2.304477
     331A      2.310186   332A      2.318351   333A      2.324289
     334A      2.334759   335A      2.338944   336A      2.354386
     337A      2.357279   338A      2.360322   339A      2.378990
     340A      2.399364   341A      2.407818   342A      2.413525
     343A      2.423926   344A      2.429347   345A      2.443650
     346A      2.461334   347A      2.465157   348A      2.469351
     349A      2.485103   350A      2.493117   351A      2.504820
     352A      2.520124   353A      2.527063   354A      2.552134
     355A      2.568663   356A      2.581276   357A      2.587098
     358A      2.606132   359A      2.621120   360A      2.643886
     361A      2.654268   362A      2.668023   363A      2.677717
     364A      2.682228   365A      2.688073   366A      2.711709
     367A      2.715457   368A      2.724119   369A      2.745186
     370A      2.759100   371A      2.771090   372A      2.797787
     373A      2.805318   374A      2.814003   375A      2.822697
     376A      2.834272   377A      2.864629   378A      2.887850
     379A      2.902306   380A      2.943257   381A      2.965233
     382A      2.996720   383A      3.007527   384A      3.044197
     385A      3.057630   386A      3.080321   387A      3.102021
     388A      3.110401   389A      3.128510   390A      3.136102
     391A      3.168260   392A      3.207805   393A      3.238743
     394A      3.243647   395A      3.279071   396A      3.303720
     397A      3.325050   398A      3.350977   399A      3.360931
     400A      3.365578   401A      3.401503   402A      3.410964
     403A      3.447335   404A      3.460812   405A      3.496025
     406A      3.505949   407A      3.519588   408A      3.528115
     409A      3.566707   410A      3.580206   411A      3.601925
     412A      3.604298   413A      3.626530   414A      3.654196
     415A      3.662117   416A      3.676406   417A      3.683866
     418A      3.701951   419A      3.717645   420A      3.721390
     421A      3.738311   422A      3.748873   423A      3.766803
     424A      3.776872   425A      3.792707   426A      3.811396
     427A      3.832020   428A      3.850862   429A      3.861166
     430A      3.871116   431A      3.882201   432A      3.893611
     433A      3.899612   434A      3.911595   435A      3.954550
     436A      3.963928   437A      3.973872   438A      3.991777
     439A      4.007857   440A      4.016472   441A      4.025852
     442A      4.048065   443A      4.053017   444A      4.076520
     445A      4.082784   446A      4.085261   447A      4.125692
     448A      4.137014   449A      4.146119   450A      4.159887
     451A      4.165046   452A      4.173198   453A      4.189349
     454A      4.207174   455A      4.217692   456A      4.229047
     457A      4.242133   458A      4.250119   459A      4.259121
     460A      4.267719   461A      4.283740   462A      4.294829
     463A      4.314005   464A      4.323103   465A      4.332104
     466A      4.339369   467A      4.363490   468A      4.375811
     469A      4.389625   470A      4.402012   471A      4.408532
     472A      4.436556   473A      4.458856   474A      4.473740
     475A      4.484950   476A      4.496758   477A      4.500945
     478A      4.518052   479A      4.552372   480A      4.561409
     481A      4.571017   482A      4.581980   483A      4.597983
     484A      4.604092   485A      4.607665   486A      4.643848
     487A      4.655286   488A      4.681237   489A      4.714889
     490A      4.735978   491A      4.746232   492A      4.778158
     493A      4.786612   494A      4.806891   495A      4.830136
     496A      4.849547   497A      4.877015   498A      4.886172
     499A      4.909484   500A      4.911595   501A      4.932248
     502A      4.946176   503A      5.002677   504A      5.011979
     505A      5.023115   506A      5.035560   507A      5.049023
     508A      5.103377   509A      5.125685   510A      5.141660
     511A      5.170495   512A      5.182874   513A      5.197608
     514A      5.212399   515A      5.234852   516A      5.243279
     517A      5.260810   518A      5.277304   519A      5.288937
     520A      5.309204   521A      5.337396   522A      5.358341
     523A      5.373754   524A      5.411481   525A      5.442193
     526A      5.465703   527A      5.485372   528A      5.504006
     529A      5.511002   530A      5.521960   531A      5.527201
     532A      5.547034   533A      5.576689   534A      5.607847
     535A      5.616293   536A      5.626455   537A      5.639585
     538A      5.654284   539A      5.659122   540A      5.673477
     541A      5.687127   542A      5.733685   543A      5.755248
     544A      5.765854   545A      5.772238   546A      5.805007
     547A      5.812205   548A      5.844013   549A      5.858264
     550A      5.879801   551A      5.895970   552A      5.904435
     553A      5.919304   554A      5.952139   555A      5.965613
     556A      5.972332   557A      6.003126   558A      6.020483
     559A      6.048631   560A      6.067768   561A      6.110441
     562A      6.115190   563A      6.140751   564A      6.152831
     565A      6.156727   566A      6.189695   567A      6.227515
     568A      6.235405   569A      6.270109   570A      6.303455
     571A      6.333885   572A      6.420160   573A      6.465964
     574A      6.517130   575A      6.534604   576A      6.570589
     577A      6.594720   578A      6.662409   579A      6.675379
     580A      6.695696   581A      6.706367   582A      6.727505
     583A      6.766601   584A      6.777093   585A      6.819697
     586A      6.844053   587A      6.921278   588A      6.987103
     589A      7.000939   590A      7.008034   591A      7.016741
     592A      7.062202   593A      7.101676   594A      7.168982
     595A      7.213421   596A      7.234212   597A      7.284828
     598A      7.367646   599A      7.408353   600A      7.413730
     601A      7.451613   602A      7.467423   603A      7.649943
     604A      7.724851   605A      7.755768   606A      7.808427
     607A      7.840673   608A      7.910340   609A      7.992615
     610A      8.040512   611A     15.954015   612A     16.210094
     613A     16.386936   614A     16.925978   615A     17.670646
     616A     18.133059   617A     18.964057   618A     19.215072
     619A     19.854395   620A     20.510505   621A     20.982537

    Final Occupation by Irrep:
              A
    DOCC [    39 ]

  @DF-RHF Final Energy:  -539.58543920783814

   => Energetics <=

    Nuclear Repulsion Energy =            593.3695455493257214
    One-Electron Energy =               -1912.1877250062243547
    Two-Electron Energy =                 779.2327402490604982
    Total Energy =                       -539.5854392078381352

Computation Completed

*** tstop() called on c469-083.stampede2.tacc.utexas.edu at Fri Mar 19 05:59:40 2021
Module time:
	user time   =     625.60 seconds =      10.43 minutes
	system time =      45.75 seconds =       0.76 minutes
	total time  =         35 seconds =       0.58 minutes
Total time:
	user time   =     625.60 seconds =      10.43 minutes
	system time =      45.75 seconds =       0.76 minutes
	total time  =         35 seconds =       0.58 minutes
   => Loading Basis Set <=

    Name: (AUG-CC-PVTZ AUX)
    Role: RIFIT
    Keyword: DF_BASIS_MP2
    atoms 1              entry O          line   264 file /home1/07844/xy3866/miniconda3/envs/p4env/share/psi4/basis/aug-cc-pvtz-ri.gbs
    atoms 2, 4, 6-7, 9   entry C          line   148 file /home1/07844/xy3866/miniconda3/envs/p4env/share/psi4/basis/aug-cc-pvtz-ri.gbs
    atoms 3, 5, 8, 10-11 entry N          line   206 file /home1/07844/xy3866/miniconda3/envs/p4env/share/psi4/basis/aug-cc-pvtz-ri.gbs
    atoms 12-16          entry H          line    30 file /home1/07844/xy3866/miniconda3/envs/p4env/share/psi4/basis/aug-cc-pvtz-ri.gbs

*** tstart() called on c469-083.stampede2.tacc.utexas.edu
*** at Fri Mar 19 05:59:41 2021

  //>>>>>>>>>>>>>>>>>>>>>>>>>>>>>>>>>>>//
  //               DFMP2               //
  //<<<<<<<<<<<<<<<<<<<<<<<<<<<<<<<<<<<//

	 --------------------------------------------------------
	                          DF-MP2
	      2nd-Order Density-Fitted Moller-Plesset Theory
	              RMP2 Wavefunction,  32 Threads

	        Rob Parrish, Justin Turney, Andy Simmonett,
	           Ed Hohenstein, and C. David Sherrill
	 --------------------------------------------------------

   => Auxiliary Basis Set <=

  Basis Set: (AUG-CC-PVTZ AUX)
    Blend: AUG-CC-PVTZ-RI
    Number of shells: 378
    Number of basis functions: 1396
    Number of Cartesian functions: 1771
    Spherical Harmonics?: true
    Max angular momentum: 4

	 --------------------------------------------------------
	                 NBF =   621, NAUX =  1396
	 --------------------------------------------------------
	   CLASS    FOCC     OCC    AOCC    AVIR     VIR    FVIR
	   PAIRS       0      39      39     582     582       0
	 --------------------------------------------------------

   DFHelper Memory: AOs need 3.903 GiB; user supplied 22.352 GiB. Using in-core AOs.

         ------------------------------------------------------------
                                     CPHF
                                  Rob Parrish
         ------------------------------------------------------------

  ==> Geometry <==

    Molecular point group: c1
    Full point group: C1

    Geometry (in Angstrom), charge = 0, multiplicity = 1:

       Center              X                  Y                   Z               Mass
    ------------   -----------------  -----------------  -----------------  -----------------
         O            0.198988338015     2.670175840604    -0.005781940476    15.994914619570
         C            0.231494338015     1.445680840604     0.007117059524    12.000000000000
         N            1.488544338015     0.763765840604    -0.002191940476    14.003074004430
         C            1.692225338015    -0.593659159396     0.004717059524    12.000000000000
         N            0.726676338015    -1.480054159396     0.013998059524    14.003074004430
         C           -0.502120661985    -0.883618159396    -0.000814940476    12.000000000000
         C           -0.830976661985     0.470632840604     0.018116059524    12.000000000000
         N           -2.195286661985     0.660474840604     0.016228059524    14.003074004430
         C           -2.692917361985    -0.587842459396     0.003058059524    12.000000000000
         N           -1.707605661985    -1.535186159396    -0.004628940476    14.003074004430
         N            3.012333338015    -1.009228159396    -0.076978940476    14.003074004430
         H            2.286407338015     1.387127840604    -0.101965940476     1.007825032230
         H           -3.738241661985    -0.820755159396    -0.000662940476     1.007825032230
         H           -1.830172661985    -2.541066159396    -0.018529940476     1.007825032230
         H            3.085416338015    -2.010895159396     0.070872059524     1.007825032230
         H            3.664854338015    -0.491755159396     0.503102059524     1.007825032230

  Nuclear repulsion =  593.369545549325608
  Reference energy  = -539.585439207838363

  ==> Basis Set <==

  Basis Set: AUG-CC-PVTZ
    Blend: AUG-CC-PVTZ
    Number of shells: 199
    Number of basis functions: 621
    Number of Cartesian functions: 730
    Spherical Harmonics?: true
    Max angular momentum: 3

  ==> CGRSolver (by Rob Parrish) <==

   Number of roots    =         1
   Preconditioning    =    JACOBI
   Convergence cutoff =     1E-06
   Maximum iterations =       100

  ==> CPHFRHamiltonian (by Rob Parrish) <==

  ==> MemDFJK: Density-Fitted J/K Matrices <==

    J tasked:                   Yes
    K tasked:                   Yes
    wK tasked:                   No
    OpenMP threads:              32
    Memory [MiB]:             22888
    Algorithm:                 Core
    Schwarz Cutoff:           1E-12
    Mask sparsity (%):       5.7945
    Fitting Condition:        1E-10

   => Auxiliary Basis Set <=

  Basis Set: (AUG-CC-PVTZ AUX)
    Blend: AUG-CC-PVTZ-JKFIT
    Number of shells: 400
    Number of basis functions: 1374
    Number of Cartesian functions: 1716
    Spherical Harmonics?: true
    Max angular momentum: 4

  ==> CPHF Iterations <==

  => Iterations <=

             Iter  Converged  Remaining    Residual   CGR           1          0          1   1.385E-01   CGR           2          0          1   4.872E-02   CGR           3          0          1   2.406E-02   CGR           4          0          1   7.818E-03   CGR           5          0          1   3.888E-03   CGR           6          0          1   1.697E-03   CGR           7          0          1   5.856E-04   CGR           8          0          1   2.469E-04   CGR           9          0          1   8.352E-05   CGR          10          0          1   3.417E-05   CGR          11          0          1   1.349E-05   CGR          12          0          1   4.529E-06   CGR          13          0          1   1.821E-06   CGR          14          1          0   5.404E-07

    CGRSolver converged.
		-----------------------------------------------------------
	 ==================> DF-MP2 Energies <====================
	-----------------------------------------------------------
	 Reference Energy          =    -539.5854392078383626 [Eh]
	 Singles Energy            =      -0.0000000000000000 [Eh]
	 Same-Spin Energy          =      -0.5735819826480130 [Eh]
	 Opposite-Spin Energy      =      -1.6641965825811489 [Eh]
	 Correlation Energy        =      -2.2377785652291617 [Eh]
	 Total Energy              =    -541.8232177730675403 [Eh]
	-----------------------------------------------------------
	 ================> DF-SCS-MP2 Energies <==================
	-----------------------------------------------------------
	 SCS Same-Spin Scale       =       0.3333333333333333 [-]
	 SCS Opposite-Spin Scale   =       1.2000000000000000 [-]
	 SCS Same-Spin Energy      =      -0.1911939942160043 [Eh]
	 SCS Opposite-Spin Energy  =      -1.9970358990973787 [Eh]
	 SCS Correlation Energy    =      -2.1882298933133830 [Eh]
	 SCS Total Energy          =    -541.7736691011517678 [Eh]
	-----------------------------------------------------------

Properties will be evaluated at   0.000000,  -0.000000,   0.000000 [a0]

Properties computed using the MP2 density matrix
   Nuclear Dipole Moment: [e a0]
     X:     3.2485      Y:    -4.1770      Z:     0.4246

  Electronic Dipole Moment: [e a0]
     X:    -2.1945      Y:     1.9480      Z:    -0.0929

  Dipole Moment: [e a0]
     X:     1.0540      Y:    -2.2290      Z:     0.3317     Total:     2.4879

  Dipole Moment: [D]
     X:     2.6791      Y:    -5.6656      Z:     0.8432     Total:     6.3236

*** tstop() called on c444-063.stampede2.tacc.utexas.edu at Fri Mar 19 06:03:10 2021
Module time:
	user time   =    1698.50 seconds =      28.31 minutes
	system time =      63.38 seconds =       1.06 minutes
	total time  =        210 seconds =       3.50 minutes
Total time:
	user time   =    2302.96 seconds =      38.38 minutes
	system time =     109.26 seconds =       1.82 minutes
	total time  =        245 seconds =       4.08 minutes

    Psi4 stopped on: Friday, 19 March 2021 06:03AM
    Psi4 wall time for execution: 0:04:06.25

*** Psi4 exiting successfully. Buy a developer a beer!
