                               Psi4 1.3.2 release

  ==> Input File <==

--------------------------------------------------------------------------
#psi4
#
memory 32 gb

molecule  {
0 1
  O        0.1763910     2.6970700    -0.0085580
  C        0.2089260     1.4725840     0.0042240
  N        1.4659430     0.7906670    -0.0052000
  C        1.6696020    -0.5667920     0.0018180
  N        0.7040600    -1.4531590     0.0111340
  C       -0.5731372    -0.7742086    -0.0030510
  C       -0.8535700     0.4975280     0.0150930
  N       -2.2178770     0.6874110     0.0132550
  C       -2.7081380    -0.5423290     0.0003530
  N       -1.7302440    -1.5082620    -0.0074590
  N        2.9897270    -0.9822980    -0.0798890
  H        2.2638450     1.4140280    -0.1046570
  H       -3.7608750    -0.7937900    -0.0035550
  H       -1.8528420    -2.5141400    -0.0211820
  H        3.0628590    -1.9839740     0.0678780
  H        3.6422020    -0.4648880     0.5003130
units angstrom
no_reorient  #important for SAPT in psi4, default
symmetry c1  #important for SAPT in psi4, default
}

set PROPERTIES_ORIGIN ["COM"]
properties('MP2/aug-cc-pvtz', properties = ['dipole'])
--------------------------------------------------------------------------

    Molecular point group: c1
  Charge       = 0
  Multiplicity = 1
  Basis Set: AUG-CC-PVTZ
    Blend: AUG-CC-PVTZ
  Basis Set: (AUG-CC-PVTZ AUX)
    Blend: AUG-CC-PVTZ-JKFIT

    Orbital Energies [Eh]
    ---------------------

    Doubly Occupied:

       1A    -20.532494     2A    -15.634022     3A    -15.629485
       4A    -15.608258     5A    -15.571847     6A    -15.563103
       7A    -11.391633     8A    -11.374297     9A    -11.317693
      10A    -11.316697    11A    -11.247165    12A     -1.396766
      13A     -1.365863    14A     -1.333215    15A     -1.219368
      16A     -1.201258    17A     -1.175866    18A     -1.045854
      19A     -0.908393    20A     -0.875031    21A     -0.850133
      22A     -0.791577    23A     -0.739944    24A     -0.725470
      25A     -0.709930    26A     -0.679248    27A     -0.655986
      28A     -0.623107    29A     -0.614394    30A     -0.604210
      31A     -0.596243    32A     -0.546947    33A     -0.497071
      34A     -0.455651    35A     -0.445405    36A     -0.438040
      37A     -0.427215    38A     -0.414971    39A     -0.319414

  @DF-RHF Final Energy:  -539.57695132503500

   => Energetics <=

    Nuclear Repulsion Energy =            594.4656771228361549
    One-Electron Energy =               -1914.3987214831959136
    Two-Electron Energy =                 780.3560930353248750
    Total Energy =                       -539.5769513250349974
  Basis Set: (AUG-CC-PVTZ AUX)
    Blend: AUG-CC-PVTZ-RI
    Molecular point group: c1

    Geometry (in Angstrom), charge = 0, multiplicity = 1:

       Center              X                  Y                   Z               Mass
    ------------   -----------------  -----------------  -----------------  -----------------
         O            0.202255076311     2.662131144428    -0.005725513595    15.994914619570
         C            0.234790076311     1.437645144428     0.007056486405    12.000000000000
         N            1.491807076311     0.755728144428    -0.002367513595    14.003074004430
         C            1.695466076311    -0.601730855572     0.004650486405    12.000000000000
         N            0.729924076311    -1.488097855572     0.013966486405    14.003074004430
         C           -0.547273123689    -0.809147455572    -0.000218513595    12.000000000000
         C           -0.827705923689     0.462589144428     0.017925486405    12.000000000000
         N           -2.192012923689     0.652472144428     0.016087486405    14.003074004430
         C           -2.682273923689    -0.577267855572     0.003185486405    12.000000000000
         N           -1.704379923689    -1.543200855572    -0.004626513595    14.003074004430
         N            3.015591076311    -1.017236855572    -0.077056513595    14.003074004430
         H            2.289709076311     1.379089144428    -0.101824513595     1.007825032230
         H           -3.735010923689    -0.828728855572    -0.000722513595     1.007825032230
         H           -1.826977923689    -2.549078855572    -0.018349513595     1.007825032230
         H            3.088723076311    -2.018912855572     0.070710486405     1.007825032230
         H            3.668066076311    -0.499826855572     0.503145486405     1.007825032230

  Basis Set: AUG-CC-PVTZ
    Blend: AUG-CC-PVTZ
  Basis Set: (AUG-CC-PVTZ AUX)
    Blend: AUG-CC-PVTZ-JKFIT
	 Reference Energy          =    -539.5769513250349974 [Eh]
	 Singles Energy            =      -0.0000000000000000 [Eh]
	 Same-Spin Energy          =      -0.5712912749411607 [Eh]
	 Opposite-Spin Energy      =      -1.6628586363525919 [Eh]
	 Correlation Energy        =      -2.2341499112937528 [Eh]
	 Total Energy              =    -541.8111012363287955 [Eh]

	 ================> DF-SCS-MP2 Energies <==================
	-----------------------------------------------------------
	 SCS Same-Spin Scale       =       0.3333333333333333 [-]
	 SCS Opposite-Spin Scale   =       1.2000000000000000 [-]
	 SCS Same-Spin Energy      =      -0.1904304249803869 [Eh]
	 SCS Opposite-Spin Energy  =      -1.9954303636231101 [Eh]
	 SCS Correlation Energy    =      -2.1858607886034971 [Eh]
	 SCS Total Energy          =    -541.7628121136384607 [Eh]
	-----------------------------------------------------------

  Dipole Moment: [D]
     X:     2.5263      Y:    -5.3879      Z:     0.8440     Total:     6.0103

*** Psi4 exiting successfully. Buy a developer a beer!
