                               Psi4 1.3.2 release

  ==> Input File <==

--------------------------------------------------------------------------
#psi4
#
memory 32 gb

molecule  {
0 1
  O        0.1763910     2.6970700    -0.0085580
  C        0.2870789     1.6002421     0.0024728
  N        1.4659430     0.7906670    -0.0052000
  C        1.6696020    -0.5667920     0.0018180
  N        0.7040600    -1.4531590     0.0111340
  C       -0.5247500    -0.8567100    -0.0036900
  C       -0.8535700     0.4975280     0.0150930
  N       -2.2178770     0.6874110     0.0132550
  C       -2.7081380    -0.5423290     0.0003530
  N       -1.7302440    -1.5082620    -0.0074590
  N        2.9897270    -0.9822980    -0.0798890
  H        2.2638450     1.4140280    -0.1046570
  H       -3.7608750    -0.7937900    -0.0035550
  H       -1.8528420    -2.5141400    -0.0211820
  H        3.0628590    -1.9839740     0.0678780
  H        3.6422020    -0.4648880     0.5003130
units angstrom
no_reorient  #important for SAPT in psi4, default
symmetry c1  #important for SAPT in psi4, default
}

set PROPERTIES_ORIGIN ["COM"]
properties('MP2/aug-cc-pvtz', properties = ['dipole'])
--------------------------------------------------------------------------

    Molecular point group: c1
  Charge       = 0
  Multiplicity = 1
  Basis Set: AUG-CC-PVTZ
    Blend: AUG-CC-PVTZ
  Basis Set: (AUG-CC-PVTZ AUX)
    Blend: AUG-CC-PVTZ-JKFIT

    Orbital Energies [Eh]
    ---------------------

    Doubly Occupied:

       1A    -20.554196     2A    -15.625798     3A    -15.625020
       4A    -15.607845     5A    -15.564448     6A    -15.554934
       7A    -11.393650     8A    -11.371151     9A    -11.308392
      10A    -11.301716    11A    -11.245185    12A     -1.481887
      13A     -1.361398    14A     -1.331918    15A     -1.221992
      16A     -1.210242    17A     -1.166238    18A     -1.005511
      19A     -0.894690    20A     -0.872592    21A     -0.832886
      22A     -0.793973    23A     -0.726822    24A     -0.725038
      25A     -0.703296    26A     -0.680249    27A     -0.656306
      28A     -0.653490    29A     -0.627861    30A     -0.601918
      31A     -0.594959    32A     -0.576803    33A     -0.491076
      34A     -0.462022    35A     -0.446891    36A     -0.438590
      37A     -0.420098    38A     -0.401452    39A     -0.289292

  @DF-RHF Final Energy:  -539.55701761197599

   => Energetics <=

    Nuclear Repulsion Energy =            592.9855983093011673
    One-Electron Energy =               -1911.4415825993603448
    Two-Electron Energy =                 778.8989666780831840
    Total Energy =                       -539.5570176119759935
  Basis Set: (AUG-CC-PVTZ AUX)
    Blend: AUG-CC-PVTZ-RI
    Molecular point group: c1

    Geometry (in Angstrom), charge = 0, multiplicity = 1:

       Center              X                  Y                   Z               Mass
    ------------   -----------------  -----------------  -----------------  -----------------
         O            0.192202198898     2.658543706379    -0.005535626061    15.994914619570
         C            0.302890098898     1.561715806379     0.005495173939    12.000000000000
         N            1.481754198898     0.752140706379    -0.002177626061    14.003074004430
         C            1.685413198898    -0.605318293621     0.004840373939    12.000000000000
         N            0.719871198898    -1.491685293621     0.014156373939    14.003074004430
         C           -0.508938801102    -0.895236293621    -0.000667626061    12.000000000000
         C           -0.837758801102     0.459001706379     0.018115373939    12.000000000000
         N           -2.202065801102     0.648884706379     0.016277373939    14.003074004430
         C           -2.692326801102    -0.580855293621     0.003375373939    12.000000000000
         N           -1.714432801102    -1.546788293621    -0.004436626061    14.003074004430
         N            3.005538198898    -1.020824293621    -0.076866626061    14.003074004430
         H            2.279656198898     1.375501706379    -0.101634626061     1.007825032230
         H           -3.745063801102    -0.832316293621    -0.000532626061     1.007825032230
         H           -1.837030801102    -2.552666293621    -0.018159626061     1.007825032230
         H            3.078670198898    -2.022500293621     0.070900373939     1.007825032230
         H            3.658013198898    -0.503414293621     0.503335373939     1.007825032230

  Basis Set: AUG-CC-PVTZ
    Blend: AUG-CC-PVTZ
  Basis Set: (AUG-CC-PVTZ AUX)
    Blend: AUG-CC-PVTZ-JKFIT
	 Reference Energy          =    -539.5570176119759935 [Eh]
	 Singles Energy            =      -0.0000000000000000 [Eh]
	 Same-Spin Energy          =      -0.5708792167769383 [Eh]
	 Opposite-Spin Energy      =      -1.6594583359884845 [Eh]
	 Correlation Energy        =      -2.2303375527654228 [Eh]
	 Total Energy              =    -541.7873551647413706 [Eh]

	 ================> DF-SCS-MP2 Energies <==================
	-----------------------------------------------------------
	 SCS Same-Spin Scale       =       0.3333333333333333 [-]
	 SCS Opposite-Spin Scale   =       1.2000000000000000 [-]
	 SCS Same-Spin Energy      =      -0.1902930722589794 [Eh]
	 SCS Opposite-Spin Energy  =      -1.9913500031861813 [Eh]
	 SCS Correlation Energy    =      -2.1816430754451606 [Eh]
	 SCS Total Energy          =    -541.7386606874212021 [Eh]
	-----------------------------------------------------------

  Dipole Moment: [D]
     X:     3.0324      Y:    -4.2963      Z:     0.8387     Total:     5.3251

*** Psi4 exiting successfully. Buy a developer a beer!
