                               Psi4 1.3.2 release

  ==> Input File <==

--------------------------------------------------------------------------
#psi4
#
memory 32 gb

molecule  {
0 1
  O        0.1763910     2.6970700    -0.0085580
  C        0.2089260     1.4725840     0.0042240
  N        1.4659430     0.7906670    -0.0052000
  C        1.6696020    -0.5667920     0.0018180
  N        0.7040600    -1.4531590     0.0111340
  C       -0.5247500    -0.8567100    -0.0036900
  C       -0.8535700     0.4975280     0.0150930
  N       -2.2178770     0.6874110     0.0132550
  C       -2.7081380    -0.5423290     0.0003530
  N       -1.7302440    -1.5082620    -0.0074590
  N        2.9897270    -0.9822980    -0.0798890
  H        2.2638450     1.4140280    -0.1046570
  H       -3.7608750    -0.7937900    -0.0035550
  H       -1.8649395    -2.6133963    -0.0225361
  H        3.0628590    -1.9839740     0.0678780
  H        3.6422020    -0.4648880     0.5003130
units angstrom
no_reorient  #important for SAPT in psi4, default
symmetry c1  #important for SAPT in psi4, default
}

set PROPERTIES_ORIGIN ["COM"]
properties('MP2/aug-cc-pvtz', properties = ['dipole'])
--------------------------------------------------------------------------

    Molecular point group: c1
  Charge       = 0
  Multiplicity = 1
  Basis Set: AUG-CC-PVTZ
    Blend: AUG-CC-PVTZ
  Basis Set: (AUG-CC-PVTZ AUX)
    Blend: AUG-CC-PVTZ-JKFIT

    Orbital Energies [Eh]
    ---------------------

    Doubly Occupied:

       1A    -20.523866     2A    -15.643489     3A    -15.631419
       4A    -15.611959     5A    -15.573006     6A    -15.564473
       7A    -11.397984     8A    -11.367485     9A    -11.326858
      10A    -11.313553    11A    -11.250904    12A     -1.392689
      13A     -1.358088    14A     -1.334382    15A     -1.220244
      16A     -1.217431    17A     -1.170392    18A     -1.030384
      19A     -0.904510    20A     -0.884432    21A     -0.827877
      22A     -0.794777    23A     -0.739493    24A     -0.729506
      25A     -0.697122    26A     -0.665569    27A     -0.655354
      28A     -0.632963    29A     -0.612315    30A     -0.600122
      31A     -0.595256    32A     -0.547388    33A     -0.498642
      34A     -0.462033    35A     -0.442417    36A     -0.432389
      37A     -0.432002    38A     -0.410328    39A     -0.302252

  @DF-RHF Final Energy:  -539.57667347274651

   => Energetics <=

    Nuclear Repulsion Energy =            593.0583523435426514
    One-Electron Energy =               -1911.6793474940250235
    Two-Electron Energy =                 779.0443216777359794
    Total Energy =                       -539.5766734727465064
  Basis Set: (AUG-CC-PVTZ AUX)
    Blend: AUG-CC-PVTZ-RI
    Molecular point group: c1

    Geometry (in Angstrom), charge = 0, multiplicity = 1:

       Center              X                  Y                   Z               Mass
    ------------   -----------------  -----------------  -----------------  -----------------
         O            0.198491710155     2.669347655801    -0.005665713985    15.994914619570
         C            0.231026710155     1.444861655801     0.007116286015    12.000000000000
         N            1.488043710155     0.762944655801    -0.002307713985    14.003074004430
         C            1.691702710155    -0.594514344199     0.004710286015    12.000000000000
         N            0.726160710155    -1.480881344199     0.014026286015    14.003074004430
         C           -0.502649289845    -0.884432344199    -0.000797713985    12.000000000000
         C           -0.831469289845     0.469805655801     0.017985286015    12.000000000000
         N           -2.195776289845     0.659688655801     0.016147286015    14.003074004430
         C           -2.686037289845    -0.570051344199     0.003245286015    12.000000000000
         N           -1.708143289845    -1.535984344199    -0.004566713985    14.003074004430
         N            3.011827710155    -1.010020344199    -0.076996713985    14.003074004430
         H            2.285945710155     1.386305655801    -0.101764713985     1.007825032230
         H           -3.738774289845    -0.821512344199    -0.000662713985     1.007825032230
         H           -1.842838789845    -2.641118644199    -0.019643813985     1.007825032230
         H            3.084959710155    -2.011696344199     0.070770286015     1.007825032230
         H            3.664302710155    -0.492610344199     0.503205286015     1.007825032230

  Basis Set: AUG-CC-PVTZ
    Blend: AUG-CC-PVTZ
  Basis Set: (AUG-CC-PVTZ AUX)
    Blend: AUG-CC-PVTZ-JKFIT
	 Reference Energy          =    -539.5766734727465064 [Eh]
	 Singles Energy            =      -0.0000000000000000 [Eh]
	 Same-Spin Energy          =      -0.5739348569236016 [Eh]
	 Opposite-Spin Energy      =      -1.6652488027258252 [Eh]
	 Correlation Energy        =      -2.2391836596494268 [Eh]
	 Total Energy              =    -541.8158571323958768 [Eh]

	 ================> DF-SCS-MP2 Energies <==================
	-----------------------------------------------------------
	 SCS Same-Spin Scale       =       0.3333333333333333 [-]
	 SCS Opposite-Spin Scale   =       1.2000000000000000 [-]
	 SCS Same-Spin Energy      =      -0.1913116189745339 [Eh]
	 SCS Opposite-Spin Energy  =      -1.9982985632709902 [Eh]
	 SCS Correlation Energy    =      -2.1896101822455241 [Eh]
	 SCS Total Energy          =    -541.7662836549919803 [Eh]
	-----------------------------------------------------------

  Dipole Moment: [D]
     X:     2.6344      Y:    -5.7683      Z:     0.8422     Total:     6.3971

*** Psi4 exiting successfully. Buy a developer a beer!
