                               Psi4 1.3.2 release

  ==> Input File <==

--------------------------------------------------------------------------
#psi4
#
memory 32 gb

molecule  {
0 1
  O        0.1763910     2.6970700    -0.0085580
  C        0.2089260     1.4725840     0.0042240
  N        1.4896116     0.7939982    -0.0068285
  C        1.6696020    -0.5667920     0.0018180
  N        0.7040600    -1.4531590     0.0111340
  C       -0.5247500    -0.8567100    -0.0036900
  C       -0.8535700     0.4975280     0.0150930
  N       -2.2178770     0.6874110     0.0132550
  C       -2.7081380    -0.5423290     0.0003530
  N       -1.7302440    -1.5082620    -0.0074590
  N        2.9897270    -0.9822980    -0.0798890
  H        2.2638450     1.4140280    -0.1046570
  H       -3.7608750    -0.7937900    -0.0035550
  H       -1.8528420    -2.5141400    -0.0211820
  H        3.0628590    -1.9839740     0.0678780
  H        3.6422020    -0.4648880     0.5003130
units angstrom
no_reorient  #important for SAPT in psi4, default
symmetry c1  #important for SAPT in psi4, default
}

set PROPERTIES_ORIGIN ["COM"]
properties('MP2/aug-cc-pvtz', properties = ['dipole'])
--------------------------------------------------------------------------

    Molecular point group: c1
  Charge       = 0
  Multiplicity = 1
  Basis Set: AUG-CC-PVTZ
    Blend: AUG-CC-PVTZ
  Basis Set: (AUG-CC-PVTZ AUX)
    Blend: AUG-CC-PVTZ-JKFIT

    Orbital Energies [Eh]
    ---------------------

    Doubly Occupied:

       1A    -20.526184     2A    -15.636688     3A    -15.629700
       4A    -15.610832     5A    -15.573692     6A    -15.565948
       7A    -11.398344     8A    -11.369910     9A    -11.328483
      10A    -11.314731    11A    -11.252184    12A     -1.392696
      13A     -1.361518    14A     -1.335860    15A     -1.219062
      16A     -1.218170    17A     -1.179012    18A     -1.031084
      19A     -0.906571    20A     -0.884069    21A     -0.845511
      22A     -0.799073    23A     -0.744337    24A     -0.729485
      25A     -0.700233    26A     -0.672459    27A     -0.655348
      28A     -0.634045    29A     -0.614744    30A     -0.602761
      31A     -0.596371    32A     -0.547291    33A     -0.500586
      34A     -0.461964    35A     -0.443553    36A     -0.433717
      37A     -0.433322    38A     -0.412837    39A     -0.303131

  @DF-RHF Final Energy:  -539.58713736724235

   => Energetics <=

    Nuclear Repulsion Energy =            593.2119881618249337
    One-Electron Energy =               -1911.8672326129653811
    Two-Electron Energy =                 779.0681070838979849
    Total Energy =                       -539.5871373672423488
  Basis Set: (AUG-CC-PVTZ AUX)
    Blend: AUG-CC-PVTZ-RI
    Molecular point group: c1

    Geometry (in Angstrom), charge = 0, multiplicity = 1:

       Center              X                  Y                   Z               Mass
    ------------   -----------------  -----------------  -----------------  -----------------
         O            0.196216790173     2.668376582666    -0.005523778242    15.994914619570
         C            0.228751790173     1.443890582666     0.007258221758    12.000000000000
         N            1.509437390173     0.765304782666    -0.003794278242    14.003074004430
         C            1.689427790173    -0.595485417334     0.004852221758    12.000000000000
         N            0.723885790173    -1.481852417334     0.014168221758    14.003074004430
         C           -0.504924209827    -0.885403417334    -0.000655778242    12.000000000000
         C           -0.833744209827     0.468834582666     0.018127221758    12.000000000000
         N           -2.198051209827     0.658717582666     0.016289221758    14.003074004430
         C           -2.688312209827    -0.571022417334     0.003387221758    12.000000000000
         N           -1.710418209827    -1.536955417334    -0.004424778242    14.003074004430
         N            3.009552790173    -1.010991417334    -0.076854778242    14.003074004430
         H            2.283670790173     1.385334582666    -0.101622778242     1.007825032230
         H           -3.741049209827    -0.822483417334    -0.000520778242     1.007825032230
         H           -1.833016209827    -2.542833417334    -0.018147778242     1.007825032230
         H            3.082684790173    -2.012667417334     0.070912221758     1.007825032230
         H            3.662027790173    -0.493581417334     0.503347221758     1.007825032230

  Basis Set: AUG-CC-PVTZ
    Blend: AUG-CC-PVTZ
  Basis Set: (AUG-CC-PVTZ AUX)
    Blend: AUG-CC-PVTZ-JKFIT
	 Reference Energy          =    -539.5871373672423488 [Eh]
	 Singles Energy            =      -0.0000000000000000 [Eh]
	 Same-Spin Energy          =      -0.5727935334080403 [Eh]
	 Opposite-Spin Energy      =      -1.6630523327841342 [Eh]
	 Correlation Energy        =      -2.2358458661921743 [Eh]
	 Total Energy              =    -541.8229832334345701 [Eh]

	 ================> DF-SCS-MP2 Energies <==================
	-----------------------------------------------------------
	 SCS Same-Spin Scale       =       0.3333333333333333 [-]
	 SCS Opposite-Spin Scale   =       1.2000000000000000 [-]
	 SCS Same-Spin Energy      =      -0.1909311778026801 [Eh]
	 SCS Opposite-Spin Energy  =      -1.9956627993409610 [Eh]
	 SCS Correlation Energy    =      -2.1865939771436409 [Eh]
	 SCS Total Energy          =    -541.7737313443859648 [Eh]
	-----------------------------------------------------------

  Dipole Moment: [D]
     X:     2.5924      Y:    -5.5884      Z:     0.8425     Total:     6.2178

*** Psi4 exiting successfully. Buy a developer a beer!
