                               Psi4 1.3.2 release

  ==> Input File <==

--------------------------------------------------------------------------
#psi4
#
memory 32 gb

molecule  {
0 1
  O        0.1763910     2.6970700    -0.0085580
  C        0.2115820     1.3726247     0.0052674
  N        1.4659430     0.7906670    -0.0052000
  C        1.6696020    -0.5667920     0.0018180
  N        0.7040600    -1.4531590     0.0111340
  C       -0.5247500    -0.8567100    -0.0036900
  C       -0.8535700     0.4975280     0.0150930
  N       -2.2178770     0.6874110     0.0132550
  C       -2.7081380    -0.5423290     0.0003530
  N       -1.7302440    -1.5082620    -0.0074590
  N        2.9897270    -0.9822980    -0.0798890
  H        2.2638450     1.4140280    -0.1046570
  H       -3.7608750    -0.7937900    -0.0035550
  H       -1.8528420    -2.5141400    -0.0211820
  H        3.0628590    -1.9839740     0.0678780
  H        3.6422020    -0.4648880     0.5003130
units angstrom
no_reorient  #important for SAPT in psi4, default
symmetry c1  #important for SAPT in psi4, default
}

set PROPERTIES_ORIGIN ["COM"]
properties('MP2/aug-cc-pvtz', properties = ['dipole'])
--------------------------------------------------------------------------

    Molecular point group: c1
  Charge       = 0
  Multiplicity = 1
  Basis Set: AUG-CC-PVTZ
    Blend: AUG-CC-PVTZ
  Basis Set: (AUG-CC-PVTZ AUX)
    Blend: AUG-CC-PVTZ-JKFIT

    Orbital Energies [Eh]
    ---------------------

    Doubly Occupied:

       1A    -20.498271     2A    -15.643320     3A    -15.642574
       4A    -15.618063     5A    -15.583469     6A    -15.571246
       7A    -11.405144     8A    -11.361058     9A    -11.337377
      10A    -11.322541    11A    -11.253759    12A     -1.392020
      13A     -1.354831    14A     -1.302651    15A     -1.227056
      16A     -1.217768    17A     -1.186000    18A     -1.047654
      19A     -0.921431    20A     -0.894347    21A     -0.851312
      22A     -0.807698    23A     -0.757546    24A     -0.736857
      25A     -0.703841    26A     -0.676035    27A     -0.664731
      28A     -0.642220    29A     -0.612340    30A     -0.603518
      31A     -0.567912    32A     -0.534719    33A     -0.506344
      34A     -0.466941    35A     -0.442034    36A     -0.424555
      37A     -0.414840    38A     -0.411097    39A     -0.309520

  @DF-RHF Final Energy:  -539.56639411727213

   => Energetics <=

    Nuclear Repulsion Energy =            594.5372312412728206
    One-Electron Energy =               -1914.3779688685228848
    Two-Electron Energy =                 780.2743435099779390
    Total Energy =                       -539.5663941172721252
  Basis Set: (AUG-CC-PVTZ AUX)
    Blend: AUG-CC-PVTZ-RI
    Molecular point group: c1

    Geometry (in Angstrom), charge = 0, multiplicity = 1:

       Center              X                  Y                   Z               Mass
    ------------   -----------------  -----------------  -----------------  -----------------
         O            0.198199989960     2.676626589348    -0.005757640831    15.994914619570
         C            0.233390989960     1.352181289348     0.008067759169    12.000000000000
         N            1.487751989960     0.770223589348    -0.002399640831    14.003074004430
         C            1.691410989960    -0.587235410652     0.004618359169    12.000000000000
         N            0.725868989960    -1.473602410652     0.013934359169    14.003074004430
         C           -0.502941010040    -0.877153410652    -0.000889640831    12.000000000000
         C           -0.831761010040     0.477084589348     0.017893359169    12.000000000000
         N           -2.196068010040     0.666967589348     0.016055359169    14.003074004430
         C           -2.686329010040    -0.562772410652     0.003153359169    12.000000000000
         N           -1.708435010040    -1.528705410652    -0.004658640831    14.003074004430
         N            3.011535989960    -1.002741410652    -0.077088640831    14.003074004430
         H            2.285653989960     1.393584589348    -0.101856640831     1.007825032230
         H           -3.739066010040    -0.814233410652    -0.000754640831     1.007825032230
         H           -1.831033010040    -2.534583410652    -0.018381640831     1.007825032230
         H            3.084667989960    -2.004417410652     0.070678359169     1.007825032230
         H            3.664010989960    -0.485331410652     0.503113359169     1.007825032230

  Basis Set: AUG-CC-PVTZ
    Blend: AUG-CC-PVTZ
  Basis Set: (AUG-CC-PVTZ AUX)
    Blend: AUG-CC-PVTZ-JKFIT
	 Reference Energy          =    -539.5663941172721252 [Eh]
	 Singles Energy            =      -0.0000000000000000 [Eh]
	 Same-Spin Energy          =      -0.5750260997599138 [Eh]
	 Opposite-Spin Energy      =      -1.6667374712098793 [Eh]
	 Correlation Energy        =      -2.2417635709697930 [Eh]
	 Total Energy              =    -541.8081576882418631 [Eh]

	 ================> DF-SCS-MP2 Energies <==================
	-----------------------------------------------------------
	 SCS Same-Spin Scale       =       0.3333333333333333 [-]
	 SCS Opposite-Spin Scale   =       1.2000000000000000 [-]
	 SCS Same-Spin Energy      =      -0.1916753665866379 [Eh]
	 SCS Opposite-Spin Energy  =      -2.0000849654518551 [Eh]
	 SCS Correlation Energy    =      -2.1917603320384931 [Eh]
	 SCS Total Energy          =    -541.7581544493106094 [Eh]
	-----------------------------------------------------------

  Dipole Moment: [D]
     X:     2.6963      Y:    -6.6154      Z:     0.8484     Total:     7.1939

*** Psi4 exiting successfully. Buy a developer a beer!
