                               Psi4 1.4a3.dev225

  ==> Input File <==

--------------------------------------------------------------------------
#psi4
#
memory 32 gb

molecule  {
0 1
  O        0.1763800     2.6970850    -0.0086780
  C        0.2088860     1.4725900     0.0042210
  N        1.4835155     0.7811386    -0.0052182
  C        1.6696170    -0.5667500     0.0018210
  N        0.7040680    -1.4531450     0.0111020
  C       -0.5247290    -0.8567090    -0.0037110
  C       -0.8535850     0.4975420     0.0152200
  N       -2.2178950     0.6873840     0.0133320
  C       -2.7081200    -0.5423560     0.0003580
  N       -1.7302140    -1.5082770    -0.0075250
  N        2.9897250    -0.9823190    -0.0798750
  H        2.2637990     1.4140370    -0.1048620
  H       -3.7608500    -0.7938460    -0.0035590
  H       -1.8527810    -2.5141570    -0.0214260
  H        3.0628080    -1.9839860     0.0679760
  H        3.6422460    -0.4648460     0.5002060
units angstrom
no_reorient  #important for SAPT in psi4, default
symmetry c1  #important for SAPT in psi4, default
}

set PROPERTIES_ORIGIN ["COM"]
properties('MP2/aug-cc-pvtz', properties = ['dipole'])
--------------------------------------------------------------------------

    Molecular point group: c1
  Charge       = 0
  Multiplicity = 1
  Basis Set: AUG-CC-PVTZ
    Blend: AUG-CC-PVTZ
  Basis Set: (AUG-CC-PVTZ AUX)
    Blend: AUG-CC-PVTZ-JKFIT

    Orbital Energies [Eh]
    ---------------------

    Doubly Occupied:

       1A    -20.527266     2A    -15.636339     3A    -15.630971
       4A    -15.610501     5A    -15.572461     6A    -15.565619
       7A    -11.396964     8A    -11.370591     9A    -11.328197
      10A    -11.314613    11A    -11.251819    12A     -1.393559
      13A     -1.361545    14A     -1.337217    15A     -1.218688
      16A     -1.218510    17A     -1.178586    18A     -1.031366
      19A     -0.906439    20A     -0.885062    21A     -0.845274
      22A     -0.799453    23A     -0.741834    24A     -0.729822
      25A     -0.700017    26A     -0.672933    27A     -0.655989
      28A     -0.632868    29A     -0.615619    30A     -0.602174
      31A     -0.596866    32A     -0.547301    33A     -0.499927
      34A     -0.462005    35A     -0.444070    36A     -0.433964
      37A     -0.433512    38A     -0.412498    39A     -0.302893

  @DF-RHF Final Energy:  -539.58721121612780

   => Energetics <=

    Nuclear Repulsion Energy =            593.4768461229703007
    One-Electron Energy =               -1912.3974488808166825
    Two-Electron Energy =                 779.3333915417185835
    Total Energy =                       -539.5872112161277983
  Basis Set: (AUG-CC-PVTZ AUX)
    Blend: AUG-CC-PVTZ-RI
    Molecular point group: c1

    Geometry (in Angstrom), charge = 0, multiplicity = 1:

       Center              X                  Y                   Z               Mass
    ------------   -----------------  -----------------  -----------------  -----------------
         O            0.196770286056     2.669584056200    -0.005785441316    15.994914619570
         C            0.229276286056     1.445089056200     0.007113558684    12.000000000000
         N            1.503905786056     0.753637656200    -0.002325641316    14.003074004430
         C            1.690007286056    -0.594250943800     0.004713558684    12.000000000000
         N            0.724458286056    -1.480645943800     0.013994558684    14.003074004430
         C           -0.504338713944    -0.884209943800    -0.000818441316    12.000000000000
         C           -0.833194713944     0.470041056200     0.018112558684    12.000000000000
         N           -2.197504713944     0.659883056200     0.016224558684    14.003074004430
         C           -2.687729713944    -0.569856943800     0.003250558684    12.000000000000
         N           -1.709823713944    -1.535777943800    -0.004632441316    14.003074004430
         N            3.010115286056    -1.009819943800    -0.076982441316    14.003074004430
         H            2.284189286056     1.386536056200    -0.101969441316     1.007825032230
         H           -3.740459713944    -0.821346943800    -0.000666441316     1.007825032230
         H           -1.832390713944    -2.541657943800    -0.018533441316     1.007825032230
         H            3.083198286056    -2.011486943800     0.070868558684     1.007825032230
         H            3.662636286056    -0.492346943800     0.503098558684     1.007825032230

  Basis Set: AUG-CC-PVTZ
    Blend: AUG-CC-PVTZ
  Basis Set: (AUG-CC-PVTZ AUX)
    Blend: AUG-CC-PVTZ-JKFIT
	 Reference Energy          =    -539.5872112161277983 [Eh]
	 Singles Energy            =      -0.0000000000000000 [Eh]
	 Same-Spin Energy          =      -0.5729774819282049 [Eh]
	 Opposite-Spin Energy      =      -1.6631953594194129 [Eh]
	 Correlation Energy        =      -2.2361728413476176 [Eh]
	 Total Energy              =    -541.8233840574754367 [Eh]

	 ================> DF-SCS-MP2 Energies <==================
	-----------------------------------------------------------
	 SCS Same-Spin Scale       =       0.3333333333333333 [-]
	 SCS Opposite-Spin Scale   =       1.2000000000000000 [-]
	 SCS Same-Spin Energy      =      -0.1909924939760683 [Eh]
	 SCS Opposite-Spin Energy  =      -1.9958344313032954 [Eh]
	 SCS Correlation Energy    =      -2.1868269252793637 [Eh]
	 SCS Total Energy          =    -541.7740381414071180 [Eh]
	-----------------------------------------------------------

  Dipole Moment: [D]
     X:     2.6011      Y:    -5.5418      Z:     0.8421     Total:     6.1795

*** Psi4 exiting successfully. Buy a developer a beer!
