                               Psi4 1.3.2 release

  ==> Input File <==

--------------------------------------------------------------------------
#psi4
#
memory 32 gb

molecule  {
0 1
  O        0.1763910     2.6970700    -0.0085580
  C        0.2089260     1.4725840     0.0042240
  N        1.4659430     0.7906670    -0.0052000
  C        1.6696020    -0.5667920     0.0018180
  N        0.7040600    -1.4531590     0.0111340
  C       -0.5135623    -0.8778474    -0.0038527
  C       -0.8535700     0.4975280     0.0150930
  N       -2.2178770     0.6874110     0.0132550
  C       -2.7081380    -0.5423290     0.0003530
  N       -1.7302440    -1.5082620    -0.0074590
  N        2.9897270    -0.9822980    -0.0798890
  H        2.2638450     1.4140280    -0.1046570
  H       -3.7608750    -0.7937900    -0.0035550
  H       -1.8528420    -2.5141400    -0.0211820
  H        3.0628590    -1.9839740     0.0678780
  H        3.6422020    -0.4648880     0.5003130
units angstrom
no_reorient  #important for SAPT in psi4, default
symmetry c1  #important for SAPT in psi4, default
}

set PROPERTIES_ORIGIN ["COM"]
properties('MP2/aug-cc-pvtz', properties = ['dipole'])
--------------------------------------------------------------------------

    Molecular point group: c1
  Charge       = 0
  Multiplicity = 1
  Basis Set: AUG-CC-PVTZ
    Blend: AUG-CC-PVTZ
  Basis Set: (AUG-CC-PVTZ AUX)
    Blend: AUG-CC-PVTZ-JKFIT

    Orbital Energies [Eh]
    ---------------------

    Doubly Occupied:

       1A    -20.522335     2A    -15.636707     3A    -15.632721
       4A    -15.613525     5A    -15.574038     6A    -15.565833
       7A    -11.400498     8A    -11.366411     9A    -11.329878
      10A    -11.313683    11A    -11.252090    12A     -1.393083
      13A     -1.360113    14A     -1.336359    15A     -1.223326
      16A     -1.221016    17A     -1.178700    18A     -1.027969
      19A     -0.907081    20A     -0.887850    21A     -0.843433
      22A     -0.800936    23A     -0.741013    24A     -0.731599
      25A     -0.699451    26A     -0.670699    27A     -0.656879
      28A     -0.637616    29A     -0.613128    30A     -0.600696
      31A     -0.596349    32A     -0.548197    33A     -0.500285
      34A     -0.464842    35A     -0.442562    36A     -0.433697
      37A     -0.431044    38A     -0.411746    39A     -0.298839

  @DF-RHF Final Energy:  -539.58596914993757

   => Energetics <=

    Nuclear Repulsion Energy =            593.4686579326780702
    One-Electron Energy =               -1912.3768036294370631
    Two-Electron Energy =                 779.3221765468214244
    Total Energy =                       -539.5859691499375685
  Basis Set: (AUG-CC-PVTZ AUX)
    Blend: AUG-CC-PVTZ-RI
    Molecular point group: c1

    Geometry (in Angstrom), charge = 0, multiplicity = 1:

       Center              X                  Y                   Z               Mass
    ------------   -----------------  -----------------  -----------------  -----------------
         O            0.197522195852     2.670364646310    -0.005661823178    15.994914619570
         C            0.230057195852     1.445878646310     0.007120176822    12.000000000000
         N            1.487074195852     0.763961646310    -0.002303823178    14.003074004430
         C            1.690733195852    -0.593497353690     0.004714176822    12.000000000000
         N            0.725191195852    -1.479864353690     0.014030176822    14.003074004430
         C           -0.492431104148    -0.904552753690    -0.000956523178    12.000000000000
         C           -0.832438804148     0.470822646310     0.017989176822    12.000000000000
         N           -2.196745804148     0.660705646310     0.016151176822    14.003074004430
         C           -2.687006804148    -0.569034353690     0.003249176822    12.000000000000
         N           -1.709112804148    -1.534967353690    -0.004562823178    14.003074004430
         N            3.010858195852    -1.009003353690    -0.076992823178    14.003074004430
         H            2.284976195852     1.387322646310    -0.101760823178     1.007825032230
         H           -3.739743804148    -0.820495353690    -0.000658823178     1.007825032230
         H           -1.831710804148    -2.540845353690    -0.018285823178     1.007825032230
         H            3.083990195852    -2.010679353690     0.070774176822     1.007825032230
         H            3.663333195852    -0.491593353690     0.503209176822     1.007825032230

  Basis Set: AUG-CC-PVTZ
    Blend: AUG-CC-PVTZ
  Basis Set: (AUG-CC-PVTZ AUX)
    Blend: AUG-CC-PVTZ-JKFIT
	 Reference Energy          =    -539.5859691499375685 [Eh]
	 Singles Energy            =      -0.0000000000000000 [Eh]
	 Same-Spin Energy          =      -0.5735592483127214 [Eh]
	 Opposite-Spin Energy      =      -1.6634721962309573 [Eh]
	 Correlation Energy        =      -2.2370314445436787 [Eh]
	 Total Energy              =    -541.8230005944813001 [Eh]

	 ================> DF-SCS-MP2 Energies <==================
	-----------------------------------------------------------
	 SCS Same-Spin Scale       =       0.3333333333333333 [-]
	 SCS Opposite-Spin Scale   =       1.2000000000000000 [-]
	 SCS Same-Spin Energy      =      -0.1911864161042405 [Eh]
	 SCS Opposite-Spin Energy  =      -1.9961666354771488 [Eh]
	 SCS Correlation Energy    =      -2.1873530515813893 [Eh]
	 SCS Total Energy          =    -541.7733222015189085 [Eh]
	-----------------------------------------------------------

  Dipole Moment: [D]
     X:     2.7032      Y:    -5.6957      Z:     0.8440     Total:     6.3609

*** Psi4 exiting successfully. Buy a developer a beer!
