                               Psi4 1.3.2 release

  ==> Input File <==

--------------------------------------------------------------------------
#psi4
#
memory 32 gb

molecule  {
0 1
  O        0.1763910     2.6970700    -0.0085580
  C        0.2089260     1.4725840     0.0042240
  N        1.4659430     0.7906670    -0.0052000
  C        1.6696020    -0.5667920     0.0018180
  N        0.7040600    -1.4531590     0.0111340
  C       -0.5247500    -0.8567100    -0.0036900
  C       -0.8570912     0.4737475     0.0148594
  N       -2.2178770     0.6874110     0.0132550
  C       -2.7081380    -0.5423290     0.0003530
  N       -1.7302440    -1.5082620    -0.0074590
  N        2.9897270    -0.9822980    -0.0798890
  H        2.2638450     1.4140280    -0.1046570
  H       -3.7608750    -0.7937900    -0.0035550
  H       -1.8528420    -2.5141400    -0.0211820
  H        3.0628590    -1.9839740     0.0678780
  H        3.6422020    -0.4648880     0.5003130
units angstrom
no_reorient  #important for SAPT in psi4, default
symmetry c1  #important for SAPT in psi4, default
}

set PROPERTIES_ORIGIN ["COM"]
properties('MP2/aug-cc-pvtz', properties = ['dipole'])
--------------------------------------------------------------------------

    Molecular point group: c1
  Charge       = 0
  Multiplicity = 1
  Basis Set: AUG-CC-PVTZ
    Blend: AUG-CC-PVTZ
  Basis Set: (AUG-CC-PVTZ AUX)
    Blend: AUG-CC-PVTZ-JKFIT

    Orbital Energies [Eh]
    ---------------------

    Doubly Occupied:

       1A    -20.527345     2A    -15.634557     3A    -15.631797
       4A    -15.611946     5A    -15.572691     6A    -15.564801
       7A    -11.397991     8A    -11.370468     9A    -11.323293
      10A    -11.314208    11A    -11.250685    12A     -1.394317
      13A     -1.362321    14A     -1.336070    15A     -1.220619
      16A     -1.218005    17A     -1.177608    18A     -1.032064
      19A     -0.904700    20A     -0.884717    21A     -0.846084
      22A     -0.798888    23A     -0.739478    24A     -0.729183
      25A     -0.701504    26A     -0.673889    27A     -0.656396
      28A     -0.632952    29A     -0.616284    30A     -0.599408
      31A     -0.595899    32A     -0.547622    33A     -0.499637
      34A     -0.462249    35A     -0.444495    36A     -0.435018
      37A     -0.432880    38A     -0.412036    39A     -0.304784

  @DF-RHF Final Energy:  -539.58735460493210

   => Energetics <=

    Nuclear Repulsion Energy =            593.8433173008357926
    One-Electron Energy =               -1913.1435686572940540
    Two-Electron Energy =                 779.7128967515262730
    Total Energy =                       -539.5873546049321021
  Basis Set: (AUG-CC-PVTZ AUX)
    Blend: AUG-CC-PVTZ-RI
    Molecular point group: c1

    Geometry (in Angstrom), charge = 0, multiplicity = 1:

       Center              X                  Y                   Z               Mass
    ------------   -----------------  -----------------  -----------------  -----------------
         O            0.198690732692     2.670574625284    -0.005656190584    15.994914619570
         C            0.231225732692     1.446088625284     0.007125809416    12.000000000000
         N            1.488242732692     0.764171625284    -0.002298190584    14.003074004430
         C            1.691901732692    -0.593287374716     0.004719809416    12.000000000000
         N            0.726359732692    -1.479654374716     0.014035809416    14.003074004430
         C           -0.502450267308    -0.883205374716    -0.000788190584    12.000000000000
         C           -0.834791467308     0.447252125284     0.017761209416    12.000000000000
         N           -2.195577267308     0.660915625284     0.016156809416    14.003074004430
         C           -2.685838267308    -0.568824374716     0.003254809416    12.000000000000
         N           -1.707944267308    -1.534757374716    -0.004557190584    14.003074004430
         N            3.012026732692    -1.008793374716    -0.076987190584    14.003074004430
         H            2.286144732692     1.387532625284    -0.101755190584     1.007825032230
         H           -3.738575267308    -0.820285374716    -0.000653190584     1.007825032230
         H           -1.830542267308    -2.540635374716    -0.018280190584     1.007825032230
         H            3.085158732692    -2.010469374716     0.070779809416     1.007825032230
         H            3.664501732692    -0.491383374716     0.503214809416     1.007825032230

  Basis Set: AUG-CC-PVTZ
    Blend: AUG-CC-PVTZ
  Basis Set: (AUG-CC-PVTZ AUX)
    Blend: AUG-CC-PVTZ-JKFIT
	 Reference Energy          =    -539.5873546049321021 [Eh]
	 Singles Energy            =      -0.0000000000000000 [Eh]
	 Same-Spin Energy          =      -0.5727169313525349 [Eh]
	 Opposite-Spin Energy      =      -1.6629234957838328 [Eh]
	 Correlation Energy        =      -2.2356404271363677 [Eh]
	 Total Energy              =    -541.8229950320684338 [Eh]

	 ================> DF-SCS-MP2 Energies <==================
	-----------------------------------------------------------
	 SCS Same-Spin Scale       =       0.3333333333333333 [-]
	 SCS Opposite-Spin Scale   =       1.2000000000000000 [-]
	 SCS Same-Spin Energy      =      -0.1909056437841783 [Eh]
	 SCS Opposite-Spin Energy  =      -1.9955081949405993 [Eh]
	 SCS Correlation Energy    =      -2.1864138387247776 [Eh]
	 SCS Total Energy          =    -541.7737684436568770 [Eh]
	-----------------------------------------------------------

  Dipole Moment: [D]
     X:     2.6919      Y:    -5.5596      Z:     0.8438     Total:     6.2344

*** Psi4 exiting successfully. Buy a developer a beer!
