                               Psi4 1.3.2 release

  ==> Input File <==

--------------------------------------------------------------------------
#psi4
#
memory 32 gb

molecule  {
0 1
  O        0.1763910     2.6970700    -0.0085580
  C        0.2089260     1.4725840     0.0042240
  N        1.4659430     0.7906670    -0.0052000
  C        1.6696020    -0.5667920     0.0018180
  N        0.7040600    -1.4531590     0.0111340
  C       -0.5247500    -0.8567100    -0.0036900
  C       -0.8504643     0.5213663     0.0153261
  N       -2.2178770     0.6874110     0.0132550
  C       -2.7081380    -0.5423290     0.0003530
  N       -1.7302440    -1.5082620    -0.0074590
  N        2.9897270    -0.9822980    -0.0798890
  H        2.2638450     1.4140280    -0.1046570
  H       -3.7608750    -0.7937900    -0.0035550
  H       -1.8528420    -2.5141400    -0.0211820
  H        3.0628590    -1.9839740     0.0678780
  H        3.6422020    -0.4648880     0.5003130
units angstrom
no_reorient  #important for SAPT in psi4, default
symmetry c1  #important for SAPT in psi4, default
}

set PROPERTIES_ORIGIN ["COM"]
properties('MP2/aug-cc-pvtz', properties = ['dipole'])
--------------------------------------------------------------------------

    Molecular point group: c1
  Charge       = 0
  Multiplicity = 1
  Basis Set: AUG-CC-PVTZ
    Blend: AUG-CC-PVTZ
  Basis Set: (AUG-CC-PVTZ AUX)
    Blend: AUG-CC-PVTZ-JKFIT

    Orbital Energies [Eh]
    ---------------------

    Doubly Occupied:

       1A    -20.521325     2A    -15.637914     3A    -15.632160
       4A    -15.612858     5A    -15.574555     6A    -15.565887
       7A    -11.399270     8A    -11.365396     9A    -11.331781
      10A    -11.314529    11A    -11.252260    12A     -1.392813
      13A     -1.359706    14A     -1.335690    15A     -1.220976
      16A     -1.218675    17A     -1.178919    18A     -1.031007
      19A     -0.909187    20A     -0.885673    21A     -0.843903
      22A     -0.799506    23A     -0.741206    24A     -0.731569
      25A     -0.699915    26A     -0.672351    27A     -0.656386
      28A     -0.634875    29A     -0.612688    30A     -0.604113
      31A     -0.596722    32A     -0.548279    33A     -0.499988
      34A     -0.462958    35A     -0.441952    36A     -0.432439
      37A     -0.430807    38A     -0.412458    39A     -0.301185

  @DF-RHF Final Energy:  -539.58622095606302

   => Energetics <=

    Nuclear Repulsion Energy =            593.4716166742340420
    One-Electron Energy =               -1912.3879130858290409
    Two-Electron Energy =                 779.3300754555318690
    Total Energy =                       -539.5862209560630163
  Basis Set: (AUG-CC-PVTZ AUX)
    Blend: AUG-CC-PVTZ-RI
    Molecular point group: c1

    Geometry (in Angstrom), charge = 0, multiplicity = 1:

       Center              X                  Y                   Z               Mass
    ------------   -----------------  -----------------  -----------------  -----------------
         O            0.198164263902     2.666791587662    -0.005693267193    15.994914619570
         C            0.230699263902     1.442305587662     0.007088732807    12.000000000000
         N            1.487716263902     0.760388587662    -0.002335267193    14.003074004430
         C            1.691375263902    -0.597070412338     0.004682732807    12.000000000000
         N            0.725833263902    -1.483437412338     0.013998732807    14.003074004430
         C           -0.502976736098    -0.886988412338    -0.000825267193    12.000000000000
         C           -0.828691036098     0.491087887662     0.018190832807    12.000000000000
         N           -2.196103736098     0.657132587662     0.016119732807    14.003074004430
         C           -2.686364736098    -0.572607412338     0.003217732807    12.000000000000
         N           -1.708470736098    -1.538540412338    -0.004594267193    14.003074004430
         N            3.011500263902    -1.012576412338    -0.077024267193    14.003074004430
         H            2.285618263902     1.383749587662    -0.101792267193     1.007825032230
         H           -3.739101736098    -0.824068412338    -0.000690267193     1.007825032230
         H           -1.831068736098    -2.544418412338    -0.018317267193     1.007825032230
         H            3.084632263902    -2.014252412338     0.070742732807     1.007825032230
         H            3.663975263902    -0.495166412338     0.503177732807     1.007825032230

  Basis Set: AUG-CC-PVTZ
    Blend: AUG-CC-PVTZ
  Basis Set: (AUG-CC-PVTZ AUX)
    Blend: AUG-CC-PVTZ-JKFIT
	 Reference Energy          =    -539.5862209560630163 [Eh]
	 Singles Energy            =      -0.0000000000000000 [Eh]
	 Same-Spin Energy          =      -0.5733632810259922 [Eh]
	 Opposite-Spin Energy      =      -1.6635179695878044 [Eh]
	 Correlation Energy        =      -2.2368812506137967 [Eh]
	 Total Energy              =    -541.8231022066768219 [Eh]

	 ================> DF-SCS-MP2 Energies <==================
	-----------------------------------------------------------
	 SCS Same-Spin Scale       =       0.3333333333333333 [-]
	 SCS Opposite-Spin Scale   =       1.2000000000000000 [-]
	 SCS Same-Spin Energy      =      -0.1911210936753307 [Eh]
	 SCS Opposite-Spin Energy  =      -1.9962215635053653 [Eh]
	 SCS Correlation Energy    =      -2.1873426571806962 [Eh]
	 SCS Total Energy          =    -541.7735636132437094 [Eh]
	-----------------------------------------------------------

  Dipole Moment: [D]
     X:     2.6453      Y:    -5.7086      Z:     0.8442     Total:     6.3481

*** Psi4 exiting successfully. Buy a developer a beer!
