                               Psi4 1.3.2 release

  ==> Input File <==

--------------------------------------------------------------------------
#psi4
#
memory 32 gb

molecule  {
0 1
  O        0.1763910     2.6970700    -0.0085580
  C        0.2089260     1.4725840     0.0042240
  N        1.4659430     0.7906670    -0.0052000
  C        1.6577044    -0.6011259    -0.0301406
  N        0.7040600    -1.4531590     0.0111340
  C       -0.5247500    -0.8567100    -0.0036900
  C       -0.8535700     0.4975280     0.0150930
  N       -2.2178770     0.6874110     0.0132550
  C       -2.7081380    -0.5423290     0.0003530
  N       -1.7302440    -1.5082620    -0.0074590
  N        2.9897270    -0.9822980    -0.0798890
  H        2.2638450     1.4140280    -0.1046570
  H       -3.7608750    -0.7937900    -0.0035550
  H       -1.8528420    -2.5141400    -0.0211820
  H        3.0628590    -1.9839740     0.0678780
  H        3.6422020    -0.4648880     0.5003130
units angstrom
no_reorient  #important for SAPT in psi4, default
symmetry c1  #important for SAPT in psi4, default
}

set PROPERTIES_ORIGIN ["COM"]
properties('MP2/aug-cc-pvtz', properties = ['dipole'])
--------------------------------------------------------------------------

    Molecular point group: c1
  Charge       = 0
  Multiplicity = 1
  Basis Set: AUG-CC-PVTZ
    Blend: AUG-CC-PVTZ
  Basis Set: (AUG-CC-PVTZ AUX)
    Blend: AUG-CC-PVTZ-JKFIT

    Orbital Energies [Eh]
    ---------------------

    Doubly Occupied:

       1A    -20.523143     2A    -15.638276     3A    -15.626503
       4A    -15.610380     5A    -15.575345     6A    -15.566551
       7A    -11.396923     8A    -11.366218     9A    -11.328995
      10A    -11.315360    11A    -11.253381    12A     -1.391625
      13A     -1.362177    14A     -1.335377    15A     -1.223262
      16A     -1.214384    17A     -1.180178    18A     -1.033110
      19A     -0.906289    20A     -0.881129    21A     -0.846331
      22A     -0.799849    23A     -0.737938    24A     -0.730272
      25A     -0.699412    26A     -0.670409    27A     -0.655953
      28A     -0.639301    29A     -0.614180    30A     -0.601150
      31A     -0.595683    32A     -0.549437    33A     -0.501034
      34A     -0.462789    35A     -0.442399    36A     -0.433507
      37A     -0.429586    38A     -0.413340    39A     -0.306548

  @DF-RHF Final Energy:  -539.58616158741575

   => Energetics <=

    Nuclear Repulsion Energy =            593.6585856647926676
    One-Electron Energy =               -1912.7740392825492108
    Two-Electron Energy =                 779.5292920303406845
    Total Energy =                       -539.5861615874157451
  Basis Set: (AUG-CC-PVTZ AUX)
    Blend: AUG-CC-PVTZ-RI
    Molecular point group: c1

    Geometry (in Angstrom), charge = 0, multiplicity = 1:

       Center              X                  Y                   Z               Mass
    ------------   -----------------  -----------------  -----------------  -----------------
         O            0.199356189115     2.671413031738    -0.003135823238    15.994914619570
         C            0.231891189115     1.446927031738     0.009646176762    12.000000000000
         N            1.488908189115     0.765010031738     0.000222176762    14.003074004430
         C            1.680669589115    -0.626782868262    -0.024718423238    12.000000000000
         N            0.727025189115    -1.478815968262     0.016556176762    14.003074004430
         C           -0.501784810885    -0.882366968262     0.001732176762    12.000000000000
         C           -0.830604810885     0.471871031738     0.020515176762    12.000000000000
         N           -2.194911810885     0.661754031738     0.018677176762    14.003074004430
         C           -2.685172810885    -0.567985968262     0.005775176762    12.000000000000
         N           -1.707278810885    -1.533918968262    -0.002036823238    14.003074004430
         N            3.012692189115    -1.007954968262    -0.074466823238    14.003074004430
         H            2.286810189115     1.388371031738    -0.099234823238     1.007825032230
         H           -3.737909810885    -0.819446968262     0.001867176762     1.007825032230
         H           -1.829876810885    -2.539796968262    -0.015759823238     1.007825032230
         H            3.085824189115    -2.009630968262     0.073300176762     1.007825032230
         H            3.665167189115    -0.490544968262     0.505735176762     1.007825032230

  Basis Set: AUG-CC-PVTZ
    Blend: AUG-CC-PVTZ
  Basis Set: (AUG-CC-PVTZ AUX)
    Blend: AUG-CC-PVTZ-JKFIT
	 Reference Energy          =    -539.5861615874157451 [Eh]
	 Singles Energy            =      -0.0000000000000000 [Eh]
	 Same-Spin Energy          =      -0.5727358345858977 [Eh]
	 Opposite-Spin Energy      =      -1.6629104764304599 [Eh]
	 Correlation Energy        =      -2.2356463110163576 [Eh]
	 Total Energy              =    -541.8218078984320982 [Eh]

	 ================> DF-SCS-MP2 Energies <==================
	-----------------------------------------------------------
	 SCS Same-Spin Scale       =       0.3333333333333333 [-]
	 SCS Opposite-Spin Scale   =       1.2000000000000000 [-]
	 SCS Same-Spin Energy      =      -0.1909119448619659 [Eh]
	 SCS Opposite-Spin Energy  =      -1.9954925717165517 [Eh]
	 SCS Correlation Energy    =      -2.1864045165785178 [Eh]
	 SCS Total Energy          =    -541.7725661039942224 [Eh]
	-----------------------------------------------------------

  Dipole Moment: [D]
     X:     2.5528      Y:    -5.7829      Z:     0.8171     Total:     6.3739

*** Psi4 exiting successfully. Buy a developer a beer!
