                               Psi4 1.3.2 release

  ==> Input File <==

--------------------------------------------------------------------------
#psi4
#
memory 32 gb

molecule  {
0 1
  O        0.1763910     2.6970700    -0.0085580
  C        0.2089260     1.4725840     0.0042240
  N        1.3717472     0.7731562    -0.0046923
  C        1.6696020    -0.5667920     0.0018180
  N        0.7040600    -1.4531590     0.0111340
  C       -0.5247500    -0.8567100    -0.0036900
  C       -0.8535700     0.4975280     0.0150930
  N       -2.2178770     0.6874110     0.0132550
  C       -2.7081380    -0.5423290     0.0003530
  N       -1.7302440    -1.5082620    -0.0074590
  N        2.9897270    -0.9822980    -0.0798890
  H        2.2638450     1.4140280    -0.1046570
  H       -3.7608750    -0.7937900    -0.0035550
  H       -1.8528420    -2.5141400    -0.0211820
  H        3.0628590    -1.9839740     0.0678780
  H        3.6422020    -0.4648880     0.5003130
units angstrom
no_reorient  #important for SAPT in psi4, default
symmetry c1  #important for SAPT in psi4, default
}

set PROPERTIES_ORIGIN ["COM"]
properties('MP2/aug-cc-pvtz', properties = ['dipole'])
--------------------------------------------------------------------------

    Molecular point group: c1
  Charge       = 0
  Multiplicity = 1
  Basis Set: AUG-CC-PVTZ
    Blend: AUG-CC-PVTZ
  Basis Set: (AUG-CC-PVTZ AUX)
    Blend: AUG-CC-PVTZ-JKFIT

    Orbital Energies [Eh]
    ---------------------

    Doubly Occupied:

       1A    -20.517464     2A    -15.640497     3A    -15.634642
       4A    -15.618480     5A    -15.573953     6A    -15.562946
       7A    -11.400653     8A    -11.360479     9A    -11.324100
      10A    -11.312916    11A    -11.249111    12A     -1.398613
      13A     -1.358996    14A     -1.336071    15A     -1.232268
      16A     -1.216503    17A     -1.175682    18A     -1.033527
      19A     -0.914897    20A     -0.885980    21A     -0.843332
      22A     -0.801858    23A     -0.734291    24A     -0.723345
      25A     -0.702245    26A     -0.674862    27A     -0.661358
      28A     -0.631970    29A     -0.613579    30A     -0.599504
      31A     -0.592029    32A     -0.551145    33A     -0.496432
      34A     -0.464987    35A     -0.441501    36A     -0.430443
      37A     -0.429523    38A     -0.409933    39A     -0.302481

  @DF-RHF Final Energy:  -539.57330989437844

   => Energetics <=

    Nuclear Repulsion Energy =            595.5129916818395941
    One-Electron Energy =               -1916.4674125020687825
    Two-Electron Energy =                 781.3811109258507486
    Total Energy =                       -539.5733098943784398
  Basis Set: (AUG-CC-PVTZ AUX)
    Blend: AUG-CC-PVTZ-RI
    Molecular point group: c1

    Geometry (in Angstrom), charge = 0, multiplicity = 1:

       Center              X                  Y                   Z               Mass
    ------------   -----------------  -----------------  -----------------  -----------------
         O            0.207143439392     2.670308745584    -0.005721815207    15.994914619570
         C            0.239678439392     1.445822745584     0.007060184793    12.000000000000
         N            1.402499639392     0.746394945584    -0.001856115207    14.003074004430
         C            1.700354439392    -0.593553254416     0.004654184793    12.000000000000
         N            0.734812439392    -1.479920254416     0.013970184793    14.003074004430
         C           -0.493997560608    -0.883471254416    -0.000853815207    12.000000000000
         C           -0.822817560608     0.470766745584     0.017929184793    12.000000000000
         N           -2.187124560608     0.660649745584     0.016091184793    14.003074004430
         C           -2.677385560608    -0.569090254416     0.003189184793    12.000000000000
         N           -1.699491560608    -1.535023254416    -0.004622815207    14.003074004430
         N            3.020479439392    -1.009059254416    -0.077052815207    14.003074004430
         H            2.294597439392     1.387266745584    -0.101820815207     1.007825032230
         H           -3.730122560608    -0.820551254416    -0.000718815207     1.007825032230
         H           -1.822089560608    -2.540901254416    -0.018345815207     1.007825032230
         H            3.093611439392    -2.010735254416     0.070714184793     1.007825032230
         H            3.672954439392    -0.491649254416     0.503149184793     1.007825032230

  Basis Set: AUG-CC-PVTZ
    Blend: AUG-CC-PVTZ
  Basis Set: (AUG-CC-PVTZ AUX)
    Blend: AUG-CC-PVTZ-JKFIT
	 Reference Energy          =    -539.5733098943784398 [Eh]
	 Singles Energy            =      -0.0000000000000000 [Eh]
	 Same-Spin Energy          =      -0.5745264221293004 [Eh]
	 Opposite-Spin Energy      =      -1.6650631091344268 [Eh]
	 Correlation Energy        =      -2.2395895312637273 [Eh]
	 Total Energy              =    -541.8128994256421720 [Eh]

	 ================> DF-SCS-MP2 Energies <==================
	-----------------------------------------------------------
	 SCS Same-Spin Scale       =       0.3333333333333333 [-]
	 SCS Opposite-Spin Scale   =       1.2000000000000000 [-]
	 SCS Same-Spin Energy      =      -0.1915088073764334 [Eh]
	 SCS Opposite-Spin Energy  =      -1.9980757309613120 [Eh]
	 SCS Correlation Energy    =      -2.1895845383377455 [Eh]
	 SCS Total Energy          =    -541.7628944327161662 [Eh]
	-----------------------------------------------------------

  Dipole Moment: [D]
     X:     2.9384      Y:    -5.8308      Z:     0.8566     Total:     6.5853

*** Psi4 exiting successfully. Buy a developer a beer!
