                               Psi4 1.3.2 release

  ==> Input File <==

--------------------------------------------------------------------------
#psi4
#
memory 32 gb

molecule  {
0 1
  O        0.1763910     2.6970700    -0.0085580
  C        0.2089260     1.4725840     0.0042240
  N        1.4659430     0.7906670    -0.0052000
  C        1.6696020    -0.5667920     0.0018180
  N        0.6350375    -1.5783178     0.0072799
  C       -0.5247500    -0.8567100    -0.0036900
  C       -0.8535700     0.4975280     0.0150930
  N       -2.2178770     0.6874110     0.0132550
  C       -2.7081380    -0.5423290     0.0003530
  N       -1.7302440    -1.5082620    -0.0074590
  N        2.9897270    -0.9822980    -0.0798890
  H        2.2638450     1.4140280    -0.1046570
  H       -3.7608750    -0.7937900    -0.0035550
  H       -1.8528420    -2.5141400    -0.0211820
  H        3.0628590    -1.9839740     0.0678780
  H        3.6422020    -0.4648880     0.5003130
units angstrom
no_reorient  #important for SAPT in psi4, default
symmetry c1  #important for SAPT in psi4, default
}

set PROPERTIES_ORIGIN ["COM"]
properties('MP2/aug-cc-pvtz', properties = ['dipole'])
--------------------------------------------------------------------------

    Molecular point group: c1
  Charge       = 0
  Multiplicity = 1
  Basis Set: AUG-CC-PVTZ
    Blend: AUG-CC-PVTZ
  Basis Set: (AUG-CC-PVTZ AUX)
    Blend: AUG-CC-PVTZ-JKFIT

    Orbital Energies [Eh]
    ---------------------

    Doubly Occupied:

       1A    -20.526162     2A    -15.646166     3A    -15.626101
       4A    -15.625147     5A    -15.586860     6A    -15.561156
       7A    -11.422385     8A    -11.369358     9A    -11.323881
      10A    -11.309496    11A    -11.247678    12A     -1.393029
      13A     -1.356569    14A     -1.330151    15A     -1.229011
      16A     -1.208989    17A     -1.166730    18A     -1.022670
      19A     -0.903608    20A     -0.890898    21A     -0.840222
      22A     -0.788524    23A     -0.744626    24A     -0.727414
      25A     -0.704181    26A     -0.674041    27A     -0.651413
      28A     -0.618266    29A     -0.610713    30A     -0.599314
      31A     -0.591402    32A     -0.545371    33A     -0.507528
      34A     -0.463288    35A     -0.446276    36A     -0.436949
      37A     -0.433340    38A     -0.407269    39A     -0.293721

  @DF-RHF Final Energy:  -539.56159589786614

   => Energetics <=

    Nuclear Repulsion Energy =            590.6168545308394187
    One-Electron Energy =               -1906.6970949526112236
    Two-Electron Energy =                 776.5186445239056638
    Total Energy =                       -539.5615958978661411
  Basis Set: (AUG-CC-PVTZ AUX)
    Blend: AUG-CC-PVTZ-RI
    Molecular point group: c1

    Geometry (in Angstrom), charge = 0, multiplicity = 1:

       Center              X                  Y                   Z               Mass
    ------------   -----------------  -----------------  -----------------  -----------------
         O            0.204809742204     2.680288280839    -0.005317453427    15.994914619570
         C            0.237344742204     1.455802280839     0.007464546573    12.000000000000
         N            1.494361742204     0.773885280839    -0.001959453427    14.003074004430
         C            1.698020742204    -0.583573719161     0.005058546573    12.000000000000
         N            0.663456242204    -1.595099519161     0.010520446573    14.003074004430
         C           -0.496331257796    -0.873491719161    -0.000449453427    12.000000000000
         C           -0.825151257796     0.480746280839     0.018333546573    12.000000000000
         N           -2.189458257796     0.670629280839     0.016495546573    14.003074004430
         C           -2.679719257796    -0.559110719161     0.003593546573    12.000000000000
         N           -1.701825257796    -1.525043719161    -0.004218453427    14.003074004430
         N            3.018145742204    -0.999079719161    -0.076648453427    14.003074004430
         H            2.292263742204     1.397246280839    -0.101416453427     1.007825032230
         H           -3.732456257796    -0.810571719161    -0.000314453427     1.007825032230
         H           -1.824423257796    -2.530921719161    -0.017941453427     1.007825032230
         H            3.091277742204    -2.000755719161     0.071118546573     1.007825032230
         H            3.670620742204    -0.481669719161     0.503553546573     1.007825032230

  Basis Set: AUG-CC-PVTZ
    Blend: AUG-CC-PVTZ
  Basis Set: (AUG-CC-PVTZ AUX)
    Blend: AUG-CC-PVTZ-JKFIT
	 Reference Energy          =    -539.5615958978661411 [Eh]
	 Singles Energy            =      -0.0000000000000000 [Eh]
	 Same-Spin Energy          =      -0.5747288677809986 [Eh]
	 Opposite-Spin Energy      =      -1.6679376101010637 [Eh]
	 Correlation Energy        =      -2.2426664778820622 [Eh]
	 Total Energy              =    -541.8042623757481806 [Eh]

	 ================> DF-SCS-MP2 Energies <==================
	-----------------------------------------------------------
	 SCS Same-Spin Scale       =       0.3333333333333333 [-]
	 SCS Opposite-Spin Scale   =       1.2000000000000000 [-]
	 SCS Same-Spin Energy      =      -0.1915762892603329 [Eh]
	 SCS Opposite-Spin Energy  =      -2.0015251321212761 [Eh]
	 SCS Correlation Energy    =      -2.1931014213816091 [Eh]
	 SCS Total Energy          =    -541.7546973192477253 [Eh]
	-----------------------------------------------------------

  Dipole Moment: [D]
     X:     3.2246      Y:    -5.3767      Z:     0.8353     Total:     6.3250

*** Psi4 exiting successfully. Buy a developer a beer!
