                               Psi4 1.3.2 release

  ==> Input File <==

--------------------------------------------------------------------------
#psi4
#
memory 32 gb

molecule  {
0 1
  O        0.1763910     2.6970700    -0.0085580
  C        0.2089260     1.4725840     0.0042240
  N        1.4659430     0.7906670    -0.0052000
  C        1.6223824    -0.5730037     0.0070483
  N        0.7040600    -1.4531590     0.0111340
  C       -0.5247500    -0.8567100    -0.0036900
  C       -0.8535700     0.4975280     0.0150930
  N       -2.2178770     0.6874110     0.0132550
  C       -2.7081380    -0.5423290     0.0003530
  N       -1.7302440    -1.5082620    -0.0074590
  N        2.9897270    -0.9822980    -0.0798890
  H        2.2638450     1.4140280    -0.1046570
  H       -3.7608750    -0.7937900    -0.0035550
  H       -1.8528420    -2.5141400    -0.0211820
  H        3.0628590    -1.9839740     0.0678780
  H        3.6422020    -0.4648880     0.5003130
units angstrom
no_reorient  #important for SAPT in psi4, default
symmetry c1  #important for SAPT in psi4, default
}

set PROPERTIES_ORIGIN ["COM"]
properties('MP2/aug-cc-pvtz', properties = ['dipole'])
--------------------------------------------------------------------------

    Molecular point group: c1
  Charge       = 0
  Multiplicity = 1
  Basis Set: AUG-CC-PVTZ
    Blend: AUG-CC-PVTZ
  Basis Set: (AUG-CC-PVTZ AUX)
    Blend: AUG-CC-PVTZ-JKFIT

    Orbital Energies [Eh]
    ---------------------

    Doubly Occupied:

       1A    -20.525529     2A    -15.639443     3A    -15.631258
       4A    -15.604419     5A    -15.577054     6A    -15.568015
       7A    -11.394841     8A    -11.368371     9A    -11.330529
      10A    -11.316907    11A    -11.255306    12A     -1.396000
      13A     -1.364316    14A     -1.336365    15A     -1.227508
      16A     -1.206807    17A     -1.182707    18A     -1.034737
      19A     -0.909118    20A     -0.883179    21A     -0.848199
      22A     -0.801950    23A     -0.742592    24A     -0.720890
      25A     -0.696917    26A     -0.672457    27A     -0.658827
      28A     -0.631860    29A     -0.616279    30A     -0.603627
      31A     -0.597122    32A     -0.547788    33A     -0.506037
      34A     -0.460617    35A     -0.445118    36A     -0.435596
      37A     -0.433503    38A     -0.415233    39A     -0.308686

  @DF-RHF Final Energy:  -539.58522249170358

   => Energetics <=

    Nuclear Repulsion Energy =            594.2053622673467999
    One-Electron Energy =               -1913.7897594480339194
    Two-Electron Energy =                 779.9991746889835440
    Total Energy =                       -539.5852224917035755
  Basis Set: (AUG-CC-PVTZ AUX)
    Blend: AUG-CC-PVTZ-RI
    Molecular point group: c1

    Geometry (in Angstrom), charge = 0, multiplicity = 1:

       Center              X                  Y                   Z               Mass
    ------------   -----------------  -----------------  -----------------  -----------------
         O            0.202162317259     2.669178885967    -0.006090265765    15.994914619570
         C            0.234697317259     1.444692885967     0.006691734235    12.000000000000
         N            1.491714317259     0.762775885967    -0.002732265765    14.003074004430
         C            1.648153717259    -0.600894814033     0.009516034235    12.000000000000
         N            0.729831317259    -1.481050114033     0.013601734235    14.003074004430
         C           -0.498978682741    -0.884601114033    -0.001222265765    12.000000000000
         C           -0.827798682741     0.469636885967     0.017560734235    12.000000000000
         N           -2.192105682741     0.659519885967     0.015722734235    14.003074004430
         C           -2.682366682741    -0.570220114033     0.002820734235    12.000000000000
         N           -1.704472682741    -1.536153114033    -0.004991265765    14.003074004430
         N            3.015498317259    -1.010189114033    -0.077421265765    14.003074004430
         H            2.289616317259     1.386136885967    -0.102189265765     1.007825032230
         H           -3.735103682741    -0.821681114033    -0.001087265765     1.007825032230
         H           -1.827070682741    -2.542031114033    -0.018714265765     1.007825032230
         H            3.088630317259    -2.011865114033     0.070345734235     1.007825032230
         H            3.667973317259    -0.492779114033     0.502780734235     1.007825032230

  Basis Set: AUG-CC-PVTZ
    Blend: AUG-CC-PVTZ
  Basis Set: (AUG-CC-PVTZ AUX)
    Blend: AUG-CC-PVTZ-JKFIT
	 Reference Energy          =    -539.5852224917035755 [Eh]
	 Singles Energy            =      -0.0000000000000000 [Eh]
	 Same-Spin Energy          =      -0.5726010040406105 [Eh]
	 Opposite-Spin Energy      =      -1.6629506200740929 [Eh]
	 Correlation Energy        =      -2.2355516241147035 [Eh]
	 Total Energy              =    -541.8207741158182671 [Eh]

	 ================> DF-SCS-MP2 Energies <==================
	-----------------------------------------------------------
	 SCS Same-Spin Scale       =       0.3333333333333333 [-]
	 SCS Opposite-Spin Scale   =       1.2000000000000000 [-]
	 SCS Same-Spin Energy      =      -0.1908670013468702 [Eh]
	 SCS Opposite-Spin Energy  =      -1.9955407440889115 [Eh]
	 SCS Correlation Energy    =      -2.1864077454357815 [Eh]
	 SCS Total Energy          =    -541.7716302371393340 [Eh]
	-----------------------------------------------------------

  Dipole Moment: [D]
     X:     2.2433      Y:    -5.6116      Z:     0.8581     Total:     6.1040

*** Psi4 exiting successfully. Buy a developer a beer!
