                               Psi4 1.3.2 release

  ==> Input File <==

--------------------------------------------------------------------------
#psi4
#
memory 32 gb

molecule  {
0 1
  O        0.1763910     2.6970700    -0.0085580
  C        0.2257823     1.4538935     0.0044257
  N        1.4659430     0.7906670    -0.0052000
  C        1.6696020    -0.5667920     0.0018180
  N        0.7040600    -1.4531590     0.0111340
  C       -0.5247500    -0.8567100    -0.0036900
  C       -0.8535700     0.4975280     0.0150930
  N       -2.2178770     0.6874110     0.0132550
  C       -2.7081380    -0.5423290     0.0003530
  N       -1.7302440    -1.5082620    -0.0074590
  N        2.9897270    -0.9822980    -0.0798890
  H        2.2638450     1.4140280    -0.1046570
  H       -3.7608750    -0.7937900    -0.0035550
  H       -1.8528420    -2.5141400    -0.0211820
  H        3.0628590    -1.9839740     0.0678780
  H        3.6422020    -0.4648880     0.5003130
units angstrom
no_reorient  #important for SAPT in psi4, default
symmetry c1  #important for SAPT in psi4, default
}

set PROPERTIES_ORIGIN ["COM"]
properties('MP2/aug-cc-pvtz', properties = ['dipole'])
--------------------------------------------------------------------------

    Molecular point group: c1
  Charge       = 0
  Multiplicity = 1
  Basis Set: AUG-CC-PVTZ
    Blend: AUG-CC-PVTZ
  Basis Set: (AUG-CC-PVTZ AUX)
    Blend: AUG-CC-PVTZ-JKFIT

    Orbital Energies [Eh]
    ---------------------

    Doubly Occupied:

       1A    -20.519206     2A    -15.636658     3A    -15.636181
       4A    -15.614154     5A    -15.576057     6A    -15.565937
       7A    -11.400647     8A    -11.367047     9A    -11.327645
      10A    -11.315144    11A    -11.252327    12A     -1.390958
      13A     -1.356534    14A     -1.333994    15A     -1.224590
      16A     -1.220284    17A     -1.179178    18A     -1.032467
      19A     -0.909155    20A     -0.889339    21A     -0.845295
      22A     -0.801858    23A     -0.744648    24A     -0.731461
      25A     -0.701336    26A     -0.672972    27A     -0.658355
      28A     -0.635269    29A     -0.608575    30A     -0.600266
      31A     -0.598044    32A     -0.544576    33A     -0.501108
      34A     -0.463384    35A     -0.442106    36A     -0.431310
      37A     -0.430340    38A     -0.412670    39A     -0.303417

  @DF-RHF Final Energy:  -539.58567396097521

   => Energetics <=

    Nuclear Repulsion Energy =            593.8009474854901555
    One-Electron Energy =               -1913.0242616045729847
    Two-Electron Energy =                 779.6376401581075015
    Total Energy =                       -539.5856739609752140
  Basis Set: (AUG-CC-PVTZ AUX)
    Blend: AUG-CC-PVTZ-RI
    Molecular point group: c1

    Geometry (in Angstrom), charge = 0, multiplicity = 1:

       Center              X                  Y                   Z               Mass
    ------------   -----------------  -----------------  -----------------  -----------------
         O            0.197071858442     2.670170254290    -0.005690772645    15.994914619570
         C            0.246463158442     1.426993754290     0.007292927355    12.000000000000
         N            1.486623858442     0.763767254290    -0.002332772645    14.003074004430
         C            1.690282858442    -0.593691745710     0.004685227355    12.000000000000
         N            0.724740858442    -1.480058745710     0.014001227355    14.003074004430
         C           -0.504069141558    -0.883609745710    -0.000822772645    12.000000000000
         C           -0.832889141558     0.470628254290     0.017960227355    12.000000000000
         N           -2.197196141558     0.660511254290     0.016122227355    14.003074004430
         C           -2.687457141558    -0.569228745710     0.003220227355    12.000000000000
         N           -1.709563141558    -1.535161745710    -0.004591772645    14.003074004430
         N            3.010407858442    -1.009197745710    -0.077021772645    14.003074004430
         H            2.284525858442     1.387128254290    -0.101789772645     1.007825032230
         H           -3.740194141558    -0.820689745710    -0.000687772645     1.007825032230
         H           -1.832161141558    -2.541039745710    -0.018314772645     1.007825032230
         H            3.083539858442    -2.010873745710     0.070745227355     1.007825032230
         H            3.662882858442    -0.491787745710     0.503180227355     1.007825032230

  Basis Set: AUG-CC-PVTZ
    Blend: AUG-CC-PVTZ
  Basis Set: (AUG-CC-PVTZ AUX)
    Blend: AUG-CC-PVTZ-JKFIT
	 Reference Energy          =    -539.5856739609752140 [Eh]
	 Singles Energy            =      -0.0000000000000000 [Eh]
	 Same-Spin Energy          =      -0.5734069023698678 [Eh]
	 Opposite-Spin Energy      =      -1.6638439099474258 [Eh]
	 Correlation Energy        =      -2.2372508123172938 [Eh]
	 Total Energy              =    -541.8229247732924705 [Eh]

	 ================> DF-SCS-MP2 Energies <==================
	-----------------------------------------------------------
	 SCS Same-Spin Scale       =       0.3333333333333333 [-]
	 SCS Opposite-Spin Scale   =       1.2000000000000000 [-]
	 SCS Same-Spin Energy      =      -0.1911356341232893 [Eh]
	 SCS Opposite-Spin Energy  =      -1.9966126919369109 [Eh]
	 SCS Correlation Energy    =      -2.1877483260602002 [Eh]
	 SCS Total Energy          =    -541.7734222870353733 [Eh]
	-----------------------------------------------------------

  Dipole Moment: [D]
     X:     2.7533      Y:    -5.8382      Z:     0.8457     Total:     6.5100

*** Psi4 exiting successfully. Buy a developer a beer!
