                               Psi4 1.4a3.dev225

  ==> Input File <==

--------------------------------------------------------------------------
#psi4
#
memory 32 gb

molecule  {
0 1
  O        0.1763800     2.6970850    -0.0086780
  C        0.2088860     1.4725900     0.0042210
  N        1.4659360     0.7906750    -0.0050880
  C        1.6696170    -0.5667500     0.0018210
  N        0.7040680    -1.4531450     0.0111020
  C       -0.5247290    -0.8567090    -0.0037110
  C       -0.8535850     0.4975420     0.0152200
  N       -2.2178950     0.6873840     0.0133320
  C       -2.7007143    -0.5237787     0.0005540
  N       -1.7302140    -1.5082770    -0.0075250
  N        2.9897250    -0.9823190    -0.0798750
  H        2.2637990     1.4140370    -0.1048620
  H       -3.7608500    -0.7938460    -0.0035590
  H       -1.8527810    -2.5141570    -0.0214260
  H        3.0628080    -1.9839860     0.0679760
  H        3.6422460    -0.4648460     0.5002060
units angstrom
no_reorient  #important for SAPT in psi4, default
symmetry c1  #important for SAPT in psi4, default
}

set PROPERTIES_ORIGIN ["COM"]
properties('MP2/aug-cc-pvtz', properties = ['dipole'])
--------------------------------------------------------------------------

    Molecular point group: c1
  Charge       = 0
  Multiplicity = 1
  Basis Set: AUG-CC-PVTZ
    Blend: AUG-CC-PVTZ
  Basis Set: (AUG-CC-PVTZ AUX)
    Blend: AUG-CC-PVTZ-JKFIT

    Orbital Energies [Eh]
    ---------------------

    Doubly Occupied:

       1A    -20.523849     2A    -15.634240     3A    -15.631883
       4A    -15.612587     5A    -15.573585     6A    -15.564545
       7A    -11.398929     8A    -11.367612     9A    -11.328155
      10A    -11.313888    11A    -11.251039    12A     -1.393502
      13A     -1.361241    14A     -1.336298    15A     -1.220905
      16A     -1.219969    17A     -1.180517    18A     -1.031932
      19A     -0.905090    20A     -0.885905    21A     -0.843895
      22A     -0.798755    23A     -0.740943    24A     -0.729842
      25A     -0.699954    26A     -0.673096    27A     -0.656250
      28A     -0.632590    29A     -0.614577    30A     -0.601696
      31A     -0.596588    32A     -0.547822    33A     -0.500230
      34A     -0.463490    35A     -0.443286    36A     -0.433651
      37A     -0.433210    38A     -0.412690    39A     -0.304570

  @DF-RHF Final Energy:  -539.58863604358919

   => Energetics <=

    Nuclear Repulsion Energy =            593.9459972165960835
    One-Electron Energy =               -1913.3436566802101879
    Two-Electron Energy =                 779.8090234200250279
    Total Energy =                       -539.5886360435891902
  Basis Set: (AUG-CC-PVTZ AUX)
    Blend: AUG-CC-PVTZ-RI
    Molecular point group: c1

    Geometry (in Angstrom), charge = 0, multiplicity = 1:

       Center              X                  Y                   Z               Mass
    ------------   -----------------  -----------------  -----------------  -----------------
         O            0.197811658145     2.667224123013    -0.005813082604    15.994914619570
         C            0.230317658145     1.442729123013     0.007085917396    12.000000000000
         N            1.487367658145     0.760814123013    -0.002223082604    14.003074004430
         C            1.691048658145    -0.596610876987     0.004685917396    12.000000000000
         N            0.725499658145    -1.483005876987     0.013966917396    14.003074004430
         C           -0.503297341855    -0.886569876987    -0.000846082604    12.000000000000
         C           -0.832153341855     0.467681123013     0.018084917396    12.000000000000
         N           -2.196463341855     0.657523123013     0.016196917396    14.003074004430
         C           -2.679282641855    -0.553639576987     0.003418917396    12.000000000000
         N           -1.708782341855    -1.538137876987    -0.004660082604    14.003074004430
         N            3.011156658145    -1.012179876987    -0.077010082604    14.003074004430
         H            2.285230658145     1.384176123013    -0.101997082604     1.007825032230
         H           -3.739418341855    -0.823706876987    -0.000694082604     1.007825032230
         H           -1.831349341855    -2.544017876987    -0.018561082604     1.007825032230
         H            3.084239658145    -2.013846876987     0.070840917396     1.007825032230
         H            3.663677658145    -0.494706876987     0.503070917396     1.007825032230

  Basis Set: AUG-CC-PVTZ
    Blend: AUG-CC-PVTZ
  Basis Set: (AUG-CC-PVTZ AUX)
    Blend: AUG-CC-PVTZ-JKFIT
	 Reference Energy          =    -539.5886360435891902 [Eh]
	 Singles Energy            =      -0.0000000000000000 [Eh]
	 Same-Spin Energy          =      -0.5725077900316438 [Eh]
	 Opposite-Spin Energy      =      -1.6622552438266318 [Eh]
	 Correlation Energy        =      -2.2347630338582753 [Eh]
	 Total Energy              =    -541.8233990774474478 [Eh]

	 ================> DF-SCS-MP2 Energies <==================
	-----------------------------------------------------------
	 SCS Same-Spin Scale       =       0.3333333333333333 [-]
	 SCS Opposite-Spin Scale   =       1.2000000000000000 [-]
	 SCS Same-Spin Energy      =      -0.1908359300105479 [Eh]
	 SCS Opposite-Spin Energy  =      -1.9947062925919581 [Eh]
	 SCS Correlation Energy    =      -2.1855422226025061 [Eh]
	 SCS Total Energy          =    -541.7741782661917114 [Eh]
	-----------------------------------------------------------

  Dipole Moment: [D]
     X:     2.6599      Y:    -5.6001      Z:     0.8436     Total:     6.2569

*** Psi4 exiting successfully. Buy a developer a beer!
