                               Psi4 1.4a3.dev225

  ==> Input File <==

--------------------------------------------------------------------------
#psi4
#
memory 32 gb

molecule  {
0 1
  O        0.1763800     2.6970850    -0.0086780
  C        0.2088860     1.4725900     0.0042210
  N        1.4659360     0.7906750    -0.0050880
  C        1.6696170    -0.5667500     0.0018210
  N        0.7040680    -1.4531450     0.0111020
  C       -0.5247290    -0.8567090    -0.0037110
  C       -0.8535850     0.4975420     0.0152200
  N       -2.2178950     0.6873840     0.0133320
  C       -2.7081200    -0.5423560     0.0003580
  N       -1.7302140    -1.5082770    -0.0075250
  N        2.9897250    -0.9823190    -0.0798750
  H        2.2637990     1.4140370    -0.1048620
  H       -3.7413975    -0.7891989    -0.0034866
  H       -1.8527810    -2.5141570    -0.0214260
  H        3.0628080    -1.9839860     0.0679760
  H        3.6422460    -0.4648460     0.5002060
units angstrom
no_reorient  #important for SAPT in psi4, default
symmetry c1  #important for SAPT in psi4, default
}

set PROPERTIES_ORIGIN ["COM"]
properties('MP2/aug-cc-pvtz', properties = ['dipole'])
--------------------------------------------------------------------------

    Molecular point group: c1
  Charge       = 0
  Multiplicity = 1
  Basis Set: AUG-CC-PVTZ
    Blend: AUG-CC-PVTZ
  Basis Set: (AUG-CC-PVTZ AUX)
    Blend: AUG-CC-PVTZ-JKFIT

    Orbital Energies [Eh]
    ---------------------

    Doubly Occupied:

       1A    -20.524405     2A    -15.636098     3A    -15.631976
       4A    -15.612379     5A    -15.573579     6A    -15.565245
       7A    -11.398592     8A    -11.368000     9A    -11.327549
      10A    -11.312149    11A    -11.251393    12A     -1.393541
      13A     -1.360932    14A     -1.335858    15A     -1.220795
      16A     -1.218322    17A     -1.178182    18A     -1.031857
      19A     -0.907550    20A     -0.885454    21A     -0.845796
      22A     -0.799986    23A     -0.740555    24A     -0.731159
      25A     -0.701131    26A     -0.673186    27A     -0.656520
      28A     -0.634377    29A     -0.614803    30A     -0.603080
      31A     -0.597052    32A     -0.547919    33A     -0.499807
      34A     -0.462552    35A     -0.443284    36A     -0.433147
      37A     -0.432600    38A     -0.412164    39A     -0.302915

  @DF-RHF Final Energy:  -539.58771231406104

   => Energetics <=

    Nuclear Repulsion Energy =            593.7664259941176397
    One-Electron Energy =               -1912.9764976325348016
    Two-Electron Energy =                 779.6223593243560117
    Total Energy =                       -539.5877123140610365
  Basis Set: (AUG-CC-PVTZ AUX)
    Blend: AUG-CC-PVTZ-RI
    Molecular point group: c1

    Geometry (in Angstrom), charge = 0, multiplicity = 1:

       Center              X                  Y                   Z               Mass
    ------------   -----------------  -----------------  -----------------  -----------------
         O            0.198270207990     2.668668975639    -0.005797994604    15.994914619570
         C            0.230776207990     1.444173975639     0.007101005396    12.000000000000
         N            1.487826207990     0.762258975639    -0.002207994604    14.003074004430
         C            1.691507207990    -0.595166024361     0.004701005396    12.000000000000
         N            0.725958207990    -1.481561024361     0.013982005396    14.003074004430
         C           -0.502838792010    -0.885125024361    -0.000830994604    12.000000000000
         C           -0.831694792010     0.469125975639     0.018100005396    12.000000000000
         N           -2.196004792010     0.658967975639     0.016212005396    14.003074004430
         C           -2.686229792010    -0.570772024361     0.003238005396    12.000000000000
         N           -1.708323792010    -1.536693024361    -0.004644994604    14.003074004430
         N            3.011615207990    -1.010735024361    -0.076994994604    14.003074004430
         H            2.285689207990     1.385620975639    -0.101981994604     1.007825032230
         H           -3.719507292010    -0.817614924361    -0.000606594604     1.007825032230
         H           -1.830890792010    -2.542573024361    -0.018545994604     1.007825032230
         H            3.084698207990    -2.012402024361     0.070856005396     1.007825032230
         H            3.664136207990    -0.493262024361     0.503086005396     1.007825032230

  Basis Set: AUG-CC-PVTZ
    Blend: AUG-CC-PVTZ
  Basis Set: (AUG-CC-PVTZ AUX)
    Blend: AUG-CC-PVTZ-JKFIT
	 Reference Energy          =    -539.5877123140610365 [Eh]
	 Singles Energy            =      -0.0000000000000000 [Eh]
	 Same-Spin Energy          =      -0.5729901598512078 [Eh]
	 Opposite-Spin Energy      =      -1.6630755858145230 [Eh]
	 Correlation Energy        =      -2.2360657456657309 [Eh]
	 Total Energy              =    -541.8237780597268056 [Eh]

	 ================> DF-SCS-MP2 Energies <==================
	-----------------------------------------------------------
	 SCS Same-Spin Scale       =       0.3333333333333333 [-]
	 SCS Opposite-Spin Scale   =       1.2000000000000000 [-]
	 SCS Same-Spin Energy      =      -0.1909967199504026 [Eh]
	 SCS Opposite-Spin Energy  =      -1.9956907029774276 [Eh]
	 SCS Correlation Energy    =      -2.1866874229278301 [Eh]
	 SCS Total Energy          =    -541.7743997369888120 [Eh]
	-----------------------------------------------------------

  Dipole Moment: [D]
     X:     2.6708      Y:    -5.6360      Z:     0.8434     Total:     6.2935

*** Psi4 exiting successfully. Buy a developer a beer!
