                               Psi4 1.3.2 release

  ==> Input File <==

--------------------------------------------------------------------------
#psi4
#
memory 32 gb

molecule  {
0 1
  O        0.1763910     2.6970700    -0.0085580
  C        0.2089260     1.4725840     0.0042240
  N        1.4776519     0.8127094    -0.0053409
  C        1.6696020    -0.5667920     0.0018180
  N        0.7040600    -1.4531590     0.0111340
  C       -0.5247500    -0.8567100    -0.0036900
  C       -0.8535700     0.4975280     0.0150930
  N       -2.2178770     0.6874110     0.0132550
  C       -2.7081380    -0.5423290     0.0003530
  N       -1.7302440    -1.5082620    -0.0074590
  N        2.9897270    -0.9822980    -0.0798890
  H        2.2638450     1.4140280    -0.1046570
  H       -3.7608750    -0.7937900    -0.0035550
  H       -1.8528420    -2.5141400    -0.0211820
  H        3.0628590    -1.9839740     0.0678780
  H        3.6422020    -0.4648880     0.5003130
units angstrom
no_reorient  #important for SAPT in psi4, default
symmetry c1  #important for SAPT in psi4, default
}

set PROPERTIES_ORIGIN ["COM"]
properties('MP2/aug-cc-pvtz', properties = ['dipole'])
--------------------------------------------------------------------------

    Molecular point group: c1
  Charge       = 0
  Multiplicity = 1
  Basis Set: AUG-CC-PVTZ
    Blend: AUG-CC-PVTZ
  Basis Set: (AUG-CC-PVTZ AUX)
    Blend: AUG-CC-PVTZ-JKFIT

    Orbital Energies [Eh]
    ---------------------

    Doubly Occupied:

       1A    -20.522713     2A    -15.636842     3A    -15.629737
       4A    -15.612820     5A    -15.575615     6A    -15.565910
       7A    -11.400762     8A    -11.367037     9A    -11.328149
      10A    -11.314545    11A    -11.252135    12A     -1.392148
      13A     -1.361034    14A     -1.333717    15A     -1.219905
      16A     -1.219079    17A     -1.179036    18A     -1.030886
      19A     -0.907067    20A     -0.883479    21A     -0.845405
      22A     -0.798369    23A     -0.745250    24A     -0.729468
      25A     -0.700984    26A     -0.672290    27A     -0.655280
      28A     -0.635774    29A     -0.613285    30A     -0.602430
      31A     -0.595877    32A     -0.547982    33A     -0.500900
      34A     -0.462467    35A     -0.442520    36A     -0.433116
      37A     -0.431791    38A     -0.412862    39A     -0.303313

  @DF-RHF Final Energy:  -539.58708259032505

   => Energetics <=

    Nuclear Repulsion Energy =            593.1850045584507143
    One-Electron Energy =               -1911.8202232793030362
    Two-Electron Energy =                 779.0481361305271548
    Total Energy =                       -539.5870825903250534
  Basis Set: (AUG-CC-PVTZ AUX)
    Blend: AUG-CC-PVTZ-RI
    Molecular point group: c1

    Geometry (in Angstrom), charge = 0, multiplicity = 1:

       Center              X                  Y                   Z               Mass
    ------------   -----------------  -----------------  -----------------  -----------------
         O            0.197325517207     2.666641956105    -0.005661686579    15.994914619570
         C            0.229860517207     1.442155956105     0.007120313421    12.000000000000
         N            1.498586417207     0.782281356105    -0.002444586579    14.003074004430
         C            1.690536517207    -0.597220043895     0.004714313421    12.000000000000
         N            0.724994517207    -1.483587043895     0.014030313421    14.003074004430
         C           -0.503815482793    -0.887138043895    -0.000793686579    12.000000000000
         C           -0.832635482793     0.467099956105     0.017989313421    12.000000000000
         N           -2.196942482793     0.656982956105     0.016151313421    14.003074004430
         C           -2.687203482793    -0.572757043895     0.003249313421    12.000000000000
         N           -1.709309482793    -1.538690043895    -0.004562686579    14.003074004430
         N            3.010661517207    -1.012726043895    -0.076992686579    14.003074004430
         H            2.284779517207     1.383599956105    -0.101760686579     1.007825032230
         H           -3.739940482793    -0.824218043895    -0.000658686579     1.007825032230
         H           -1.831907482793    -2.544568043895    -0.018285686579     1.007825032230
         H            3.083793517207    -2.014402043895     0.070774313421     1.007825032230
         H            3.663136517207    -0.495316043895     0.503209313421     1.007825032230

  Basis Set: AUG-CC-PVTZ
    Blend: AUG-CC-PVTZ
  Basis Set: (AUG-CC-PVTZ AUX)
    Blend: AUG-CC-PVTZ-JKFIT
	 Reference Energy          =    -539.5870825903250534 [Eh]
	 Singles Energy            =      -0.0000000000000000 [Eh]
	 Same-Spin Energy          =      -0.5727159205784649 [Eh]
	 Opposite-Spin Energy      =      -1.6629621046804495 [Eh]
	 Correlation Energy        =      -2.2356780252589141 [Eh]
	 Total Energy              =    -541.8227606155840022 [Eh]

	 ================> DF-SCS-MP2 Energies <==================
	-----------------------------------------------------------
	 SCS Same-Spin Scale       =       0.3333333333333333 [-]
	 SCS Opposite-Spin Scale   =       1.2000000000000000 [-]
	 SCS Same-Spin Energy      =      -0.1909053068594883 [Eh]
	 SCS Opposite-Spin Energy  =      -1.9955545256165392 [Eh]
	 SCS Correlation Energy    =      -2.1864598324760274 [Eh]
	 SCS Total Energy          =    -541.7735424228010288 [Eh]
	-----------------------------------------------------------

  Dipole Moment: [D]
     X:     2.6499      Y:    -5.7086      Z:     0.8406     Total:     6.3495

*** Psi4 exiting successfully. Buy a developer a beer!
