                               Psi4 1.3.2 release

  ==> Input File <==

--------------------------------------------------------------------------
#psi4
#
memory 32 gb

molecule  {
0 1
  O        0.1763910     2.6970700    -0.0085580
  C        0.1858975     1.4282994     0.0047857
  N        1.4659430     0.7906670    -0.0052000
  C        1.6696020    -0.5667920     0.0018180
  N        0.7040600    -1.4531590     0.0111340
  C       -0.5247500    -0.8567100    -0.0036900
  C       -0.8535700     0.4975280     0.0150930
  N       -2.2178770     0.6874110     0.0132550
  C       -2.7081380    -0.5423290     0.0003530
  N       -1.7302440    -1.5082620    -0.0074590
  N        2.9897270    -0.9822980    -0.0798890
  H        2.2638450     1.4140280    -0.1046570
  H       -3.7608750    -0.7937900    -0.0035550
  H       -1.8528420    -2.5141400    -0.0211820
  H        3.0628590    -1.9839740     0.0678780
  H        3.6422020    -0.4648880     0.5003130
units angstrom
no_reorient  #important for SAPT in psi4, default
symmetry c1  #important for SAPT in psi4, default
}

set PROPERTIES_ORIGIN ["COM"]
properties('MP2/aug-cc-pvtz', properties = ['dipole'])
--------------------------------------------------------------------------

    Molecular point group: c1
  Charge       = 0
  Multiplicity = 1
  Basis Set: AUG-CC-PVTZ
    Blend: AUG-CC-PVTZ
  Basis Set: (AUG-CC-PVTZ AUX)
    Blend: AUG-CC-PVTZ-JKFIT

    Orbital Energies [Eh]
    ---------------------

    Doubly Occupied:

       1A    -20.513088     2A    -15.640234     3A    -15.634544
       4A    -15.614106     5A    -15.577280     6A    -15.568699
       7A    -11.400619     8A    -11.365410     9A    -11.334588
      10A    -11.318996    11A    -11.251794    12A     -1.387272
      13A     -1.353098    14A     -1.326034    15A     -1.222501
      16A     -1.217326    17A     -1.182523    18A     -1.041708
      19A     -0.915351    20A     -0.885576    21A     -0.849216
      22A     -0.801149    23A     -0.745780    24A     -0.733386
      25A     -0.701679    26A     -0.674881    27A     -0.659206
      28A     -0.637054    29A     -0.606463    30A     -0.598879
      31A     -0.594517    32A     -0.539152    33A     -0.502912
      34A     -0.464299    35A     -0.441559    36A     -0.428741
      37A     -0.427469    38A     -0.414790    39A     -0.307304

  @DF-RHF Final Energy:  -539.58037783371526

   => Energetics <=

    Nuclear Repulsion Energy =            594.0086835330711210
    One-Electron Energy =               -1913.4197569307298181
    Two-Electron Energy =                 779.8306955639433227
    Total Energy =                       -539.5803778337152607
  Basis Set: (AUG-CC-PVTZ AUX)
    Blend: AUG-CC-PVTZ-RI
    Molecular point group: c1

    Geometry (in Angstrom), charge = 0, multiplicity = 1:

       Center              X                  Y                   Z               Mass
    ------------   -----------------  -----------------  -----------------  -----------------
         O            0.200240474596     2.672203557170    -0.005719372558    15.994914619570
         C            0.209746974596     1.403432957170     0.007624327442    12.000000000000
         N            1.489792474596     0.765800557170    -0.002361372558    14.003074004430
         C            1.693451474596    -0.591658442830     0.004656627442    12.000000000000
         N            0.727909474596    -1.478025442830     0.013972627442    14.003074004430
         C           -0.500900525404    -0.881576442830    -0.000851372558    12.000000000000
         C           -0.829720525404     0.472661557170     0.017931627442    12.000000000000
         N           -2.194027525404     0.662544557170     0.016093627442    14.003074004430
         C           -2.684288525404    -0.567195442830     0.003191627442    12.000000000000
         N           -1.706394525404    -1.533128442830    -0.004620372558    14.003074004430
         N            3.013576474596    -1.007164442830    -0.077050372558    14.003074004430
         H            2.287694474596     1.389161557170    -0.101818372558     1.007825032230
         H           -3.737025525404    -0.818656442830    -0.000716372558     1.007825032230
         H           -1.828992525404    -2.539006442830    -0.018343372558     1.007825032230
         H            3.086708474596    -2.008840442830     0.070716627442     1.007825032230
         H            3.666051474596    -0.489754442830     0.503151627442     1.007825032230

  Basis Set: AUG-CC-PVTZ
    Blend: AUG-CC-PVTZ
  Basis Set: (AUG-CC-PVTZ AUX)
    Blend: AUG-CC-PVTZ-JKFIT
	 Reference Energy          =    -539.5803778337152607 [Eh]
	 Singles Energy            =      -0.0000000000000000 [Eh]
	 Same-Spin Energy          =      -0.5739819584099964 [Eh]
	 Opposite-Spin Energy      =      -1.6649479990202067 [Eh]
	 Correlation Energy        =      -2.2389299574302033 [Eh]
	 Total Energy              =    -541.8193077911454338 [Eh]

	 ================> DF-SCS-MP2 Energies <==================
	-----------------------------------------------------------
	 SCS Same-Spin Scale       =       0.3333333333333333 [-]
	 SCS Opposite-Spin Scale   =       1.2000000000000000 [-]
	 SCS Same-Spin Energy      =      -0.1913273194699988 [Eh]
	 SCS Opposite-Spin Energy  =      -1.9979375988242480 [Eh]
	 SCS Correlation Energy    =      -2.1892649182942470 [Eh]
	 SCS Total Energy          =    -541.7696427520095313 [Eh]
	-----------------------------------------------------------

  Dipole Moment: [D]
     X:     2.5716      Y:    -6.0709      Z:     0.8451     Total:     6.6470

*** Psi4 exiting successfully. Buy a developer a beer!
