                               Psi4 1.3.2 release

  ==> Input File <==

--------------------------------------------------------------------------
#psi4
#
memory 32 gb

molecule  {
0 1
  O        0.1763910     2.6970700    -0.0085580
  C        0.2089260     1.4725840     0.0042240
  N        1.6089523     0.8045151    -0.0058968
  C        1.6696020    -0.5667920     0.0018180
  N        0.7040600    -1.4531590     0.0111340
  C       -0.5247500    -0.8567100    -0.0036900
  C       -0.8535700     0.4975280     0.0150930
  N       -2.2178770     0.6874110     0.0132550
  C       -2.7081380    -0.5423290     0.0003530
  N       -1.7302440    -1.5082620    -0.0074590
  N        2.9897270    -0.9822980    -0.0798890
  H        2.2638450     1.4140280    -0.1046570
  H       -3.7608750    -0.7937900    -0.0035550
  H       -1.8528420    -2.5141400    -0.0211820
  H        3.0628590    -1.9839740     0.0678780
  H        3.6422020    -0.4648880     0.5003130
units angstrom
no_reorient  #important for SAPT in psi4, default
symmetry c1  #important for SAPT in psi4, default
}

set PROPERTIES_ORIGIN ["COM"]
properties('MP2/aug-cc-pvtz', properties = ['dipole'])
--------------------------------------------------------------------------

    Molecular point group: c1
  Charge       = 0
  Multiplicity = 1
  Basis Set: AUG-CC-PVTZ
    Blend: AUG-CC-PVTZ
  Basis Set: (AUG-CC-PVTZ AUX)
    Blend: AUG-CC-PVTZ-JKFIT

    Orbital Energies [Eh]
    ---------------------

    Doubly Occupied:

       1A    -20.535162     2A    -15.639160     3A    -15.617470
       4A    -15.603037     5A    -15.574982     6A    -15.569238
       7A    -11.398639     8A    -11.378908     9A    -11.332954
      10A    -11.317025    11A    -11.256159    12A     -1.390250
      13A     -1.364492    14A     -1.336100    15A     -1.224074
      16A     -1.206817    17A     -1.183020    18A     -1.030803
      19A     -0.912573    20A     -0.877729    21A     -0.848569
      22A     -0.805174    23A     -0.752805    24A     -0.726268
      25A     -0.699380    26A     -0.668062    27A     -0.651345
      28A     -0.633809    29A     -0.613026    30A     -0.607010
      31A     -0.594275    32A     -0.545241    33A     -0.504306
      34A     -0.459222    35A     -0.444352    36A     -0.436108
      37A     -0.434958    38A     -0.415875    39A     -0.304607

  @DF-RHF Final Energy:  -539.55946758619007

   => Energetics <=

    Nuclear Repulsion Energy =            591.1296108794747397
    One-Electron Energy =               -1907.5921808514051463
    Two-Electron Energy =                 776.9031023857403397
    Total Energy =                       -539.5594675861900669
  Basis Set: (AUG-CC-PVTZ AUX)
    Blend: AUG-CC-PVTZ-RI
    Molecular point group: c1

    Geometry (in Angstrom), charge = 0, multiplicity = 1:

       Center              X                  Y                   Z               Mass
    ------------   -----------------  -----------------  -----------------  -----------------
         O            0.185153280186     2.667401610773    -0.005610151728    15.994914619570
         C            0.217688280186     1.442915610773     0.007171848272    12.000000000000
         N            1.617714580186     0.774846710773    -0.002948951728    14.003074004430
         C            1.678364280186    -0.596460389227     0.004765848272    12.000000000000
         N            0.712822280186    -1.482827389227     0.014081848272    14.003074004430
         C           -0.515987719814    -0.886378389227    -0.000742151728    12.000000000000
         C           -0.844807719814     0.467859610773     0.018040848272    12.000000000000
         N           -2.209114719814     0.657742610773     0.016202848272    14.003074004430
         C           -2.699375719814    -0.571997389227     0.003300848272    12.000000000000
         N           -1.721481719814    -1.537930389227    -0.004511151728    14.003074004430
         N            2.998489280186    -1.011966389227    -0.076941151728    14.003074004430
         H            2.272607280186     1.384359610773    -0.101709151728     1.007825032230
         H           -3.752112719814    -0.823458389227    -0.000607151728     1.007825032230
         H           -1.844079719814    -2.543808389227    -0.018234151728     1.007825032230
         H            3.071621280186    -2.013642389227     0.070825848272     1.007825032230
         H            3.650964280186    -0.494556389227     0.503260848272     1.007825032230

  Basis Set: AUG-CC-PVTZ
    Blend: AUG-CC-PVTZ
  Basis Set: (AUG-CC-PVTZ AUX)
    Blend: AUG-CC-PVTZ-JKFIT
	 Reference Energy          =    -539.5594675861900669 [Eh]
	 Singles Energy            =      -0.0000000000000000 [Eh]
	 Same-Spin Energy          =      -0.5724494873737476 [Eh]
	 Opposite-Spin Energy      =      -1.6642572290810107 [Eh]
	 Correlation Energy        =      -2.2367067164547585 [Eh]
	 Total Energy              =    -541.7961743026447721 [Eh]

	 ================> DF-SCS-MP2 Energies <==================
	-----------------------------------------------------------
	 SCS Same-Spin Scale       =       0.3333333333333333 [-]
	 SCS Opposite-Spin Scale   =       1.2000000000000000 [-]
	 SCS Same-Spin Energy      =      -0.1908164957912492 [Eh]
	 SCS Opposite-Spin Energy  =      -1.9971086748972127 [Eh]
	 SCS Correlation Energy    =      -2.1879251706884619 [Eh]
	 SCS Total Energy          =    -541.7473927568785257 [Eh]
	-----------------------------------------------------------

  Dipole Moment: [D]
     X:     2.1705      Y:    -5.3740      Z:     0.8227     Total:     5.8538

*** Psi4 exiting successfully. Buy a developer a beer!
