                               Psi4 1.3.2 release

  ==> Input File <==

--------------------------------------------------------------------------
#psi4
#
memory 32 gb

molecule  {
0 1
  O        0.1763910     2.6970700    -0.0085580
  C        0.2089260     1.4725840     0.0042240
  N        1.4659430     0.7906670    -0.0052000
  C        1.6696020    -0.5667920     0.0018180
  N        0.7040600    -1.4531590     0.0111340
  C       -0.5247500    -0.8567100    -0.0036900
  C       -0.8535700     0.4975280     0.0150930
  N       -2.1752561     0.6695521     0.0131524
  C       -2.7081380    -0.5423290     0.0003530
  N       -1.7302440    -1.5082620    -0.0074590
  N        2.9897270    -0.9822980    -0.0798890
  H        2.2638450     1.4140280    -0.1046570
  H       -3.7608750    -0.7937900    -0.0035550
  H       -1.8528420    -2.5141400    -0.0211820
  H        3.0628590    -1.9839740     0.0678780
  H        3.6422020    -0.4648880     0.5003130
units angstrom
no_reorient  #important for SAPT in psi4, default
symmetry c1  #important for SAPT in psi4, default
}

set PROPERTIES_ORIGIN ["COM"]
properties('MP2/aug-cc-pvtz', properties = ['dipole'])
--------------------------------------------------------------------------

    Molecular point group: c1
  Charge       = 0
  Multiplicity = 1
  Basis Set: AUG-CC-PVTZ
    Blend: AUG-CC-PVTZ
  Basis Set: (AUG-CC-PVTZ AUX)
    Blend: AUG-CC-PVTZ-JKFIT

    Orbital Energies [Eh]
    ---------------------

    Doubly Occupied:

       1A    -20.525454     2A    -15.636145     3A    -15.631626
       4A    -15.611482     5A    -15.572281     6A    -15.559885
       7A    -11.397209     8A    -11.368255     9A    -11.324445
      10A    -11.312242    11A    -11.248756    12A     -1.394530
      13A     -1.363534    14A     -1.336674    15A     -1.220288
      16A     -1.219010    17A     -1.182654    18A     -1.030343
      19A     -0.907275    20A     -0.885141    21A     -0.848142
      22A     -0.798608    23A     -0.741382    24A     -0.730709
      25A     -0.700073    26A     -0.673009    27A     -0.656951
      28A     -0.633808    29A     -0.616068    30A     -0.609628
      31A     -0.597857    32A     -0.548192    33A     -0.498662
      34A     -0.462127    35A     -0.443861    36A     -0.432489
      37A     -0.428388    38A     -0.415903    39A     -0.299031

  @DF-RHF Final Energy:  -539.58639700826154

   => Energetics <=

    Nuclear Repulsion Energy =            594.9867142157945636
    One-Electron Energy =               -1915.4219855597211790
    Two-Electron Energy =                 780.8488743356650730
    Total Energy =                       -539.5863970082615424
  Basis Set: (AUG-CC-PVTZ AUX)
    Blend: AUG-CC-PVTZ-RI
    Molecular point group: c1

    Geometry (in Angstrom), charge = 0, multiplicity = 1:

       Center              X                  Y                   Z               Mass
    ------------   -----------------  -----------------  -----------------  -----------------
         O            0.194459812375     2.670341016283    -0.005665237190    15.994914619570
         C            0.226994812375     1.445855016283     0.007116762810    12.000000000000
         N            1.484011812375     0.763938016283    -0.002307237190    14.003074004430
         C            1.687670812375    -0.593520983717     0.004710762810    12.000000000000
         N            0.722128812375    -1.479887983717     0.014026762810    14.003074004430
         C           -0.506681187625    -0.883438983717    -0.000797237190    12.000000000000
         C           -0.835501187625     0.470799016283     0.017985762810    12.000000000000
         N           -2.157187287625     0.642823116283     0.016045162810    14.003074004430
         C           -2.690069187625    -0.569057983717     0.003245762810    12.000000000000
         N           -1.712175187625    -1.534990983717    -0.004566237190    14.003074004430
         N            3.007795812375    -1.009026983717    -0.076996237190    14.003074004430
         H            2.281913812375     1.387299016283    -0.101764237190     1.007825032230
         H           -3.742806187625    -0.820518983717    -0.000662237190     1.007825032230
         H           -1.834773187625    -2.540868983717    -0.018289237190     1.007825032230
         H            3.080927812375    -2.010702983717     0.070770762810     1.007825032230
         H            3.660270812375    -0.491616983717     0.503205762810     1.007825032230

  Basis Set: AUG-CC-PVTZ
    Blend: AUG-CC-PVTZ
  Basis Set: (AUG-CC-PVTZ AUX)
    Blend: AUG-CC-PVTZ-JKFIT
	 Reference Energy          =    -539.5863970082615424 [Eh]
	 Singles Energy            =      -0.0000000000000000 [Eh]
	 Same-Spin Energy          =      -0.5735590059562831 [Eh]
	 Opposite-Spin Energy      =      -1.6629991984540040 [Eh]
	 Correlation Energy        =      -2.2365582044102870 [Eh]
	 Total Energy              =    -541.8229552126717863 [Eh]

	 ================> DF-SCS-MP2 Energies <==================
	-----------------------------------------------------------
	 SCS Same-Spin Scale       =       0.3333333333333333 [-]
	 SCS Opposite-Spin Scale   =       1.2000000000000000 [-]
	 SCS Same-Spin Energy      =      -0.1911863353187610 [Eh]
	 SCS Opposite-Spin Energy  =      -1.9955990381448048 [Eh]
	 SCS Correlation Energy    =      -2.1867853734635658 [Eh]
	 SCS Total Energy          =    -541.7731823817250643 [Eh]
	-----------------------------------------------------------

  Dipole Moment: [D]
     X:     2.5714      Y:    -5.5858      Z:     0.8449     Total:     6.2070

*** Psi4 exiting successfully. Buy a developer a beer!
