                               Psi4 1.3.2 release

  ==> Input File <==

--------------------------------------------------------------------------
#psi4
#
memory 32 gb

molecule  {
0 1
  O        0.1763910     2.6970700    -0.0085580
  C        0.2089260     1.4725840     0.0042240
  N        1.4659430     0.7906670    -0.0052000
  C        1.6696020    -0.5667920     0.0018180
  N        0.6825140    -1.4956740     0.0098653
  C       -0.5247500    -0.8567100    -0.0036900
  C       -0.8535700     0.4975280     0.0150930
  N       -2.2178770     0.6874110     0.0132550
  C       -2.7081380    -0.5423290     0.0003530
  N       -1.7302440    -1.5082620    -0.0074590
  N        2.9897270    -0.9822980    -0.0798890
  H        2.2638450     1.4140280    -0.1046570
  H       -3.7608750    -0.7937900    -0.0035550
  H       -1.8528420    -2.5141400    -0.0211820
  H        3.0628590    -1.9839740     0.0678780
  H        3.6422020    -0.4648880     0.5003130
units angstrom
no_reorient  #important for SAPT in psi4, default
symmetry c1  #important for SAPT in psi4, default
}

set PROPERTIES_ORIGIN ["COM"]
properties('MP2/aug-cc-pvtz', properties = ['dipole'])
--------------------------------------------------------------------------

    Molecular point group: c1
  Charge       = 0
  Multiplicity = 1
  Basis Set: AUG-CC-PVTZ
    Blend: AUG-CC-PVTZ
  Basis Set: (AUG-CC-PVTZ AUX)
    Blend: AUG-CC-PVTZ-JKFIT

    Orbital Energies [Eh]
    ---------------------

    Doubly Occupied:

       1A    -20.524989     2A    -15.637084     3A    -15.632834
       4A    -15.616781     5A    -15.578413     6A    -15.563941
       7A    -11.407375     8A    -11.368519     9A    -11.326197
      10A    -11.312670    11A    -11.250165    12A     -1.393025
      13A     -1.359467    14A     -1.333117    15A     -1.223640
      16A     -1.215295    17A     -1.174851    18A     -1.028197
      19A     -0.905377    20A     -0.887399    21A     -0.843381
      22A     -0.795266    23A     -0.741823    24A     -0.729228
      25A     -0.702083    26A     -0.673561    27A     -0.654471
      28A     -0.627742    29A     -0.614435    30A     -0.600745
      31A     -0.595268    32A     -0.547004    33A     -0.502562
      34A     -0.462807    35A     -0.444613    36A     -0.434372
      37A     -0.433258    38A     -0.410577    39A     -0.299677

  @DF-RHF Final Energy:  -539.58238809655415

   => Energetics <=

    Nuclear Repulsion Energy =            592.5905839702886624
    One-Electron Energy =               -1910.6415299935274561
    Two-Electron Energy =                 778.4685579266846389
    Total Energy =                       -539.5823880965541548
  Basis Set: (AUG-CC-PVTZ AUX)
    Blend: AUG-CC-PVTZ-RI
    Molecular point group: c1

    Geometry (in Angstrom), charge = 0, multiplicity = 1:

       Center              X                  Y                   Z               Mass
    ------------   -----------------  -----------------  -----------------  -----------------
         O            0.200408421181     2.672626766313    -0.005557133593    15.994914619570
         C            0.232943421181     1.448140766313     0.007224866407    12.000000000000
         N            1.489960421181     0.766223766313    -0.002199133593    14.003074004430
         C            1.693619421181    -0.591235233687     0.004818866407    12.000000000000
         N            0.706531421181    -1.520117233687     0.012866166407    14.003074004430
         C           -0.500732578819    -0.881153233687    -0.000689133593    12.000000000000
         C           -0.829552578819     0.473084766313     0.018093866407    12.000000000000
         N           -2.193859578819     0.662967766313     0.016255866407    14.003074004430
         C           -2.684120578819    -0.566772233687     0.003353866407    12.000000000000
         N           -1.706226578819    -1.532705233687    -0.004458133593    14.003074004430
         N            3.013744421181    -1.006741233687    -0.076888133593    14.003074004430
         H            2.287862421181     1.389584766313    -0.101656133593     1.007825032230
         H           -3.736857578819    -0.818233233687    -0.000554133593     1.007825032230
         H           -1.828824578819    -2.538583233687    -0.018181133593     1.007825032230
         H            3.086876421181    -2.008417233687     0.070878866407     1.007825032230
         H            3.666219421181    -0.489331233687     0.503313866407     1.007825032230

  Basis Set: AUG-CC-PVTZ
    Blend: AUG-CC-PVTZ
  Basis Set: (AUG-CC-PVTZ AUX)
    Blend: AUG-CC-PVTZ-JKFIT
	 Reference Energy          =    -539.5823880965541548 [Eh]
	 Singles Energy            =      -0.0000000000000000 [Eh]
	 Same-Spin Energy          =      -0.5735800657620300 [Eh]
	 Opposite-Spin Energy      =      -1.6646731080230481 [Eh]
	 Correlation Energy        =      -2.2382531737850782 [Eh]
	 Total Energy              =    -541.8206412703392516 [Eh]

	 ================> DF-SCS-MP2 Energies <==================
	-----------------------------------------------------------
	 SCS Same-Spin Scale       =       0.3333333333333333 [-]
	 SCS Opposite-Spin Scale   =       1.2000000000000000 [-]
	 SCS Same-Spin Energy      =      -0.1911933552540100 [Eh]
	 SCS Opposite-Spin Energy  =      -1.9976077296276578 [Eh]
	 SCS Correlation Energy    =      -2.1888010848816677 [Eh]
	 SCS Total Energy          =    -541.7711891814358296 [Eh]
	-----------------------------------------------------------

  Dipole Moment: [D]
     X:     2.8543      Y:    -5.5377      Z:     0.8409     Total:     6.2865

*** Psi4 exiting successfully. Buy a developer a beer!
