                               Psi4 1.3.2 release

  ==> Input File <==

--------------------------------------------------------------------------
#psi4
#
memory 32 gb

molecule  {
0 1
  O        0.2618907     2.6963561    -0.0086048
  C        0.2089260     1.4725840     0.0042240
  N        1.4659430     0.7906670    -0.0052000
  C        1.6696020    -0.5667920     0.0018180
  N        0.7040600    -1.4531590     0.0111340
  C       -0.5247500    -0.8567100    -0.0036900
  C       -0.8535700     0.4975280     0.0150930
  N       -2.2178770     0.6874110     0.0132550
  C       -2.7081380    -0.5423290     0.0003530
  N       -1.7302440    -1.5082620    -0.0074590
  N        2.9897270    -0.9822980    -0.0798890
  H        2.2638450     1.4140280    -0.1046570
  H       -3.7608750    -0.7937900    -0.0035550
  H       -1.8528420    -2.5141400    -0.0211820
  H        3.0628590    -1.9839740     0.0678780
  H        3.6422020    -0.4648880     0.5003130
units angstrom
no_reorient  #important for SAPT in psi4, default
symmetry c1  #important for SAPT in psi4, default
}

set PROPERTIES_ORIGIN ["COM"]
properties('MP2/aug-cc-pvtz', properties = ['dipole'])
--------------------------------------------------------------------------

    Molecular point group: c1
  Charge       = 0
  Multiplicity = 1
  Basis Set: AUG-CC-PVTZ
    Blend: AUG-CC-PVTZ
  Basis Set: (AUG-CC-PVTZ AUX)
    Blend: AUG-CC-PVTZ-JKFIT

    Orbital Energies [Eh]
    ---------------------

    Doubly Occupied:

       1A    -20.523668     2A    -15.637614     3A    -15.628184
       4A    -15.611437     5A    -15.572947     6A    -15.566844
       7A    -11.397135     8A    -11.368368     9A    -11.329974
      10A    -11.315644    11A    -11.254252    12A     -1.394853
      13A     -1.362555    14A     -1.334582    15A     -1.219227
      16A     -1.216820    17A     -1.179326    18A     -1.032932
      19A     -0.907618    20A     -0.883851    21A     -0.846453
      22A     -0.798673    23A     -0.739405    24A     -0.730111
      25A     -0.700764    26A     -0.673443    27A     -0.656351
      28A     -0.633603    29A     -0.614694    30A     -0.602818
      31A     -0.597062    32A     -0.547951    33A     -0.500229
      34A     -0.462179    35A     -0.442702    36A     -0.435166
      37A     -0.430824    38A     -0.413739    39A     -0.304352

  @DF-RHF Final Energy:  -539.58690548974153

   => Energetics <=

    Nuclear Repulsion Energy =            593.6363717423641901
    One-Electron Energy =               -1912.7098580770134504
    Two-Electron Energy =                 779.4865808449077349
    Total Energy =                       -539.5869054897415253
  Basis Set: (AUG-CC-PVTZ AUX)
    Blend: AUG-CC-PVTZ-RI
    Molecular point group: c1

    Geometry (in Angstrom), charge = 0, multiplicity = 1:

       Center              X                  Y                   Z               Mass
    ------------   -----------------  -----------------  -----------------  -----------------
         O            0.274856964899     2.668047098665    -0.005716593007    15.994914619570
         C            0.221892264899     1.444274998665     0.007112206993    12.000000000000
         N            1.478909264899     0.762357998665    -0.002311793007    14.003074004430
         C            1.682568264899    -0.595101001335     0.004706206993    12.000000000000
         N            0.717026264899    -1.481468001335     0.014022206993    14.003074004430
         C           -0.511783735101    -0.885019001335    -0.000801793007    12.000000000000
         C           -0.840603735101     0.469218998665     0.017981206993    12.000000000000
         N           -2.204910735101     0.659101998665     0.016143206993    14.003074004430
         C           -2.695171735101    -0.570638001335     0.003241206993    12.000000000000
         N           -1.717277735101    -1.536571001335    -0.004570793007    14.003074004430
         N            3.002693264899    -1.010607001335    -0.077000793007    14.003074004430
         H            2.276811264899     1.385718998665    -0.101768793007     1.007825032230
         H           -3.747908735101    -0.822099001335    -0.000666793007     1.007825032230
         H           -1.839875735101    -2.542449001335    -0.018293793007     1.007825032230
         H            3.075825264899    -2.012283001335     0.070766206993     1.007825032230
         H            3.655168264899    -0.493197001335     0.503201206993     1.007825032230

  Basis Set: AUG-CC-PVTZ
    Blend: AUG-CC-PVTZ
  Basis Set: (AUG-CC-PVTZ AUX)
    Blend: AUG-CC-PVTZ-JKFIT
	 Reference Energy          =    -539.5869054897415253 [Eh]
	 Singles Energy            =      -0.0000000000000000 [Eh]
	 Same-Spin Energy          =      -0.5729213704714897 [Eh]
	 Opposite-Spin Energy      =      -1.6629151612673336 [Eh]
	 Correlation Energy        =      -2.2358365317388236 [Eh]
	 Total Energy              =    -541.8227420214803942 [Eh]

	 ================> DF-SCS-MP2 Energies <==================
	-----------------------------------------------------------
	 SCS Same-Spin Scale       =       0.3333333333333333 [-]
	 SCS Opposite-Spin Scale   =       1.2000000000000000 [-]
	 SCS Same-Spin Energy      =      -0.1909737901571632 [Eh]
	 SCS Opposite-Spin Energy  =      -1.9954981935208003 [Eh]
	 SCS Correlation Energy    =      -2.1864719836779636 [Eh]
	 SCS Total Energy          =    -541.7733774734194867 [Eh]
	-----------------------------------------------------------

  Dipole Moment: [D]
     X:     2.4790      Y:    -5.6651      Z:     0.8442     Total:     6.2410

*** Psi4 exiting successfully. Buy a developer a beer!
