                               Psi4 1.3.2 release

  ==> Input File <==

--------------------------------------------------------------------------
#psi4
#
memory 32 gb

molecule  {
0 1
  O        0.1763910     2.6970700    -0.0085580
  C        0.2089260     1.4725840     0.0042240
  N        1.4659430     0.7906670    -0.0052000
  C        1.6999486    -0.6010230     0.0024858
  N        0.7040600    -1.4531590     0.0111340
  C       -0.5247500    -0.8567100    -0.0036900
  C       -0.8535700     0.4975280     0.0150930
  N       -2.2178770     0.6874110     0.0132550
  C       -2.7081380    -0.5423290     0.0003530
  N       -1.7302440    -1.5082620    -0.0074590
  N        2.9897270    -0.9822980    -0.0798890
  H        2.2638450     1.4140280    -0.1046570
  H       -3.7608750    -0.7937900    -0.0035550
  H       -1.8528420    -2.5141400    -0.0211820
  H        3.0628590    -1.9839740     0.0678780
  H        3.6422020    -0.4648880     0.5003130
units angstrom
no_reorient  #important for SAPT in psi4, default
symmetry c1  #important for SAPT in psi4, default
}

set PROPERTIES_ORIGIN ["COM"]
properties('MP2/aug-cc-pvtz', properties = ['dipole'])
--------------------------------------------------------------------------

    Molecular point group: c1
  Charge       = 0
  Multiplicity = 1
  Basis Set: AUG-CC-PVTZ
    Blend: AUG-CC-PVTZ
  Basis Set: (AUG-CC-PVTZ AUX)
    Blend: AUG-CC-PVTZ-JKFIT

    Orbital Energies [Eh]
    ---------------------

    Doubly Occupied:

       1A    -20.521735     2A    -15.635571     3A    -15.626155
       4A    -15.618287     5A    -15.572484     6A    -15.564180
       7A    -11.400071     8A    -11.365446     9A    -11.326520
      10A    -11.313043    11A    -11.250026    12A     -1.389262
      13A     -1.359392    14A     -1.337320    15A     -1.230020
      16A     -1.211217    17A     -1.176007    18A     -1.030051
      19A     -0.903767    20A     -0.882901    21A     -0.843557
      22A     -0.799019    23A     -0.741647    24A     -0.732056
      25A     -0.703695    26A     -0.670258    27A     -0.654093
      28A     -0.638634    29A     -0.612479    30A     -0.599403
      31A     -0.595657    32A     -0.550436    33A     -0.495427
      34A     -0.464829    35A     -0.439779    36A     -0.431017
      37A     -0.428172    38A     -0.410636    39A     -0.301717

  @DF-RHF Final Energy:  -539.58429762091714

   => Energetics <=

    Nuclear Repulsion Energy =            593.1687905253968438
    One-Electron Energy =               -1911.8542522377706518
    Two-Electron Energy =                 779.1011640914566669
    Total Energy =                       -539.5842976209171411
  Basis Set: (AUG-CC-PVTZ AUX)
    Blend: AUG-CC-PVTZ-RI
    Molecular point group: c1

    Geometry (in Angstrom), charge = 0, multiplicity = 1:

       Center              X                  Y                   Z               Mass
    ------------   -----------------  -----------------  -----------------  -----------------
         O            0.196000132308     2.671404856929    -0.005727801588    15.994914619570
         C            0.228535132308     1.446918856929     0.007054198412    12.000000000000
         N            1.485552132308     0.765001856929    -0.002369801588    14.003074004430
         C            1.719557732308    -0.626688143071     0.005315998412    12.000000000000
         N            0.723669132308    -1.478824143071     0.013964198412    14.003074004430
         C           -0.505140867692    -0.882375143071    -0.000859801588    12.000000000000
         C           -0.833960867692     0.471862856929     0.017923198412    12.000000000000
         N           -2.198267867692     0.661745856929     0.016085198412    14.003074004430
         C           -2.688528867692    -0.567994143071     0.003183198412    12.000000000000
         N           -1.710634867692    -1.533927143071    -0.004628801588    14.003074004430
         N            3.009336132308    -1.007963143071    -0.077058801588    14.003074004430
         H            2.283454132308     1.388362856929    -0.101826801588     1.007825032230
         H           -3.741265867692    -0.819455143071    -0.000724801588     1.007825032230
         H           -1.833232867692    -2.539805143071    -0.018351801588     1.007825032230
         H            3.082468132308    -2.009639143071     0.070708198412     1.007825032230
         H            3.661811132308    -0.490553143071     0.503143198412     1.007825032230

  Basis Set: AUG-CC-PVTZ
    Blend: AUG-CC-PVTZ
  Basis Set: (AUG-CC-PVTZ AUX)
    Blend: AUG-CC-PVTZ-JKFIT
	 Reference Energy          =    -539.5842976209171411 [Eh]
	 Singles Energy            =      -0.0000000000000000 [Eh]
	 Same-Spin Energy          =      -0.5732422292093107 [Eh]
	 Opposite-Spin Energy      =      -1.6634274218279961 [Eh]
	 Correlation Energy        =      -2.2366696510373067 [Eh]
	 Total Energy              =    -541.8209672719544869 [Eh]

	 ================> DF-SCS-MP2 Energies <==================
	-----------------------------------------------------------
	 SCS Same-Spin Scale       =       0.3333333333333333 [-]
	 SCS Opposite-Spin Scale   =       1.2000000000000000 [-]
	 SCS Same-Spin Energy      =      -0.1910807430697702 [Eh]
	 SCS Opposite-Spin Energy  =      -1.9961129061935952 [Eh]
	 SCS Correlation Energy    =      -2.1871936492633655 [Eh]
	 SCS Total Energy          =    -541.7714912701804906 [Eh]
	-----------------------------------------------------------

  Dipole Moment: [D]
     X:     2.9390      Y:    -5.8358      Z:     0.8403     Total:     6.5879

*** Psi4 exiting successfully. Buy a developer a beer!
