                               Psi4 1.3.2 release

  ==> Input File <==

--------------------------------------------------------------------------
#psi4
#
memory 32 gb

molecule  {
0 1
  O        0.1763910     2.6970700    -0.0085580
  C        0.2089260     1.4725840     0.0042240
  N        1.4659430     0.7906670    -0.0052000
  C        1.6696020    -0.5667920     0.0018180
  N        0.8513893    -1.3179108     0.0097125
  C       -0.5247500    -0.8567100    -0.0036900
  C       -0.8535700     0.4975280     0.0150930
  N       -2.2178770     0.6874110     0.0132550
  C       -2.7081380    -0.5423290     0.0003530
  N       -1.7302440    -1.5082620    -0.0074590
  N        2.9897270    -0.9822980    -0.0798890
  H        2.2638450     1.4140280    -0.1046570
  H       -3.7608750    -0.7937900    -0.0035550
  H       -1.8528420    -2.5141400    -0.0211820
  H        3.0628590    -1.9839740     0.0678780
  H        3.6422020    -0.4648880     0.5003130
units angstrom
no_reorient  #important for SAPT in psi4, default
symmetry c1  #important for SAPT in psi4, default
}

set PROPERTIES_ORIGIN ["COM"]
properties('MP2/aug-cc-pvtz', properties = ['dipole'])
--------------------------------------------------------------------------

    Molecular point group: c1
  Charge       = 0
  Multiplicity = 1
  Basis Set: AUG-CC-PVTZ
    Blend: AUG-CC-PVTZ
  Basis Set: (AUG-CC-PVTZ AUX)
    Blend: AUG-CC-PVTZ-JKFIT

    Orbital Energies [Eh]
    ---------------------

    Doubly Occupied:

       1A    -20.526155     2A    -15.654600     3A    -15.607558
       4A    -15.584446     5A    -15.574396     6A    -15.554150
       7A    -11.368449     8A    -11.347663     9A    -11.341018
      10A    -11.324564    11A    -11.263300    12A     -1.406235
      13A     -1.368909    14A     -1.359401    15A     -1.220189
      16A     -1.204041    17A     -1.192327    18A     -1.047254
      19A     -0.911936    20A     -0.868601    21A     -0.850177
      22A     -0.812040    23A     -0.734945    24A     -0.731179
      25A     -0.693040    26A     -0.673722    27A     -0.661030
      28A     -0.646111    29A     -0.616455    30A     -0.608993
      31A     -0.606215    32A     -0.554158    33A     -0.492451
      34A     -0.454541    35A     -0.437561    36A     -0.432652
      37A     -0.425222    38A     -0.419589    39A     -0.326270

  @DF-RHF Final Energy:  -539.52992246163785

   => Energetics <=

    Nuclear Repulsion Energy =            597.1614842387928093
    One-Electron Energy =               -1919.5797307016905506
    Two-Electron Energy =                 782.8883240012598890
    Total Energy =                       -539.5299224616378524
  Basis Set: (AUG-CC-PVTZ AUX)
    Blend: AUG-CC-PVTZ-RI
    Molecular point group: c1

    Geometry (in Angstrom), charge = 0, multiplicity = 1:

       Center              X                  Y                   Z               Mass
    ------------   -----------------  -----------------  -----------------  -----------------
         O            0.184752793486     2.656147183585    -0.005542968230    15.994914619570
         C            0.217287793486     1.431661183585     0.007239031770    12.000000000000
         N            1.474304793486     0.749744183585    -0.002184968230    14.003074004430
         C            1.677963793486    -0.607714816415     0.004833031770    12.000000000000
         N            0.859751093486    -1.358833616415     0.012727531770    14.003074004430
         C           -0.516388206514    -0.897632816415    -0.000674968230    12.000000000000
         C           -0.845208206514     0.456605183585     0.018108031770    12.000000000000
         N           -2.209515206514     0.646488183585     0.016270031770    14.003074004430
         C           -2.699776206514    -0.583251816415     0.003368031770    12.000000000000
         N           -1.721882206514    -1.549184816415    -0.004443968230    14.003074004430
         N            2.998088793486    -1.023220816415    -0.076873968230    14.003074004430
         H            2.272206793486     1.373105183585    -0.101641968230     1.007825032230
         H           -3.752513206514    -0.834712816415    -0.000539968230     1.007825032230
         H           -1.844480206514    -2.555062816415    -0.018166968230     1.007825032230
         H            3.071220793486    -2.024896816415     0.070893031770     1.007825032230
         H            3.650563793486    -0.505810816415     0.503328031770     1.007825032230

  Basis Set: AUG-CC-PVTZ
    Blend: AUG-CC-PVTZ
  Basis Set: (AUG-CC-PVTZ AUX)
    Blend: AUG-CC-PVTZ-JKFIT
	 Reference Energy          =    -539.5299224616378524 [Eh]
	 Singles Energy            =      -0.0000000000000000 [Eh]
	 Same-Spin Energy          =      -0.5705527464374993 [Eh]
	 Opposite-Spin Energy      =      -1.6592926524235865 [Eh]
	 Correlation Energy        =      -2.2298453988610856 [Eh]
	 Total Energy              =    -541.7597678604989824 [Eh]

	 ================> DF-SCS-MP2 Energies <==================
	-----------------------------------------------------------
	 SCS Same-Spin Scale       =       0.3333333333333333 [-]
	 SCS Opposite-Spin Scale   =       1.2000000000000000 [-]
	 SCS Same-Spin Energy      =      -0.1901842488124998 [Eh]
	 SCS Opposite-Spin Energy  =      -1.9911511829083037 [Eh]
	 SCS Correlation Energy    =      -2.1813354317208034 [Eh]
	 SCS Total Energy          =    -541.7112578933586065 [Eh]
	-----------------------------------------------------------

  Dipole Moment: [D]
     X:     1.4457      Y:    -5.9638      Z:     0.8713     Total:     6.1980

*** Psi4 exiting successfully. Buy a developer a beer!
