                               Psi4 1.3.2 release

  ==> Input File <==

--------------------------------------------------------------------------
#psi4
#
memory 32 gb

molecule  {
0 1
  O        0.1763910     2.6970700    -0.0085580
  C        0.2089260     1.4725840     0.0042240
  N        1.4659430     0.7906670    -0.0052000
  C        1.6696020    -0.5667920     0.0018180
  N        0.7040600    -1.4531590     0.0111340
  C       -0.5247500    -0.8567100    -0.0036900
  C       -0.8535700     0.4975280     0.0150930
  N       -2.2178770     0.6874110     0.0132550
  C       -2.7081380    -0.5423290     0.0003530
  N       -1.7302440    -1.5082620    -0.0074590
  N        2.9897270    -0.9822980    -0.0798890
  H        2.2638450     1.4140280    -0.1046570
  H       -3.7608750    -0.7937900    -0.0035550
  H       -1.8528420    -2.5141400    -0.0211820
  H        3.0115503    -1.9923171     0.0197273
  H        3.6422020    -0.4648880     0.5003130
units angstrom
no_reorient  #important for SAPT in psi4, default
symmetry c1  #important for SAPT in psi4, default
}

set PROPERTIES_ORIGIN ["COM"]
properties('MP2/aug-cc-pvtz', properties = ['dipole'])
--------------------------------------------------------------------------

    Molecular point group: c1
  Charge       = 0
  Multiplicity = 1
  Basis Set: AUG-CC-PVTZ
    Blend: AUG-CC-PVTZ
  Basis Set: (AUG-CC-PVTZ AUX)
    Blend: AUG-CC-PVTZ-JKFIT

    Orbital Energies [Eh]
    ---------------------

    Doubly Occupied:

       1A    -20.524335     2A    -15.636300     3A    -15.631600
       4A    -15.612114     5A    -15.573740     6A    -15.565340
       7A    -11.397963     8A    -11.367860     9A    -11.327712
      10A    -11.314312    11A    -11.251456    12A     -1.393514
      13A     -1.361002    14A     -1.336037    15A     -1.220747
      16A     -1.218236    17A     -1.178288    18A     -1.031055
      19A     -0.906986    20A     -0.883796    21A     -0.845054
      22A     -0.800650    23A     -0.740334    24A     -0.727965
      25A     -0.703853    26A     -0.673834    27A     -0.656142
      28A     -0.633498    29A     -0.614670    30A     -0.601410
      31A     -0.596599    32A     -0.547646    33A     -0.500054
      34A     -0.461866    35A     -0.443258    36A     -0.433096
      37A     -0.432572    38A     -0.412288    39A     -0.302918

  @DF-RHF Final Energy:  -539.58700927803852

   => Energetics <=

    Nuclear Repulsion Energy =            593.7534120449214470
    One-Electron Energy =               -1912.9606457124205008
    Two-Electron Energy =                 779.6202243894606454
    Total Energy =                       -539.5870092780385221
  Basis Set: (AUG-CC-PVTZ AUX)
    Blend: AUG-CC-PVTZ-RI
    Molecular point group: c1

    Geometry (in Angstrom), charge = 0, multiplicity = 1:

       Center              X                  Y                   Z               Mass
    ------------   -----------------  -----------------  -----------------  -----------------
         O            0.198753333348     2.668741068865    -0.005353479829    15.994914619570
         C            0.231288333348     1.444255068865     0.007428520171    12.000000000000
         N            1.488305333348     0.762338068865    -0.001995479829    14.003074004430
         C            1.691964333348    -0.595120931135     0.005022520171    12.000000000000
         N            0.726422333348    -1.481487931135     0.014338520171    14.003074004430
         C           -0.502387666652    -0.885038931135    -0.000485479829    12.000000000000
         C           -0.831207666652     0.469199068865     0.018297520171    12.000000000000
         N           -2.195514666652     0.659082068865     0.016459520171    14.003074004430
         C           -2.685775666652    -0.570657931135     0.003557520171    12.000000000000
         N           -1.707881666652    -1.536590931135    -0.004254479829    14.003074004430
         N            3.012089333348    -1.010626931135    -0.076684479829    14.003074004430
         H            2.286207333348     1.385699068865    -0.101452479829     1.007825032230
         H           -3.738512666652    -0.822118931135    -0.000350479829     1.007825032230
         H           -1.830479666652    -2.542468931135    -0.017977479829     1.007825032230
         H            3.033912633348    -2.020646031135     0.022931820171     1.007825032230
         H            3.664564333348    -0.493216931135     0.503517520171     1.007825032230

  Basis Set: AUG-CC-PVTZ
    Blend: AUG-CC-PVTZ
  Basis Set: (AUG-CC-PVTZ AUX)
    Blend: AUG-CC-PVTZ-JKFIT
	 Reference Energy          =    -539.5870092780385221 [Eh]
	 Singles Energy            =      -0.0000000000000000 [Eh]
	 Same-Spin Energy          =      -0.5731094718992613 [Eh]
	 Opposite-Spin Energy      =      -1.6632694821195027 [Eh]
	 Correlation Energy        =      -2.2363789540187637 [Eh]
	 Total Energy              =    -541.8233882320572548 [Eh]

	 ================> DF-SCS-MP2 Energies <==================
	-----------------------------------------------------------
	 SCS Same-Spin Scale       =       0.3333333333333333 [-]
	 SCS Opposite-Spin Scale   =       1.2000000000000000 [-]
	 SCS Same-Spin Energy      =      -0.1910364906330871 [Eh]
	 SCS Opposite-Spin Energy  =      -1.9959233785434032 [Eh]
	 SCS Correlation Energy    =      -2.1869598691764902 [Eh]
	 SCS Total Energy          =    -541.7739691472149843 [Eh]
	-----------------------------------------------------------

  Dipole Moment: [D]
     X:     2.6495      Y:    -5.6389      Z:     0.7920     Total:     6.2805

*** Psi4 exiting successfully. Buy a developer a beer!
