                               Psi4 1.3.2 release

  ==> Input File <==

--------------------------------------------------------------------------
#psi4
#
memory 32 gb

molecule  {
0 1
  O        0.1763910     2.6970700    -0.0085580
  C        0.2089260     1.4725840     0.0042240
  N        1.4659430     0.7906670    -0.0052000
  C        1.6696020    -0.5667920     0.0018180
  N        0.7040600    -1.4531590     0.0111340
  C       -0.4822379    -0.9423776    -0.0050995
  C       -0.8535700     0.4975280     0.0150930
  N       -2.2178770     0.6874110     0.0132550
  C       -2.7081380    -0.5423290     0.0003530
  N       -1.7302440    -1.5082620    -0.0074590
  N        2.9897270    -0.9822980    -0.0798890
  H        2.2638450     1.4140280    -0.1046570
  H       -3.7608750    -0.7937900    -0.0035550
  H       -1.8528420    -2.5141400    -0.0211820
  H        3.0628590    -1.9839740     0.0678780
  H        3.6422020    -0.4648880     0.5003130
units angstrom
no_reorient  #important for SAPT in psi4, default
symmetry c1  #important for SAPT in psi4, default
}

set PROPERTIES_ORIGIN ["COM"]
properties('MP2/aug-cc-pvtz', properties = ['dipole'])
--------------------------------------------------------------------------

    Molecular point group: c1
  Charge       = 0
  Multiplicity = 1
  Basis Set: AUG-CC-PVTZ
    Blend: AUG-CC-PVTZ
  Basis Set: (AUG-CC-PVTZ AUX)
    Blend: AUG-CC-PVTZ-JKFIT

    Orbital Energies [Eh]
    ---------------------

    Doubly Occupied:

       1A    -20.516065     2A    -15.637862     3A    -15.635123
       4A    -15.617161     5A    -15.575351     6A    -15.567151
       7A    -11.406455     8A    -11.361494     9A    -11.336072
      10A    -11.311676    11A    -11.252732    12A     -1.392803
      13A     -1.358380    14A     -1.337016    15A     -1.237932
      16A     -1.222476    17A     -1.179753    18A     -1.018635
      19A     -0.910451    20A     -0.894089    21A     -0.838317
      22A     -0.805614    23A     -0.743654    24A     -0.735498
      25A     -0.698441    26A     -0.664703    27A     -0.657953
      28A     -0.645503    29A     -0.608597    30A     -0.598282
      31A     -0.595020    32A     -0.549052    33A     -0.501012
      34A     -0.472588    35A     -0.439667    36A     -0.435843
      37A     -0.423514    38A     -0.410475    39A     -0.286979

  @DF-RHF Final Energy:  -539.57192643249414

   => Energetics <=

    Nuclear Repulsion Energy =            592.9411242866319753
    One-Electron Energy =               -1911.2673279353375619
    Two-Electron Energy =                 778.7542772162114488
    Total Energy =                       -539.5719264324941378
  Basis Set: (AUG-CC-PVTZ AUX)
    Blend: AUG-CC-PVTZ-RI
    Molecular point group: c1

    Geometry (in Angstrom), charge = 0, multiplicity = 1:

       Center              X                  Y                   Z               Mass
    ------------   -----------------  -----------------  -----------------  -----------------
         O            0.195033653854     2.675491196629    -0.005562772145    15.994914619570
         C            0.227568653854     1.451005196629     0.007219227855    12.000000000000
         N            1.484585653854     0.769088196629    -0.002204772145    14.003074004430
         C            1.688244653854    -0.588370803371     0.004813227855    12.000000000000
         N            0.722702653854    -1.474737803371     0.014129227855    14.003074004430
         C           -0.463595246146    -0.963956403371    -0.002104272145    12.000000000000
         C           -0.834927346146     0.475949196629     0.018088227855    12.000000000000
         N           -2.199234346146     0.665832196629     0.016250227855    14.003074004430
         C           -2.689495346146    -0.563907803371     0.003348227855    12.000000000000
         N           -1.711601346146    -1.529840803371    -0.004463772145    14.003074004430
         N            3.008369653854    -1.003876803371    -0.076893772145    14.003074004430
         H            2.282487653854     1.392449196629    -0.101661772145     1.007825032230
         H           -3.742232346146    -0.815368803371    -0.000559772145     1.007825032230
         H           -1.834199346146    -2.535718803371    -0.018186772145     1.007825032230
         H            3.081501653854    -2.005552803371     0.070873227855     1.007825032230
         H            3.660844653854    -0.486466803371     0.503308227855     1.007825032230

  Basis Set: AUG-CC-PVTZ
    Blend: AUG-CC-PVTZ
  Basis Set: (AUG-CC-PVTZ AUX)
    Blend: AUG-CC-PVTZ-JKFIT
	 Reference Energy          =    -539.5719264324941378 [Eh]
	 Singles Energy            =      -0.0000000000000000 [Eh]
	 Same-Spin Energy          =      -0.5752801115565523 [Eh]
	 Opposite-Spin Energy      =      -1.6647248807383868 [Eh]
	 Correlation Energy        =      -2.2400049922949390 [Eh]
	 Total Energy              =    -541.8119314247891225 [Eh]

	 ================> DF-SCS-MP2 Energies <==================
	-----------------------------------------------------------
	 SCS Same-Spin Scale       =       0.3333333333333333 [-]
	 SCS Opposite-Spin Scale   =       1.2000000000000000 [-]
	 SCS Same-Spin Energy      =      -0.1917600371855174 [Eh]
	 SCS Opposite-Spin Energy  =      -1.9976698568860640 [Eh]
	 SCS Correlation Energy    =      -2.1894298940715813 [Eh]
	 SCS Total Energy          =    -541.7613563265657604 [Eh]
	-----------------------------------------------------------

  Dipole Moment: [D]
     X:     2.8040      Y:    -5.8789      Z:     0.8438     Total:     6.5678

*** Psi4 exiting successfully. Buy a developer a beer!
