                               Psi4 1.3.2 release

  ==> Input File <==

--------------------------------------------------------------------------
#psi4
#
memory 32 gb

molecule  {
0 1
  O        0.1763910     2.6970700    -0.0085580
  C        0.2089260     1.4725840     0.0042240
  N        1.4187991     0.7827653    -0.0019371
  C        1.6696020    -0.5667920     0.0018180
  N        0.7040600    -1.4531590     0.0111340
  C       -0.5247500    -0.8567100    -0.0036900
  C       -0.8535700     0.4975280     0.0150930
  N       -2.2178770     0.6874110     0.0132550
  C       -2.7081380    -0.5423290     0.0003530
  N       -1.7302440    -1.5082620    -0.0074590
  N        2.9897270    -0.9822980    -0.0798890
  H        2.2638450     1.4140280    -0.1046570
  H       -3.7608750    -0.7937900    -0.0035550
  H       -1.8528420    -2.5141400    -0.0211820
  H        3.0628590    -1.9839740     0.0678780
  H        3.6422020    -0.4648880     0.5003130
units angstrom
no_reorient  #important for SAPT in psi4, default
symmetry c1  #important for SAPT in psi4, default
}

set PROPERTIES_ORIGIN ["COM"]
properties('MP2/aug-cc-pvtz', properties = ['dipole'])
--------------------------------------------------------------------------

    Molecular point group: c1
  Charge       = 0
  Multiplicity = 1
  Basis Set: AUG-CC-PVTZ
    Blend: AUG-CC-PVTZ
  Basis Set: (AUG-CC-PVTZ AUX)
    Blend: AUG-CC-PVTZ-JKFIT

    Orbital Energies [Eh]
    ---------------------

    Doubly Occupied:

       1A    -20.520917     2A    -15.636390     3A    -15.635400
       4A    -15.615468     5A    -15.573650     6A    -15.564098
       7A    -11.399441     8A    -11.364243     9A    -11.325836
      10A    -11.313568    11A    -11.250191    12A     -1.395761
      13A     -1.359942    14A     -1.335954    15A     -1.226359
      16A     -1.217211    17A     -1.176893    18A     -1.032241
      19A     -0.909699    20A     -0.886375    21A     -0.844080
      22A     -0.800223    23A     -0.732200    24A     -0.731561
      25A     -0.701702    26A     -0.674290    27A     -0.658658
      28A     -0.633048    29A     -0.614251    30A     -0.599375
      31A     -0.596055    32A     -0.549436    33A     -0.498171
      34A     -0.463794    35A     -0.442447    36A     -0.431904
      37A     -0.431104    38A     -0.411082    39A     -0.302629

  @DF-RHF Final Energy:  -539.58356932770494

   => Energetics <=

    Nuclear Repulsion Energy =            594.5655891105609498
    One-Electron Energy =               -1914.5870205608375727
    Two-Electron Energy =                 780.4378621225716870
    Total Energy =                       -539.5835693277049359
  Basis Set: (AUG-CC-PVTZ AUX)
    Blend: AUG-CC-PVTZ-RI
    Molecular point group: c1

    Geometry (in Angstrom), charge = 0, multiplicity = 1:

       Center              X                  Y                   Z               Mass
    ------------   -----------------  -----------------  -----------------  -----------------
         O            0.202781481019     2.669417931521    -0.005977236725    15.994914619570
         C            0.235316481019     1.444931931521     0.006804763275    12.000000000000
         N            1.445189581019     0.755113231521     0.000643663275    14.003074004430
         C            1.695992481019    -0.594444068479     0.004398763275    12.000000000000
         N            0.730450481019    -1.480811068479     0.013714763275    14.003074004430
         C           -0.498359518981    -0.884362068479    -0.001109236725    12.000000000000
         C           -0.827179518981     0.469875931521     0.017673763275    12.000000000000
         N           -2.191486518981     0.659758931521     0.015835763275    14.003074004430
         C           -2.681747518981    -0.569981068479     0.002933763275    12.000000000000
         N           -1.703853518981    -1.535914068479    -0.004878236725    14.003074004430
         N            3.016117481019    -1.009950068479    -0.077308236725    14.003074004430
         H            2.290235481019     1.386375931521    -0.102076236725     1.007825032230
         H           -3.734484518981    -0.821442068479    -0.000974236725     1.007825032230
         H           -1.826451518981    -2.541792068479    -0.018601236725     1.007825032230
         H            3.089249481019    -2.011626068479     0.070458763275     1.007825032230
         H            3.668592481019    -0.492540068479     0.502893763275     1.007825032230

  Basis Set: AUG-CC-PVTZ
    Blend: AUG-CC-PVTZ
  Basis Set: (AUG-CC-PVTZ AUX)
    Blend: AUG-CC-PVTZ-JKFIT
	 Reference Energy          =    -539.5835693277049359 [Eh]
	 Singles Energy            =      -0.0000000000000000 [Eh]
	 Same-Spin Energy          =      -0.5736758589295793 [Eh]
	 Opposite-Spin Energy      =      -1.6638816947020465 [Eh]
	 Correlation Energy        =      -2.2375575536316257 [Eh]
	 Total Energy              =    -541.8211268813365677 [Eh]

	 ================> DF-SCS-MP2 Energies <==================
	-----------------------------------------------------------
	 SCS Same-Spin Scale       =       0.3333333333333333 [-]
	 SCS Opposite-Spin Scale   =       1.2000000000000000 [-]
	 SCS Same-Spin Energy      =      -0.1912252863098597 [Eh]
	 SCS Opposite-Spin Energy  =      -1.9966580336424558 [Eh]
	 SCS Correlation Energy    =      -2.1878833199523156 [Eh]
	 SCS Total Energy          =    -541.7714526476572701 [Eh]
	-----------------------------------------------------------

  Dipole Moment: [D]
     X:     2.8107      Y:    -5.7303      Z:     0.8471     Total:     6.4385

*** Psi4 exiting successfully. Buy a developer a beer!
