                               Psi4 1.3.2 release

  ==> Input File <==

--------------------------------------------------------------------------
#psi4
#
memory 32 gb

molecule  {
0 1
  O        0.1763910     2.6970700    -0.0085580
  C        0.2592408     1.5581697    -0.0061432
  N        1.4659430     0.7906670    -0.0052000
  C        1.6696020    -0.5667920     0.0018180
  N        0.7040600    -1.4531590     0.0111340
  C       -0.5247500    -0.8567100    -0.0036900
  C       -0.8535700     0.4975280     0.0150930
  N       -2.2178770     0.6874110     0.0132550
  C       -2.7081380    -0.5423290     0.0003530
  N       -1.7302440    -1.5082620    -0.0074590
  N        2.9897270    -0.9822980    -0.0798890
  H        2.2638450     1.4140280    -0.1046570
  H       -3.7608750    -0.7937900    -0.0035550
  H       -1.8528420    -2.5141400    -0.0211820
  H        3.0628590    -1.9839740     0.0678780
  H        3.6422020    -0.4648880     0.5003130
units angstrom
no_reorient  #important for SAPT in psi4, default
symmetry c1  #important for SAPT in psi4, default
}

set PROPERTIES_ORIGIN ["COM"]
properties('MP2/aug-cc-pvtz', properties = ['dipole'])
--------------------------------------------------------------------------

    Molecular point group: c1
  Charge       = 0
  Multiplicity = 1
  Basis Set: AUG-CC-PVTZ
    Blend: AUG-CC-PVTZ
  Basis Set: (AUG-CC-PVTZ AUX)
    Blend: AUG-CC-PVTZ-JKFIT

    Orbital Energies [Eh]
    ---------------------

    Doubly Occupied:

       1A    -20.544635     2A    -15.628737     3A    -15.627437
       4A    -15.609257     5A    -15.567231     6A    -15.558539
       7A    -11.395122     8A    -11.370351     9A    -11.314663
      10A    -11.305805    11A    -11.248373    12A     -1.447270
      13A     -1.363858    14A     -1.334318    15A     -1.221833
      16A     -1.212979    17A     -1.170228    18A     -1.013388
      19A     -0.895465    20A     -0.879682    21A     -0.836920
      22A     -0.795556    23A     -0.730662    24A     -0.725621
      25A     -0.701067    26A     -0.675493    27A     -0.654116
      28A     -0.645483    29A     -0.627572    30A     -0.598494
      31A     -0.594671    32A     -0.569658    33A     -0.493900
      34A     -0.461552    35A     -0.448876    36A     -0.438384
      37A     -0.426295    38A     -0.405283    39A     -0.293957

  @DF-RHF Final Energy:  -539.57660456253586

   => Energetics <=

    Nuclear Repulsion Energy =            593.1506715530401834
    One-Electron Energy =               -1911.7890861740368109
    Two-Electron Energy =                 779.0618100584607646
    Total Energy =                       -539.5766045625358629
  Basis Set: (AUG-CC-PVTZ AUX)
    Blend: AUG-CC-PVTZ-RI
    Molecular point group: c1

    Geometry (in Angstrom), charge = 0, multiplicity = 1:

       Center              X                  Y                   Z               Mass
    ------------   -----------------  -----------------  -----------------  -----------------
         O            0.194413774570     2.661886114672    -0.004851134806    15.994914619570
         C            0.277263574570     1.522985814672    -0.002436334806    12.000000000000
         N            1.483965774570     0.755483114672    -0.001493134806    14.003074004430
         C            1.687624774570    -0.601975885328     0.005524865194    12.000000000000
         N            0.722082774570    -1.488342885328     0.014840865194    14.003074004430
         C           -0.506727225430    -0.891893885328     0.000016865194    12.000000000000
         C           -0.835547225430     0.462344114672     0.018799865194    12.000000000000
         N           -2.199854225430     0.652227114672     0.016961865194    14.003074004430
         C           -2.690115225430    -0.577512885328     0.004059865194    12.000000000000
         N           -1.712221225430    -1.543445885328    -0.003752134806    14.003074004430
         N            3.007749774570    -1.017481885328    -0.076182134806    14.003074004430
         H            2.281867774570     1.378844114672    -0.100950134806     1.007825032230
         H           -3.742852225430    -0.828973885328     0.000151865194     1.007825032230
         H           -1.834819225430    -2.549323885328    -0.017475134806     1.007825032230
         H            3.080881774570    -2.019157885328     0.071584865194     1.007825032230
         H            3.660224774570    -0.500071885328     0.504019865194     1.007825032230

  Basis Set: AUG-CC-PVTZ
    Blend: AUG-CC-PVTZ
  Basis Set: (AUG-CC-PVTZ AUX)
    Blend: AUG-CC-PVTZ-JKFIT
	 Reference Energy          =    -539.5766045625358629 [Eh]
	 Singles Energy            =      -0.0000000000000000 [Eh]
	 Same-Spin Energy          =      -0.5714193262491034 [Eh]
	 Opposite-Spin Energy      =      -1.6603650260473775 [Eh]
	 Correlation Energy        =      -2.2317843522964811 [Eh]
	 Total Energy              =    -541.8083889148323351 [Eh]

	 ================> DF-SCS-MP2 Energies <==================
	-----------------------------------------------------------
	 SCS Same-Spin Scale       =       0.3333333333333333 [-]
	 SCS Opposite-Spin Scale   =       1.2000000000000000 [-]
	 SCS Same-Spin Energy      =      -0.1904731087497011 [Eh]
	 SCS Opposite-Spin Energy  =      -1.9924380312568528 [Eh]
	 SCS Correlation Energy    =      -2.1829111400065537 [Eh]
	 SCS Total Energy          =    -541.7595157025424442 [Eh]
	-----------------------------------------------------------

  Dipole Moment: [D]
     X:     2.8952      Y:    -4.7510      Z:     0.8274     Total:     5.6248

*** Psi4 exiting successfully. Buy a developer a beer!
