                               Psi4 1.3.2 release

  ==> Input File <==

--------------------------------------------------------------------------
#psi4
#
memory 32 gb

molecule  {
0 1
  O        0.1763910     2.6970700    -0.0085580
  C        0.2089260     1.4725840     0.0042240
  N        1.5611310     0.8015644    -0.0056735
  C        1.6696020    -0.5667920     0.0018180
  N        0.7040600    -1.4531590     0.0111340
  C       -0.5247500    -0.8567100    -0.0036900
  C       -0.8535700     0.4975280     0.0150930
  N       -2.2178770     0.6874110     0.0132550
  C       -2.7081380    -0.5423290     0.0003530
  N       -1.7302440    -1.5082620    -0.0074590
  N        2.9897270    -0.9822980    -0.0798890
  H        2.2638450     1.4140280    -0.1046570
  H       -3.7608750    -0.7937900    -0.0035550
  H       -1.8528420    -2.5141400    -0.0211820
  H        3.0628590    -1.9839740     0.0678780
  H        3.6422020    -0.4648880     0.5003130
units angstrom
no_reorient  #important for SAPT in psi4, default
symmetry c1  #important for SAPT in psi4, default
}

set PROPERTIES_ORIGIN ["COM"]
properties('MP2/aug-cc-pvtz', properties = ['dipole'])
--------------------------------------------------------------------------

    Molecular point group: c1
  Charge       = 0
  Multiplicity = 1
  Basis Set: AUG-CC-PVTZ
    Blend: AUG-CC-PVTZ
  Basis Set: (AUG-CC-PVTZ AUX)
    Blend: AUG-CC-PVTZ-JKFIT

    Orbital Energies [Eh]
    ---------------------

    Doubly Occupied:

       1A    -20.531559     2A    -15.638134     3A    -15.622491
       4A    -15.606150     5A    -15.574289     6A    -15.567903
       7A    -11.398199     8A    -11.375428     9A    -11.331171
      10A    -11.316065    11A    -11.254495    12A     -1.390878
      13A     -1.363261    14A     -1.335930    15A     -1.221793
      16A     -1.210972    17A     -1.181380    18A     -1.030704
      19A     -0.909066    20A     -0.879701    21A     -0.847270
      22A     -0.801404    23A     -0.752020    24A     -0.727394
      25A     -0.699398    26A     -0.669757    27A     -0.652741
      28A     -0.634135    29A     -0.614133    30A     -0.605933
      31A     -0.595127    32A     -0.545823    33A     -0.502836
      34A     -0.460214    35A     -0.444154    36A     -0.435365
      37A     -0.434731    38A     -0.414651    39A     -0.303929

  @DF-RHF Final Energy:  -539.57569258610602

   => Energetics <=

    Nuclear Repulsion Energy =            591.9332688285808217
    One-Electron Energy =               -1909.2567516440285544
    Two-Electron Energy =                 777.7477902293417173
    Total Energy =                       -539.5756925861060154
  Basis Set: (AUG-CC-PVTZ AUX)
    Blend: AUG-CC-PVTZ-RI
    Molecular point group: c1

    Geometry (in Angstrom), charge = 0, multiplicity = 1:

       Center              X                  Y                   Z               Mass
    ------------   -----------------  -----------------  -----------------  -----------------
         O            0.189586565981     2.667675156168    -0.005630852811    15.994914619570
         C            0.222121565981     1.443189156168     0.007151147189    12.000000000000
         N            1.574326565981     0.772169556168    -0.002746352811    14.003074004430
         C            1.682797565981    -0.596186843832     0.004745147189    12.000000000000
         N            0.717255565981    -1.482553843832     0.014061147189    14.003074004430
         C           -0.511554434019    -0.886104843832    -0.000762852811    12.000000000000
         C           -0.840374434019     0.468133156168     0.018020147189    12.000000000000
         N           -2.204681434019     0.658016156168     0.016182147189    14.003074004430
         C           -2.694942434019    -0.571723843832     0.003280147189    12.000000000000
         N           -1.717048434019    -1.537656843832    -0.004531852811    14.003074004430
         N            3.002922565981    -1.011692843832    -0.076961852811    14.003074004430
         H            2.277040565981     1.384633156168    -0.101729852811     1.007825032230
         H           -3.747679434019    -0.823184843832    -0.000627852811     1.007825032230
         H           -1.839646434019    -2.543534843832    -0.018254852811     1.007825032230
         H            3.076054565981    -2.013368843832     0.070805147189     1.007825032230
         H            3.655397565981    -0.494282843832     0.503240147189     1.007825032230

  Basis Set: AUG-CC-PVTZ
    Blend: AUG-CC-PVTZ
  Basis Set: (AUG-CC-PVTZ AUX)
    Blend: AUG-CC-PVTZ-JKFIT
	 Reference Energy          =    -539.5756925861060154 [Eh]
	 Singles Energy            =      -0.0000000000000000 [Eh]
	 Same-Spin Energy          =      -0.5724090602589296 [Eh]
	 Opposite-Spin Energy      =      -1.6633854648190645 [Eh]
	 Correlation Energy        =      -2.2357945250779938 [Eh]
	 Total Energy              =    -541.8114871111839648 [Eh]

	 ================> DF-SCS-MP2 Energies <==================
	-----------------------------------------------------------
	 SCS Same-Spin Scale       =       0.3333333333333333 [-]
	 SCS Opposite-Spin Scale   =       1.2000000000000000 [-]
	 SCS Same-Spin Energy      =      -0.1908030200863098 [Eh]
	 SCS Opposite-Spin Energy  =      -1.9960625577828772 [Eh]
	 SCS Correlation Energy    =      -2.1868655778691872 [Eh]
	 SCS Total Energy          =    -541.7625581639751999 [Eh]
	-----------------------------------------------------------

  Dipole Moment: [D]
     X:     2.3465      Y:    -5.4568      Z:     0.8302     Total:     5.9977

*** Psi4 exiting successfully. Buy a developer a beer!
