                               Psi4 1.3.2 release

  ==> Input File <==

--------------------------------------------------------------------------
#psi4
#
memory 32 gb

molecule  {
0 1
  O        0.1763910     2.6970700    -0.0085580
  C        0.2089260     1.4725840     0.0042240
  N        1.4659430     0.7906670    -0.0052000
  C        1.6696020    -0.5667920     0.0018180
  N        0.7040600    -1.4531590     0.0111340
  C       -0.5247500    -0.8567100    -0.0036900
  C       -0.8535700     0.4975280     0.0150930
  N       -2.2178770     0.6874110     0.0132550
  C       -2.8037493    -0.6498243    -0.0015176
  N       -1.7302440    -1.5082620    -0.0074590
  N        2.9897270    -0.9822980    -0.0798890
  H        2.2638450     1.4140280    -0.1046570
  H       -3.7608750    -0.7937900    -0.0035550
  H       -1.8528420    -2.5141400    -0.0211820
  H        3.0628590    -1.9839740     0.0678780
  H        3.6422020    -0.4648880     0.5003130
units angstrom
no_reorient  #important for SAPT in psi4, default
symmetry c1  #important for SAPT in psi4, default
}

set PROPERTIES_ORIGIN ["COM"]
properties('MP2/aug-cc-pvtz', properties = ['dipole'])
--------------------------------------------------------------------------

    Molecular point group: c1
  Charge       = 0
  Multiplicity = 1
  Basis Set: AUG-CC-PVTZ
    Blend: AUG-CC-PVTZ
  Basis Set: (AUG-CC-PVTZ AUX)
    Blend: AUG-CC-PVTZ-JKFIT

    Orbital Energies [Eh]
    ---------------------

    Doubly Occupied:

       1A    -20.528877     2A    -15.646901     3A    -15.633562
       4A    -15.612374     5A    -15.574445     6A    -15.573557
       7A    -11.398385     8A    -11.371964     9A    -11.326663
      10A    -11.317834    11A    -11.255576    12A     -1.394746
      13A     -1.355521    14A     -1.330384    15A     -1.221810
      16A     -1.213157    17A     -1.157785    18A     -1.029086
      19A     -0.917551    20A     -0.883908    21A     -0.850423
      22A     -0.803172    23A     -0.744024    24A     -0.732502
      25A     -0.705620    26A     -0.673873    27A     -0.659307
      28A     -0.644549    29A     -0.616701    30A     -0.595079
      31A     -0.592987    32A     -0.549529    33A     -0.493875
      34A     -0.459655    35A     -0.444203    36A     -0.430738
      37A     -0.427265    38A     -0.405101    39A     -0.293346

  @DF-RHF Final Energy:  -539.54635665781780

   => Energetics <=

    Nuclear Repulsion Energy =            590.7957626148215695
    One-Electron Energy =               -1906.9521688073355108
    Two-Electron Energy =                 776.6100495346961452
    Total Energy =                       -539.5463566578177961
  Basis Set: (AUG-CC-PVTZ AUX)
    Blend: AUG-CC-PVTZ-RI
    Molecular point group: c1

    Geometry (in Angstrom), charge = 0, multiplicity = 1:

       Center              X                  Y                   Z               Mass
    ------------   -----------------  -----------------  -----------------  -----------------
         O            0.206006757305     2.677225280863    -0.005526140423    15.994914619570
         C            0.238541757305     1.452739280863     0.007255859577    12.000000000000
         N            1.495558757305     0.770822280863    -0.002168140423    14.003074004430
         C            1.699217757305    -0.586636719137     0.004849859577    12.000000000000
         N            0.733675757305    -1.473003719137     0.014165859577    14.003074004430
         C           -0.495134242695    -0.876554719137    -0.000658140423    12.000000000000
         C           -0.823954242695     0.477683280863     0.018124859577    12.000000000000
         N           -2.188261242695     0.667566280863     0.016286859577    14.003074004430
         C           -2.774133542695    -0.669669019137     0.001514259577    12.000000000000
         N           -1.700628242695    -1.528106719137    -0.004427140423    14.003074004430
         N            3.019342757305    -1.002142719137    -0.076857140423    14.003074004430
         H            2.293460757305     1.394183280863    -0.101625140423     1.007825032230
         H           -3.731259242695    -0.813634719137    -0.000523140423     1.007825032230
         H           -1.823226242695    -2.533984719137    -0.018150140423     1.007825032230
         H            3.092474757305    -2.003818719137     0.070909859577     1.007825032230
         H            3.671817757305    -0.484732719137     0.503344859577     1.007825032230

  Basis Set: AUG-CC-PVTZ
    Blend: AUG-CC-PVTZ
  Basis Set: (AUG-CC-PVTZ AUX)
    Blend: AUG-CC-PVTZ-JKFIT
	 Reference Energy          =    -539.5463566578177961 [Eh]
	 Singles Energy            =      -0.0000000000000000 [Eh]
	 Same-Spin Energy          =      -0.5769791656335264 [Eh]
	 Opposite-Spin Energy      =      -1.6716794307172060 [Eh]
	 Correlation Energy        =      -2.2486585963507322 [Eh]
	 Total Energy              =    -541.7950152541685611 [Eh]

	 ================> DF-SCS-MP2 Energies <==================
	-----------------------------------------------------------
	 SCS Same-Spin Scale       =       0.3333333333333333 [-]
	 SCS Opposite-Spin Scale   =       1.2000000000000000 [-]
	 SCS Same-Spin Energy      =      -0.1923263885445088 [Eh]
	 SCS Opposite-Spin Energy  =      -2.0060153168606472 [Eh]
	 SCS Correlation Energy    =      -2.1983417054051557 [Eh]
	 SCS Total Energy          =    -541.7446983632229376 [Eh]
	-----------------------------------------------------------

  Dipole Moment: [D]
     X:     2.8092      Y:    -5.7006      Z:     0.8430     Total:     6.4109

*** Psi4 exiting successfully. Buy a developer a beer!
