                               Psi4 1.3.2 release

  ==> Input File <==

--------------------------------------------------------------------------
#psi4
#
memory 32 gb

molecule  {
0 1
  O        0.1763910     2.6970700    -0.0085580
  C        0.2089260     1.4725840     0.0042240
  N        1.4659430     0.7906670    -0.0052000
  C        1.6696020    -0.5667920     0.0018180
  N        0.7040600    -1.4531590     0.0111340
  C       -0.5247500    -0.8567100    -0.0036900
  C       -0.8535700     0.4975280     0.0150930
  N       -2.2178770     0.6874110     0.0132550
  C       -2.7081380    -0.5423290     0.0003530
  N       -1.7302440    -1.5082620    -0.0074590
  N        2.9897270    -0.9822980    -0.0798890
  H        2.2638450     1.4140280    -0.1046570
  H       -3.7608750    -0.7937900    -0.0035550
  H       -1.8407445    -2.4148837    -0.0198279
  H        3.0628590    -1.9839740     0.0678780
  H        3.6422020    -0.4648880     0.5003130
units angstrom
no_reorient  #important for SAPT in psi4, default
symmetry c1  #important for SAPT in psi4, default
}

set PROPERTIES_ORIGIN ["COM"]
properties('MP2/aug-cc-pvtz', properties = ['dipole'])
--------------------------------------------------------------------------

    Molecular point group: c1
  Charge       = 0
  Multiplicity = 1
  Basis Set: AUG-CC-PVTZ
    Blend: AUG-CC-PVTZ
  Basis Set: (AUG-CC-PVTZ AUX)
    Blend: AUG-CC-PVTZ-JKFIT

    Orbital Energies [Eh]
    ---------------------

    Doubly Occupied:

       1A    -20.524973     2A    -15.632575     3A    -15.627286
       4A    -15.612813     5A    -15.574220     6A    -15.566222
       7A    -11.399227     8A    -11.368583     9A    -11.328416
      10A    -11.315156    11A    -11.252098    12A     -1.394707
      13A     -1.365161    14A     -1.337548    15A     -1.221491
      16A     -1.219424    17A     -1.188586    18A     -1.032487
      19A     -0.911150    20A     -0.886458    21A     -0.866040
      22A     -0.801785    23A     -0.741259    24A     -0.731174
      25A     -0.704849    26A     -0.678469    27A     -0.657311
      28A     -0.634711    29A     -0.616503    30A     -0.602606
      31A     -0.598051    32A     -0.548494    33A     -0.500799
      34A     -0.463112    35A     -0.444052    36A     -0.433946
      37A     -0.433226    38A     -0.414324    39A     -0.303613

  @DF-RHF Final Energy:  -539.58132433994626

   => Energetics <=

    Nuclear Repulsion Energy =            594.3353917192126801
    One-Electron Energy =               -1913.9676214379674093
    Two-Electron Energy =                 780.0509053788085794
    Total Energy =                       -539.5813243399462635
  Basis Set: (AUG-CC-PVTZ AUX)
    Blend: AUG-CC-PVTZ-RI
    Molecular point group: c1

    Geometry (in Angstrom), charge = 0, multiplicity = 1:

       Center              X                  Y                   Z               Mass
    ------------   -----------------  -----------------  -----------------  -----------------
         O            0.198330277372     2.668023149020    -0.005683783514    15.994914619570
         C            0.230865277372     1.443537149020     0.007098216486    12.000000000000
         N            1.487882277372     0.761620149020    -0.002325783514    14.003074004430
         C            1.691541277372    -0.595838850980     0.004692216486    12.000000000000
         N            0.725999277372    -1.482205850980     0.014008216486    14.003074004430
         C           -0.502810722628    -0.885756850980    -0.000815783514    12.000000000000
         C           -0.831630722628     0.468481149020     0.017967216486    12.000000000000
         N           -2.195937722628     0.658364149020     0.016129216486    14.003074004430
         C           -2.686198722628    -0.571375850980     0.003227216486    12.000000000000
         N           -1.708304722628    -1.537308850980    -0.004584783514    14.003074004430
         N            3.011666277372    -1.011344850980    -0.077014783514    14.003074004430
         H            2.285784277372     1.384981149020    -0.101782783514     1.007825032230
         H           -3.738935722628    -0.822836850980    -0.000680783514     1.007825032230
         H           -1.818805222628    -2.443930550980    -0.016953683514     1.007825032230
         H            3.084798277372    -2.013020850980     0.070752216486     1.007825032230
         H            3.664141277372    -0.493934850980     0.503187216486     1.007825032230

  Basis Set: AUG-CC-PVTZ
    Blend: AUG-CC-PVTZ
  Basis Set: (AUG-CC-PVTZ AUX)
    Blend: AUG-CC-PVTZ-JKFIT
	 Reference Energy          =    -539.5813243399462635 [Eh]
	 Singles Energy            =      -0.0000000000000000 [Eh]
	 Same-Spin Energy          =      -0.5722218934366000 [Eh]
	 Opposite-Spin Energy      =      -1.6615844021733701 [Eh]
	 Correlation Energy        =      -2.2338062956099702 [Eh]
	 Total Energy              =    -541.8151306355562156 [Eh]

	 ================> DF-SCS-MP2 Energies <==================
	-----------------------------------------------------------
	 SCS Same-Spin Scale       =       0.3333333333333333 [-]
	 SCS Opposite-Spin Scale   =       1.2000000000000000 [-]
	 SCS Same-Spin Energy      =      -0.1907406311455333 [Eh]
	 SCS Opposite-Spin Energy  =      -1.9939012826080440 [Eh]
	 SCS Correlation Energy    =      -2.1846419137535773 [Eh]
	 SCS Total Energy          =    -541.7659662536998439 [Eh]
	-----------------------------------------------------------

  Dipole Moment: [D]
     X:     2.7037      Y:    -5.5000      Z:     0.8458     Total:     6.1867

*** Psi4 exiting successfully. Buy a developer a beer!
