                               Psi4 1.3.2 release

  ==> Input File <==

--------------------------------------------------------------------------
#psi4
#
memory 32 gb

molecule  {
0 1
  O        0.1763910     2.6970700    -0.0085580
  C        0.2089260     1.4725840     0.0042240
  N        1.4659430     0.7906670    -0.0052000
  C        1.6696020    -0.5667920     0.0018180
  N        0.7040600    -1.4531590     0.0111340
  C       -0.5247500    -0.8567100    -0.0036900
  C       -0.8535700     0.4975280     0.0150930
  N       -2.2178770     0.6874110     0.0132550
  C       -2.6340764    -0.3565574     0.0023021
  N       -1.7302440    -1.5082620    -0.0074590
  N        2.9897270    -0.9822980    -0.0798890
  H        2.2638450     1.4140280    -0.1046570
  H       -3.7608750    -0.7937900    -0.0035550
  H       -1.8528420    -2.5141400    -0.0211820
  H        3.0628590    -1.9839740     0.0678780
  H        3.6422020    -0.4648880     0.5003130
units angstrom
no_reorient  #important for SAPT in psi4, default
symmetry c1  #important for SAPT in psi4, default
}

set PROPERTIES_ORIGIN ["COM"]
properties('MP2/aug-cc-pvtz', properties = ['dipole'])
--------------------------------------------------------------------------

    Molecular point group: c1
  Charge       = 0
  Multiplicity = 1
  Basis Set: AUG-CC-PVTZ
    Blend: AUG-CC-PVTZ
  Basis Set: (AUG-CC-PVTZ AUX)
    Blend: AUG-CC-PVTZ-JKFIT

    Orbital Energies [Eh]
    ---------------------

    Doubly Occupied:

       1A    -20.520233     2A    -15.631528     3A    -15.615825
       4A    -15.614634     5A    -15.573741     6A    -15.555245
       7A    -11.402065     8A    -11.365462     9A    -11.333421
      10A    -11.309310    11A    -11.250856    12A     -1.401223
      13A     -1.377229    14A     -1.342798    15A     -1.245223
      16A     -1.221078    17A     -1.189546    18A     -1.037590
      19A     -0.893686    20A     -0.890749    21A     -0.829958
      22A     -0.799094    23A     -0.745666    24A     -0.728428
      25A     -0.695882    26A     -0.674648    27A     -0.660035
      28A     -0.634380    29A     -0.615209    30A     -0.606311
      31A     -0.589056    32A     -0.547502    33A     -0.494967
      34A     -0.482740    35A     -0.443993    36A     -0.439027
      37A     -0.432893    38A     -0.411382    39A     -0.317306

  @DF-RHF Final Energy:  -539.53196160615528

   => Energetics <=

    Nuclear Repulsion Energy =            596.9305267176370080
    One-Electron Energy =               -1919.0851420617286749
    Two-Electron Energy =                 782.6226537379365027
    Total Energy =                       -539.5319616061552779
  Basis Set: (AUG-CC-PVTZ AUX)
    Blend: AUG-CC-PVTZ-RI
    Molecular point group: c1

    Geometry (in Angstrom), charge = 0, multiplicity = 1:

       Center              X                  Y                   Z               Mass
    ------------   -----------------  -----------------  -----------------  -----------------
         O            0.192527228967     2.653926925678    -0.005829593446    15.994914619570
         C            0.225062228967     1.429440925678     0.006952406554    12.000000000000
         N            1.482079228967     0.747523925678    -0.002471593446    14.003074004430
         C            1.685738228967    -0.609935074322     0.004546406554    12.000000000000
         N            0.720196228967    -1.496302074322     0.013862406554    14.003074004430
         C           -0.508613771033    -0.899853074322    -0.000961593446    12.000000000000
         C           -0.837433771033     0.454384925678     0.017821406554    12.000000000000
         N           -2.201740771033     0.644267925678     0.015983406554    14.003074004430
         C           -2.617940171033    -0.399700474322     0.005030506554    12.000000000000
         N           -1.714107771033    -1.551405074322    -0.004730593446    14.003074004430
         N            3.005863228967    -1.025441074322    -0.077160593446    14.003074004430
         H            2.279981228967     1.370884925678    -0.101928593446     1.007825032230
         H           -3.744738771033    -0.836933074322    -0.000826593446     1.007825032230
         H           -1.836705771033    -2.557283074322    -0.018453593446     1.007825032230
         H            3.078995228967    -2.027117074322     0.070606406554     1.007825032230
         H            3.658338228967    -0.508031074322     0.503041406554     1.007825032230

  Basis Set: AUG-CC-PVTZ
    Blend: AUG-CC-PVTZ
  Basis Set: (AUG-CC-PVTZ AUX)
    Blend: AUG-CC-PVTZ-JKFIT
	 Reference Energy          =    -539.5319616061552779 [Eh]
	 Singles Energy            =      -0.0000000000000000 [Eh]
	 Same-Spin Energy          =      -0.5688755896679909 [Eh]
	 Opposite-Spin Energy      =      -1.6560938614999126 [Eh]
	 Correlation Energy        =      -2.2249694511679037 [Eh]
	 Total Energy              =    -541.7569310573231860 [Eh]

	 ================> DF-SCS-MP2 Energies <==================
	-----------------------------------------------------------
	 SCS Same-Spin Scale       =       0.3333333333333333 [-]
	 SCS Opposite-Spin Scale   =       1.2000000000000000 [-]
	 SCS Same-Spin Energy      =      -0.1896251965559970 [Eh]
	 SCS Opposite-Spin Energy  =      -1.9873126337998950 [Eh]
	 SCS Correlation Energy    =      -2.1769378303558922 [Eh]
	 SCS Total Energy          =    -541.7088994365111603 [Eh]
	-----------------------------------------------------------

  Dipole Moment: [D]
     X:     2.6930      Y:    -5.1315      Z:     0.8475     Total:     5.8568

*** Psi4 exiting successfully. Buy a developer a beer!
