                               Psi4 1.4a3.dev225

  ==> Input File <==

--------------------------------------------------------------------------
#psi4
#
memory 32 gb

molecule  {
0 1
  O        0.1763800     2.6970850    -0.0086780
  C        0.2088860     1.4725900     0.0042210
  N        1.4659360     0.7906750    -0.0050880
  C        1.6696170    -0.5667500     0.0018210
  N        0.7040680    -1.4531450     0.0111020
  C       -0.5247290    -0.8567090    -0.0037110
  C       -0.8535850     0.4975420     0.0152200
  N       -2.2178950     0.6873840     0.0133320
  C       -2.7081200    -0.5423560     0.0003580
  N       -1.7159852    -1.5223314    -0.0076397
  N        2.9897250    -0.9823190    -0.0798750
  H        2.2637990     1.4140370    -0.1048620
  H       -3.7608500    -0.7938460    -0.0035590
  H       -1.8527810    -2.5141570    -0.0214260
  H        3.0628080    -1.9839860     0.0679760
  H        3.6422460    -0.4648460     0.5002060
units angstrom
no_reorient  #important for SAPT in psi4, default
symmetry c1  #important for SAPT in psi4, default
}

set PROPERTIES_ORIGIN ["COM"]
properties('MP2/aug-cc-pvtz', properties = ['dipole'])
--------------------------------------------------------------------------

    Molecular point group: c1
  Charge       = 0
  Multiplicity = 1
  Basis Set: AUG-CC-PVTZ
    Blend: AUG-CC-PVTZ
  Basis Set: (AUG-CC-PVTZ AUX)
    Blend: AUG-CC-PVTZ-JKFIT

    Orbital Energies [Eh]
    ---------------------

    Doubly Occupied:

       1A    -20.524206     2A    -15.634945     3A    -15.631844
       4A    -15.612422     5A    -15.573044     6A    -15.567901
       7A    -11.398610     8A    -11.368008     9A    -11.328292
      10A    -11.315991    11A    -11.251403    12A     -1.393313
      13A     -1.359451    14A     -1.334834    15A     -1.220733
      16A     -1.218781    17A     -1.179431    18A     -1.030668
      19A     -0.906053    20A     -0.885424    21A     -0.846523
      22A     -0.799158    23A     -0.739568    24A     -0.730352
      25A     -0.700669    26A     -0.673853    27A     -0.656047
      28A     -0.632049    29A     -0.615554    30A     -0.601749
      31A     -0.595566    32A     -0.547981    33A     -0.500494
      34A     -0.462496    35A     -0.443622    36A     -0.433674
      37A     -0.432820    38A     -0.412438    39A     -0.303270

  @DF-RHF Final Energy:  -539.58734981826842

   => Energetics <=

    Nuclear Repulsion Energy =            593.4875134092017106
    One-Electron Energy =               -1912.4232482469180923
    Two-Electron Energy =                 779.3483850194479601
    Total Energy =                       -539.5873498182684216
  Basis Set: (AUG-CC-PVTZ AUX)
    Blend: AUG-CC-PVTZ-RI
    Molecular point group: c1

    Geometry (in Angstrom), charge = 0, multiplicity = 1:

       Center              X                  Y                   Z               Mass
    ------------   -----------------  -----------------  -----------------  -----------------
         O            0.197080913552     2.670002898540    -0.005786878247    15.994914619570
         C            0.229586913552     1.445507898540     0.007112121753    12.000000000000
         N            1.486636913552     0.763592898540    -0.002196878247    14.003074004430
         C            1.690317913552    -0.593832101460     0.004712121753    12.000000000000
         N            0.724768913552    -1.480227101460     0.013993121753    14.003074004430
         C           -0.504028086448    -0.883791101460    -0.000819878247    12.000000000000
         C           -0.832884086448     0.470459898540     0.018111121753    12.000000000000
         N           -2.197194086448     0.660301898540     0.016223121753    14.003074004430
         C           -2.687419086448    -0.569438101460     0.003249121753    12.000000000000
         N           -1.695284286448    -1.549413501460    -0.004748578247    14.003074004430
         N            3.010425913552    -1.009401101460    -0.076983878247    14.003074004430
         H            2.284499913552     1.386954898540    -0.101970878247     1.007825032230
         H           -3.740149086448    -0.820928101460    -0.000667878247     1.007825032230
         H           -1.832080086448    -2.541239101460    -0.018534878247     1.007825032230
         H            3.083508913552    -2.011068101460     0.070867121753     1.007825032230
         H            3.662946913552    -0.491928101460     0.503097121753     1.007825032230

  Basis Set: AUG-CC-PVTZ
    Blend: AUG-CC-PVTZ
  Basis Set: (AUG-CC-PVTZ AUX)
    Blend: AUG-CC-PVTZ-JKFIT
	 Reference Energy          =    -539.5873498182700132 [Eh]
	 Singles Energy            =      -0.0000000000000000 [Eh]
	 Same-Spin Energy          =      -0.5728215292142371 [Eh]
	 Opposite-Spin Energy      =      -1.6631404831279908 [Eh]
	 Correlation Energy        =      -2.2359620123422279 [Eh]
	 Total Energy              =    -541.8233118306122833 [Eh]

	 ================> DF-SCS-MP2 Energies <==================
	-----------------------------------------------------------
	 SCS Same-Spin Scale       =       0.3333333333333333 [-]
	 SCS Opposite-Spin Scale   =       1.2000000000000000 [-]
	 SCS Same-Spin Energy      =      -0.1909405097380790 [Eh]
	 SCS Opposite-Spin Energy  =      -1.9957685797535889 [Eh]
	 SCS Correlation Energy    =      -2.1867090894916679 [Eh]
	 SCS Total Energy          =    -541.7740589077616278 [Eh]
	-----------------------------------------------------------

  Dipole Moment: [D]
     X:     2.6513      Y:    -5.6018      Z:     0.8433     Total:     6.2547

*** Psi4 exiting successfully. Buy a developer a beer!
