                               Psi4 1.3.2 release

  ==> Input File <==

--------------------------------------------------------------------------
#psi4
#
memory 32 gb

molecule  {
0 1
  O        0.1763910     2.6970700    -0.0085580
  C        0.2089260     1.4725840     0.0042240
  N        1.4659430     0.7906670    -0.0052000
  C        1.6696020    -0.5667920     0.0018180
  N        0.5567307    -1.5884072     0.0125555
  C       -0.5247500    -0.8567100    -0.0036900
  C       -0.8535700     0.4975280     0.0150930
  N       -2.2178770     0.6874110     0.0132550
  C       -2.7081380    -0.5423290     0.0003530
  N       -1.7302440    -1.5082620    -0.0074590
  N        2.9897270    -0.9822980    -0.0798890
  H        2.2638450     1.4140280    -0.1046570
  H       -3.7608750    -0.7937900    -0.0035550
  H       -1.8528420    -2.5141400    -0.0211820
  H        3.0628590    -1.9839740     0.0678780
  H        3.6422020    -0.4648880     0.5003130
units angstrom
no_reorient  #important for SAPT in psi4, default
symmetry c1  #important for SAPT in psi4, default
}

set PROPERTIES_ORIGIN ["COM"]
properties('MP2/aug-cc-pvtz', properties = ['dipole'])
--------------------------------------------------------------------------

    Molecular point group: c1
  Charge       = 0
  Multiplicity = 1
  Basis Set: AUG-CC-PVTZ
    Blend: AUG-CC-PVTZ
  Basis Set: (AUG-CC-PVTZ AUX)
    Blend: AUG-CC-PVTZ-JKFIT

    Orbital Energies [Eh]
    ---------------------

    Doubly Occupied:

       1A    -20.522659     2A    -15.651854     3A    -15.634780
       4A    -15.617775     5A    -15.586970     6A    -15.556617
       7A    -11.432817     8A    -11.366567     9A    -11.317252
      10A    -11.305453    11A    -11.241606    12A     -1.392266
      13A     -1.355573    14A     -1.330080    15A     -1.234274
      16A     -1.219036    17A     -1.162474    18A     -1.016747
      19A     -0.903724    20A     -0.895664    21A     -0.836134
      22A     -0.788056    23A     -0.745728    24A     -0.729486
      25A     -0.705518    26A     -0.674384    27A     -0.651920
      28A     -0.617430    29A     -0.609428    30A     -0.596896
      31A     -0.589734    32A     -0.545902    33A     -0.506695
      34A     -0.469187    35A     -0.443557    36A     -0.441365
      37A     -0.428841    38A     -0.404127    39A     -0.284091

  @DF-RHF Final Energy:  -539.54316073238124

   => Energetics <=

    Nuclear Repulsion Energy =            590.9414621114586907
    One-Electron Energy =               -1907.3439073531583290
    Two-Electron Energy =                 776.8592845093185133
    Total Energy =                       -539.5431607323812386
  Basis Set: (AUG-CC-PVTZ AUX)
    Blend: AUG-CC-PVTZ-RI
    Molecular point group: c1

    Geometry (in Angstrom), charge = 0, multiplicity = 1:

       Center              X                  Y                   Z               Mass
    ------------   -----------------  -----------------  -----------------  -----------------
         O            0.212069194041     2.681223621236    -0.005806529269    15.994914619570
         C            0.244604194041     1.456737621236     0.006975470731    12.000000000000
         N            1.501621194041     0.774820621236    -0.002448529269    14.003074004430
         C            1.705280194041    -0.582638378764     0.004569470731    12.000000000000
         N            0.592408894041    -1.604253578764     0.015306970731    14.003074004430
         C           -0.489071805959    -0.872556378764    -0.000938529269    12.000000000000
         C           -0.817891805959     0.481681621236     0.017844470731    12.000000000000
         N           -2.182198805959     0.671564621236     0.016006470731    14.003074004430
         C           -2.672459805959    -0.558175378764     0.003104470731    12.000000000000
         N           -1.694565805959    -1.524108378764    -0.004707529269    14.003074004430
         N            3.025405194041    -0.998144378764    -0.077137529269    14.003074004430
         H            2.299523194041     1.398181621236    -0.101905529269     1.007825032230
         H           -3.725196805959    -0.809636378764    -0.000803529269     1.007825032230
         H           -1.817163805959    -2.529986378764    -0.018430529269     1.007825032230
         H            3.098537194041    -1.999820378764     0.070629470731     1.007825032230
         H            3.677880194041    -0.480734378764     0.503064470731     1.007825032230

  Basis Set: AUG-CC-PVTZ
    Blend: AUG-CC-PVTZ
  Basis Set: (AUG-CC-PVTZ AUX)
    Blend: AUG-CC-PVTZ-JKFIT
	 Reference Energy          =    -539.5431607323812386 [Eh]
	 Singles Energy            =      -0.0000000000000000 [Eh]
	 Same-Spin Energy          =      -0.5752608835768227 [Eh]
	 Opposite-Spin Energy      =      -1.6686535112452860 [Eh]
	 Correlation Energy        =      -2.2439143948221085 [Eh]
	 Total Energy              =    -541.7870751272033658 [Eh]

	 ================> DF-SCS-MP2 Energies <==================
	-----------------------------------------------------------
	 SCS Same-Spin Scale       =       0.3333333333333333 [-]
	 SCS Opposite-Spin Scale   =       1.2000000000000000 [-]
	 SCS Same-Spin Energy      =      -0.1917536278589409 [Eh]
	 SCS Opposite-Spin Energy  =      -2.0023842134943433 [Eh]
	 SCS Correlation Energy    =      -2.1941378413532844 [Eh]
	 SCS Total Energy          =    -541.7372985737345061 [Eh]
	-----------------------------------------------------------

  Dipole Moment: [D]
     X:     3.6879      Y:    -5.4581      Z:     0.8250     Total:     6.6387

*** Psi4 exiting successfully. Buy a developer a beer!
