                               Psi4 1.3.2 release

  ==> Input File <==

--------------------------------------------------------------------------
#psi4
#
memory 32 gb

molecule  {
0 1
  O        0.1550265     2.6963188    -0.0082646
  C        0.2089260     1.4725840     0.0042240
  N        1.4659430     0.7906670    -0.0052000
  C        1.6696020    -0.5667920     0.0018180
  N        0.7040600    -1.4531590     0.0111340
  C       -0.5247500    -0.8567100    -0.0036900
  C       -0.8535700     0.4975280     0.0150930
  N       -2.2178770     0.6874110     0.0132550
  C       -2.7081380    -0.5423290     0.0003530
  N       -1.7302440    -1.5082620    -0.0074590
  N        2.9897270    -0.9822980    -0.0798890
  H        2.2638450     1.4140280    -0.1046570
  H       -3.7608750    -0.7937900    -0.0035550
  H       -1.8528420    -2.5141400    -0.0211820
  H        3.0628590    -1.9839740     0.0678780
  H        3.6422020    -0.4648880     0.5003130
units angstrom
no_reorient  #important for SAPT in psi4, default
symmetry c1  #important for SAPT in psi4, default
}

set PROPERTIES_ORIGIN ["COM"]
properties('MP2/aug-cc-pvtz', properties = ['dipole'])
--------------------------------------------------------------------------

    Molecular point group: c1
  Charge       = 0
  Multiplicity = 1
  Basis Set: AUG-CC-PVTZ
    Blend: AUG-CC-PVTZ
  Basis Set: (AUG-CC-PVTZ AUX)
    Blend: AUG-CC-PVTZ-JKFIT

    Orbital Energies [Eh]
    ---------------------

    Doubly Occupied:

       1A    -20.524575     2A    -15.635877     3A    -15.632919
       4A    -15.612603     5A    -15.573757     6A    -15.564917
       7A    -11.398933     8A    -11.367964     9A    -11.326974
      10A    -11.313979    11A    -11.250773    12A     -1.393304
      13A     -1.360590    14A     -1.336171    15A     -1.221378
      16A     -1.218473    17A     -1.177969    18A     -1.030964
      19A     -0.906693    20A     -0.885574    21A     -0.844611
      22A     -0.799283    23A     -0.740598    24A     -0.730340
      25A     -0.700679    26A     -0.673123    27A     -0.656367
      28A     -0.633856    29A     -0.614639    30A     -0.601092
      31A     -0.596545    32A     -0.547946    33A     -0.499694
      34A     -0.462667    35A     -0.443279    36A     -0.433192
      37A     -0.432437    38A     -0.411834    39A     -0.302549

  @DF-RHF Final Energy:  -539.58736374095815

   => Energetics <=

    Nuclear Repulsion Energy =            593.6768347366108856
    One-Electron Energy =               -1912.8101595055177313
    Two-Electron Energy =                 779.5459610279485787
    Total Energy =                       -539.5873637409581534
  Basis Set: (AUG-CC-PVTZ AUX)
    Blend: AUG-CC-PVTZ-RI
    Molecular point group: c1

    Geometry (in Angstrom), charge = 0, multiplicity = 1:

       Center              X                  Y                   Z               Mass
    ------------   -----------------  -----------------  -----------------  -----------------
         O            0.179308822056     2.668013748434    -0.005412417444    15.994914619570
         C            0.233208322056     1.444278948434     0.007076182556    12.000000000000
         N            1.490225322056     0.762361948434    -0.002347817444    14.003074004430
         C            1.693884322056    -0.595097051566     0.004670182556    12.000000000000
         N            0.728342322056    -1.481464051566     0.013986182556    14.003074004430
         C           -0.500467677944    -0.885015051566    -0.000837817444    12.000000000000
         C           -0.829287677944     0.469222948434     0.017945182556    12.000000000000
         N           -2.193594677944     0.659105948434     0.016107182556    14.003074004430
         C           -2.683855677944    -0.570634051566     0.003205182556    12.000000000000
         N           -1.705961677944    -1.536567051566    -0.004606817444    14.003074004430
         N            3.014009322056    -1.010603051566    -0.077036817444    14.003074004430
         H            2.288127322056     1.385722948434    -0.101804817444     1.007825032230
         H           -3.736592677944    -0.822095051566    -0.000702817444     1.007825032230
         H           -1.828559677944    -2.542445051566    -0.018329817444     1.007825032230
         H            3.087141322056    -2.012279051566     0.070730182556     1.007825032230
         H            3.666484322056    -0.493193051566     0.503165182556     1.007825032230

  Basis Set: AUG-CC-PVTZ
    Blend: AUG-CC-PVTZ
  Basis Set: (AUG-CC-PVTZ AUX)
    Blend: AUG-CC-PVTZ-JKFIT
	 Reference Energy          =    -539.5873637409581534 [Eh]
	 Singles Energy            =      -0.0000000000000000 [Eh]
	 Same-Spin Energy          =      -0.5730772395260375 [Eh]
	 Opposite-Spin Energy      =      -1.6632977994544795 [Eh]
	 Correlation Energy        =      -2.2363750389805173 [Eh]
	 Total Energy              =    -541.8237387799387079 [Eh]

	 ================> DF-SCS-MP2 Energies <==================
	-----------------------------------------------------------
	 SCS Same-Spin Scale       =       0.3333333333333333 [-]
	 SCS Opposite-Spin Scale   =       1.2000000000000000 [-]
	 SCS Same-Spin Energy      =      -0.1910257465086792 [Eh]
	 SCS Opposite-Spin Energy  =      -1.9959573593453754 [Eh]
	 SCS Correlation Energy    =      -2.1869831058540545 [Eh]
	 SCS Total Energy          =    -541.7743468468122501 [Eh]
	-----------------------------------------------------------

  Dipole Moment: [D]
     X:     2.7154      Y:    -5.6240      Z:     0.8435     Total:     6.3019

*** Psi4 exiting successfully. Buy a developer a beer!
