                               Psi4 1.3.2 release

  ==> Input File <==

--------------------------------------------------------------------------
#psi4
#
memory 32 gb

molecule  {
0 1
  O        0.1763910     2.6970700    -0.0085580
  C        0.2089260     1.4725840     0.0042240
  N        1.4659430     0.7906670    -0.0052000
  C        1.6696020    -0.5667920     0.0018180
  N        0.7040600    -1.4531590     0.0111340
  C       -0.7046641    -0.7693819    -0.0058604
  C       -0.8535700     0.4975280     0.0150930
  N       -2.2178770     0.6874110     0.0132550
  C       -2.7081380    -0.5423290     0.0003530
  N       -1.7302440    -1.5082620    -0.0074590
  N        2.9897270    -0.9822980    -0.0798890
  H        2.2638450     1.4140280    -0.1046570
  H       -3.7608750    -0.7937900    -0.0035550
  H       -1.8528420    -2.5141400    -0.0211820
  H        3.0628590    -1.9839740     0.0678780
  H        3.6422020    -0.4648880     0.5003130
units angstrom
no_reorient  #important for SAPT in psi4, default
symmetry c1  #important for SAPT in psi4, default
}

set PROPERTIES_ORIGIN ["COM"]
properties('MP2/aug-cc-pvtz', properties = ['dipole'])
--------------------------------------------------------------------------

    Molecular point group: c1
  Charge       = 0
  Multiplicity = 1
  Basis Set: AUG-CC-PVTZ
    Blend: AUG-CC-PVTZ
  Basis Set: (AUG-CC-PVTZ AUX)
    Blend: AUG-CC-PVTZ-JKFIT

    Orbital Energies [Eh]
    ---------------------

    Doubly Occupied:

       1A    -20.535894     2A    -15.643542     3A    -15.623411
       4A    -15.602537     5A    -15.569076     6A    -15.565181
       7A    -11.382920     8A    -11.377908     9A    -11.315913
      10A    -11.314523    11A    -11.243509    12A     -1.410062
      13A     -1.388227    14A     -1.325995    15A     -1.216948
      16A     -1.205728    17A     -1.162411    18A     -1.045565
      19A     -0.919013    20A     -0.865152    21A     -0.862229
      22A     -0.784854    23A     -0.763076    24A     -0.723183
      25A     -0.713499    26A     -0.679112    27A     -0.665636
      28A     -0.626272    29A     -0.614169    30A     -0.605286
      31A     -0.590628    32A     -0.544261    33A     -0.487540
      34A     -0.449228    35A     -0.447039    36A     -0.429700
      37A     -0.426412    38A     -0.407360    39A     -0.327220

  @DF-RHF Final Energy:  -539.53505902947666

   => Energetics <=

    Nuclear Repulsion Energy =            594.8329941926727997
    One-Electron Energy =               -1915.0156632959697163
    Two-Electron Energy =                 780.6476100738203741
    Total Energy =                       -539.5350590294766562
  Basis Set: (AUG-CC-PVTZ AUX)
    Blend: AUG-CC-PVTZ-RI
    Molecular point group: c1

    Geometry (in Angstrom), charge = 0, multiplicity = 1:

       Center              X                  Y                   Z               Mass
    ------------   -----------------  -----------------  -----------------  -----------------
         O            0.212704126076     2.661747691092    -0.005502323051    15.994914619570
         C            0.245239126076     1.437261691092     0.007279676949    12.000000000000
         N            1.502256126076     0.755344691092    -0.002144323051    14.003074004430
         C            1.705915126076    -0.602114308908     0.004873676949    12.000000000000
         N            0.740373126076    -1.488481308908     0.014189676949    14.003074004430
         C           -0.668350973924    -0.804704208908    -0.002804723051    12.000000000000
         C           -0.817256873924     0.462205691092     0.018148676949    12.000000000000
         N           -2.181563873924     0.652088691092     0.016310676949    14.003074004430
         C           -2.671824873924    -0.577651308908     0.003408676949    12.000000000000
         N           -1.693930873924    -1.543584308908    -0.004403323051    14.003074004430
         N            3.026040126076    -1.017620308908    -0.076833323051    14.003074004430
         H            2.300158126076     1.378705691092    -0.101601323051     1.007825032230
         H           -3.724561873924    -0.829112308908    -0.000499323051     1.007825032230
         H           -1.816528873924    -2.549462308908    -0.018126323051     1.007825032230
         H            3.099172126076    -2.019296308908     0.070933676949     1.007825032230
         H            3.678515126076    -0.500210308908     0.503368676949     1.007825032230

  Basis Set: AUG-CC-PVTZ
    Blend: AUG-CC-PVTZ
  Basis Set: (AUG-CC-PVTZ AUX)
    Blend: AUG-CC-PVTZ-JKFIT
	 Reference Energy          =    -539.5350590294766562 [Eh]
	 Singles Energy            =      -0.0000000000000000 [Eh]
	 Same-Spin Energy          =      -0.5715736622681065 [Eh]
	 Opposite-Spin Energy      =      -1.6644715276989925 [Eh]
	 Correlation Energy        =      -2.2360451899670988 [Eh]
	 Total Energy              =    -541.7711042194437141 [Eh]

	 ================> DF-SCS-MP2 Energies <==================
	-----------------------------------------------------------
	 SCS Same-Spin Scale       =       0.3333333333333333 [-]
	 SCS Opposite-Spin Scale   =       1.2000000000000000 [-]
	 SCS Same-Spin Energy      =      -0.1905245540893688 [Eh]
	 SCS Opposite-Spin Energy  =      -1.9973658332387909 [Eh]
	 SCS Correlation Energy    =      -2.1878903873281597 [Eh]
	 SCS Total Energy          =    -541.7229494168047950 [Eh]
	-----------------------------------------------------------

  Dipole Moment: [D]
     X:     1.9623      Y:    -5.3985      Z:     0.8370     Total:     5.8047

*** Psi4 exiting successfully. Buy a developer a beer!
