                               Psi4 1.3.2 release

  ==> Input File <==

--------------------------------------------------------------------------
#psi4
#
memory 32 gb

molecule  {
0 1
  O        0.1763910     2.6970700    -0.0085580
  C        0.2089260     1.4725840     0.0042240
  N        1.4659430     0.7906670    -0.0052000
  C        1.6696020    -0.5667920     0.0018180
  N        0.7040600    -1.4531590     0.0111340
  C       -0.5247500    -0.8567100    -0.0036900
  C       -0.8535700     0.4975280     0.0150930
  N       -2.2178770     0.6874110     0.0132550
  C       -2.7081380    -0.5423290     0.0003530
  N       -1.8725306    -1.3677158    -0.0063223
  N        2.9897270    -0.9822980    -0.0798890
  H        2.2638450     1.4140280    -0.1046570
  H       -3.7608750    -0.7937900    -0.0035550
  H       -1.8528420    -2.5141400    -0.0211820
  H        3.0628590    -1.9839740     0.0678780
  H        3.6422020    -0.4648880     0.5003130
units angstrom
no_reorient  #important for SAPT in psi4, default
symmetry c1  #important for SAPT in psi4, default
}

set PROPERTIES_ORIGIN ["COM"]
properties('MP2/aug-cc-pvtz', properties = ['dipole'])
--------------------------------------------------------------------------

    Molecular point group: c1
  Charge       = 0
  Multiplicity = 1
  Basis Set: AUG-CC-PVTZ
    Blend: AUG-CC-PVTZ
  Basis Set: (AUG-CC-PVTZ AUX)
    Blend: AUG-CC-PVTZ-JKFIT

    Orbital Energies [Eh]
    ---------------------

    Doubly Occupied:

       1A    -20.527189     2A    -15.647568     3A    -15.633178
       4A    -15.611129     5A    -15.578623     6A    -15.537045
       7A    -11.397138     8A    -11.368797     9A    -11.321921
      10A    -11.294953    11A    -11.254113    12A     -1.408487
      13A     -1.385863    14A     -1.341708    15A     -1.221534
      16A     -1.217044    17A     -1.168371    18A     -1.039212
      19A     -0.923502    20A     -0.883750    21A     -0.824459
      22A     -0.799233    23A     -0.751113    24A     -0.732400
      25A     -0.701173    26A     -0.677036    27A     -0.663370
      28A     -0.637976    29A     -0.618551    30A     -0.610347
      31A     -0.572548    32A     -0.547439    33A     -0.487854
      34A     -0.466120    35A     -0.441137    36A     -0.436768
      37A     -0.424144    38A     -0.406040    39A     -0.296083

  @DF-RHF Final Energy:  -539.51564306459045

   => Energetics <=

    Nuclear Repulsion Energy =            595.6894695456076079
    One-Electron Energy =               -1916.7003936081196116
    Two-Electron Energy =                 781.4952809979215544
    Total Energy =                       -539.5156430645904493
  Basis Set: (AUG-CC-PVTZ AUX)
    Blend: AUG-CC-PVTZ-RI
    Molecular point group: c1

    Geometry (in Angstrom), charge = 0, multiplicity = 1:

       Center              X                  Y                   Z               Mass
    ------------   -----------------  -----------------  -----------------  -----------------
         O            0.211601709254     2.655656031146    -0.005780126812    15.994914619570
         C            0.244136709254     1.431170031146     0.007001873188    12.000000000000
         N            1.501153709254     0.749253031146    -0.002422126812    14.003074004430
         C            1.704812709254    -0.608205968854     0.004595873188    12.000000000000
         N            0.739270709254    -1.494572968854     0.013911873188    14.003074004430
         C           -0.489539290746    -0.898123968854    -0.000912126812    12.000000000000
         C           -0.818359290746     0.456114031146     0.017870873188    12.000000000000
         N           -2.182666290746     0.645997031146     0.016032873188    14.003074004430
         C           -2.672927290746    -0.583742968854     0.003130873188    12.000000000000
         N           -1.837319890746    -1.409129768854    -0.003544426812    14.003074004430
         N            3.024937709254    -1.023711968854    -0.077111126812    14.003074004430
         H            2.299055709254     1.372614031146    -0.101879126812     1.007825032230
         H           -3.725664290746    -0.835203968854    -0.000777126812     1.007825032230
         H           -1.817631290746    -2.555553968854    -0.018404126812     1.007825032230
         H            3.098069709254    -2.025387968854     0.070655873188     1.007825032230
         H            3.677412709254    -0.506301968854     0.503090873188     1.007825032230

  Basis Set: AUG-CC-PVTZ
    Blend: AUG-CC-PVTZ
  Basis Set: (AUG-CC-PVTZ AUX)
    Blend: AUG-CC-PVTZ-JKFIT
	 Reference Energy          =    -539.5156430645904493 [Eh]
	 Singles Energy            =      -0.0000000000000000 [Eh]
	 Same-Spin Energy          =      -0.5763723500163085 [Eh]
	 Opposite-Spin Energy      =      -1.6669692329244703 [Eh]
	 Correlation Energy        =      -2.2433415829407788 [Eh]
	 Total Energy              =    -541.7589846475311788 [Eh]

	 ================> DF-SCS-MP2 Energies <==================
	-----------------------------------------------------------
	 SCS Same-Spin Scale       =       0.3333333333333333 [-]
	 SCS Opposite-Spin Scale   =       1.2000000000000000 [-]
	 SCS Same-Spin Energy      =      -0.1921241166721028 [Eh]
	 SCS Opposite-Spin Energy  =      -2.0003630795093641 [Eh]
	 SCS Correlation Energy    =      -2.1924871961814669 [Eh]
	 SCS Total Energy          =    -541.7081302607718953 [Eh]
	-----------------------------------------------------------

  Dipole Moment: [D]
     X:     2.7285      Y:    -5.9593      Z:     0.8456     Total:     6.6085

*** Psi4 exiting successfully. Buy a developer a beer!
