                               Psi4 1.3.2 release

  ==> Input File <==

--------------------------------------------------------------------------
#psi4
#
memory 32 gb

molecule  {
0 1
  O        0.1763910     2.6970700    -0.0085580
  C        0.2089260     1.4725840     0.0042240
  N        1.4659430     0.7906670    -0.0052000
  C        1.6696020    -0.5667920     0.0018180
  N        0.7040600    -1.4531590     0.0111340
  C       -0.5247500    -0.8567100    -0.0036900
  C       -0.8535700     0.4975280     0.0150930
  N       -2.2178770     0.6874110     0.0132550
  C       -2.6018127    -0.4454166     0.0021381
  N       -1.7302440    -1.5082620    -0.0074590
  N        2.9897270    -0.9822980    -0.0798890
  H        2.2638450     1.4140280    -0.1046570
  H       -3.7608750    -0.7937900    -0.0035550
  H       -1.8528420    -2.5141400    -0.0211820
  H        3.0628590    -1.9839740     0.0678780
  H        3.6422020    -0.4648880     0.5003130
units angstrom
no_reorient  #important for SAPT in psi4, default
symmetry c1  #important for SAPT in psi4, default
}

set PROPERTIES_ORIGIN ["COM"]
properties('MP2/aug-cc-pvtz', properties = ['dipole'])
--------------------------------------------------------------------------

    Molecular point group: c1
  Charge       = 0
  Multiplicity = 1
  Basis Set: AUG-CC-PVTZ
    Blend: AUG-CC-PVTZ
  Basis Set: (AUG-CC-PVTZ AUX)
    Blend: AUG-CC-PVTZ-JKFIT

    Orbital Energies [Eh]
    ---------------------

    Doubly Occupied:

       1A    -20.522160     2A    -15.631902     3A    -15.629020
       4A    -15.613486     5A    -15.574145     6A    -15.556607
       7A    -11.400208     8A    -11.366286     9A    -11.330792
      10A    -11.311522    11A    -11.251480    12A     -1.399759
      13A     -1.375769    14A     -1.341110    15A     -1.237620
      16A     -1.221113    17A     -1.196196    18A     -1.034516
      19A     -0.900107    20A     -0.889522    21A     -0.844438
      22A     -0.797150    23A     -0.747445    24A     -0.726634
      25A     -0.698476    26A     -0.678152    27A     -0.661105
      28A     -0.633537    29A     -0.614618    30A     -0.606830
      31A     -0.576059    32A     -0.548061    33A     -0.500053
      34A     -0.472054    35A     -0.443133    36A     -0.439982
      37A     -0.434616    38A     -0.417860    39A     -0.311771

  @DF-RHF Final Energy:  -539.56210335314836

   => Energetics <=

    Nuclear Repulsion Energy =            597.0183656615892005
    One-Electron Energy =               -1919.2903449891737182
    Two-Electron Energy =                 782.7098759744362724
    Total Energy =                       -539.5621033531483590
  Basis Set: (AUG-CC-PVTZ AUX)
    Blend: AUG-CC-PVTZ-RI
    Molecular point group: c1

    Geometry (in Angstrom), charge = 0, multiplicity = 1:

       Center              X                  Y                   Z               Mass
    ------------   -----------------  -----------------  -----------------  -----------------
         O            0.189964065029     2.660986274016    -0.005816564596    15.994914619570
         C            0.222499065029     1.436500274016     0.006965435404    12.000000000000
         N            1.479516065029     0.754583274016    -0.002458564596    14.003074004430
         C            1.683175065029    -0.602875725984     0.004559435404    12.000000000000
         N            0.717633065029    -1.489242725984     0.013875435404    14.003074004430
         C           -0.511176934971    -0.892793725984    -0.000948564596    12.000000000000
         C           -0.839996934971     0.461444274016     0.017834435404    12.000000000000
         N           -2.204303934971     0.651327274016     0.015996435404    14.003074004430
         C           -2.588239634971    -0.481500325984     0.004879535404    12.000000000000
         N           -1.716670934971    -1.544345725984    -0.004717564596    14.003074004430
         N            3.003300065029    -1.018381725984    -0.077147564596    14.003074004430
         H            2.277418065029     1.377944274016    -0.101915564596     1.007825032230
         H           -3.747301934971    -0.829873725984    -0.000813564596     1.007825032230
         H           -1.839268934971    -2.550223725984    -0.018440564596     1.007825032230
         H            3.076432065029    -2.020057725984     0.070619435404     1.007825032230
         H            3.655775065029    -0.500971725984     0.503054435404     1.007825032230

  Basis Set: AUG-CC-PVTZ
    Blend: AUG-CC-PVTZ
  Basis Set: (AUG-CC-PVTZ AUX)
    Blend: AUG-CC-PVTZ-JKFIT
	 Reference Energy          =    -539.5621033531483590 [Eh]
	 Singles Energy            =      -0.0000000000000000 [Eh]
	 Same-Spin Energy          =      -0.5706731996609682 [Eh]
	 Opposite-Spin Energy      =      -1.6587209206882503 [Eh]
	 Correlation Energy        =      -2.2293941203492187 [Eh]
	 Total Energy              =    -541.7914974734975431 [Eh]

	 ================> DF-SCS-MP2 Energies <==================
	-----------------------------------------------------------
	 SCS Same-Spin Scale       =       0.3333333333333333 [-]
	 SCS Opposite-Spin Scale   =       1.2000000000000000 [-]
	 SCS Same-Spin Energy      =      -0.1902243998869894 [Eh]
	 SCS Opposite-Spin Energy  =      -1.9904651048259003 [Eh]
	 SCS Correlation Energy    =      -2.1806895047128898 [Eh]
	 SCS Total Energy          =    -541.7427928578612182 [Eh]
	-----------------------------------------------------------

  Dipole Moment: [D]
     X:     2.7974      Y:    -5.4542      Z:     0.8463     Total:     6.1879

*** Psi4 exiting successfully. Buy a developer a beer!
