                               Psi4 1.3.2 release

  ==> Input File <==

--------------------------------------------------------------------------
#psi4
#
memory 32 gb

molecule  {
0 1
  O        0.1763910     2.6970700    -0.0085580
  C        0.3049937     1.3561845     0.0013366
  N        1.4659430     0.7906670    -0.0052000
  C        1.6696020    -0.5667920     0.0018180
  N        0.7040600    -1.4531590     0.0111340
  C       -0.5247500    -0.8567100    -0.0036900
  C       -0.8535700     0.4975280     0.0150930
  N       -2.2178770     0.6874110     0.0132550
  C       -2.7081380    -0.5423290     0.0003530
  N       -1.7302440    -1.5082620    -0.0074590
  N        2.9897270    -0.9822980    -0.0798890
  H        2.2638450     1.4140280    -0.1046570
  H       -3.7608750    -0.7937900    -0.0035550
  H       -1.8528420    -2.5141400    -0.0211820
  H        3.0628590    -1.9839740     0.0678780
  H        3.6422020    -0.4648880     0.5003130
units angstrom
no_reorient  #important for SAPT in psi4, default
symmetry c1  #important for SAPT in psi4, default
}

set PROPERTIES_ORIGIN ["COM"]
properties('MP2/aug-cc-pvtz', properties = ['dipole'])
--------------------------------------------------------------------------

    Molecular point group: c1
  Charge       = 0
  Multiplicity = 1
  Basis Set: AUG-CC-PVTZ
    Blend: AUG-CC-PVTZ
  Basis Set: (AUG-CC-PVTZ AUX)
    Blend: AUG-CC-PVTZ-JKFIT

    Orbital Energies [Eh]
    ---------------------

    Doubly Occupied:

       1A    -20.492874     2A    -15.653955     3A    -15.639117
       4A    -15.622227     5A    -15.588580     6A    -15.569601
       7A    -11.409437     8A    -11.360370     9A    -11.328474
      10A    -11.319751    11A    -11.258649    12A     -1.405482
      13A     -1.357822    14A     -1.301027    15A     -1.230104
      16A     -1.225097    17A     -1.183161    18A     -1.038198
      19A     -0.926642    20A     -0.907001    21A     -0.847430
      22A     -0.814069    23A     -0.767796    24A     -0.737252
      25A     -0.707427    26A     -0.674051    27A     -0.668512
      28A     -0.643372    29A     -0.613009    30A     -0.607549
      31A     -0.555907    32A     -0.540906    33A     -0.506808
      34A     -0.467479    35A     -0.439756    36A     -0.422033
      37A     -0.406617    38A     -0.406290    39A     -0.306068

  @DF-RHF Final Energy:  -539.55205331819013

   => Energetics <=

    Nuclear Repulsion Energy =            594.7697133082612027
    One-Electron Energy =               -1914.7437372115891776
    Two-Electron Energy =                 780.4219705851379558
    Total Energy =                       -539.5520533181901328
  Basis Set: (AUG-CC-PVTZ AUX)
    Blend: AUG-CC-PVTZ-RI
    Molecular point group: c1

    Geometry (in Angstrom), charge = 0, multiplicity = 1:

       Center              X                  Y                   Z               Mass
    ------------   -----------------  -----------------  -----------------  -----------------
         O            0.190778971887     2.677932667937    -0.005445361557    15.994914619570
         C            0.319381671887     1.337047167937     0.004449238443    12.000000000000
         N            1.480330971887     0.771529667937    -0.002087361557    14.003074004430
         C            1.683989971887    -0.585929332063     0.004930638443    12.000000000000
         N            0.718447971887    -1.472296332063     0.014246638443    14.003074004430
         C           -0.510362028113    -0.875847332063    -0.000577361557    12.000000000000
         C           -0.839182028113     0.478390667937     0.018205638443    12.000000000000
         N           -2.203489028113     0.668273667937     0.016367638443    14.003074004430
         C           -2.693750028113    -0.561466332063     0.003465638443    12.000000000000
         N           -1.715856028113    -1.527399332063    -0.004346361557    14.003074004430
         N            3.004114971887    -1.001435332063    -0.076776361557    14.003074004430
         H            2.278232971887     1.394890667937    -0.101544361557     1.007825032230
         H           -3.746487028113    -0.812927332063    -0.000442361557     1.007825032230
         H           -1.838454028113    -2.533277332063    -0.018069361557     1.007825032230
         H            3.077246971887    -2.003111332063     0.070990638443     1.007825032230
         H            3.656589971887    -0.484025332063     0.503425638443     1.007825032230

  Basis Set: AUG-CC-PVTZ
    Blend: AUG-CC-PVTZ
  Basis Set: (AUG-CC-PVTZ AUX)
    Blend: AUG-CC-PVTZ-JKFIT
	 Reference Energy          =    -539.5520533181901328 [Eh]
	 Singles Energy            =      -0.0000000000000000 [Eh]
	 Same-Spin Energy          =      -0.5756293650196128 [Eh]
	 Opposite-Spin Energy      =      -1.6675458808789849 [Eh]
	 Correlation Energy        =      -2.2431752458985978 [Eh]
	 Total Energy              =    -541.7952285640886885 [Eh]

	 ================> DF-SCS-MP2 Energies <==================
	-----------------------------------------------------------
	 SCS Same-Spin Scale       =       0.3333333333333333 [-]
	 SCS Opposite-Spin Scale   =       1.2000000000000000 [-]
	 SCS Same-Spin Energy      =      -0.1918764550065376 [Eh]
	 SCS Opposite-Spin Energy  =      -2.0010550570547818 [Eh]
	 SCS Correlation Energy    =      -2.1929315120613193 [Eh]
	 SCS Total Energy          =    -541.7449848302514965 [Eh]
	-----------------------------------------------------------

  Dipole Moment: [D]
     X:     3.1013      Y:    -6.8352      Z:     0.8504     Total:     7.5539

*** Psi4 exiting successfully. Buy a developer a beer!
