                               Psi4 1.4a3.dev225

  ==> Input File <==

--------------------------------------------------------------------------
#psi4
#
memory 32 gb

molecule  {
0 1
  O        0.1763800     2.6970850    -0.0086780
  C        0.2088860     1.4725900     0.0042210
  N        1.4659360     0.7906750    -0.0050880
  C        1.6696170    -0.5667500     0.0018210
  N        0.7040680    -1.4531450     0.0111020
  C       -0.5697076    -0.8348772    -0.0042532
  C       -0.8535850     0.4975420     0.0152200
  N       -2.2178950     0.6873840     0.0133320
  C       -2.7081200    -0.5423560     0.0003580
  N       -1.7302140    -1.5082770    -0.0075250
  N        2.9897250    -0.9823190    -0.0798750
  H        2.2637990     1.4140370    -0.1048620
  H       -3.7608500    -0.7938460    -0.0035590
  H       -1.8527810    -2.5141570    -0.0214260
  H        3.0628080    -1.9839860     0.0679760
  H        3.6422460    -0.4648460     0.5002060
units angstrom
no_reorient  #important for SAPT in psi4, default
symmetry c1  #important for SAPT in psi4, default
}

set PROPERTIES_ORIGIN ["COM"]
properties('MP2/aug-cc-pvtz', properties = ['dipole'])
--------------------------------------------------------------------------

    Molecular point group: c1
  Charge       = 0
  Multiplicity = 1
  Basis Set: AUG-CC-PVTZ
    Blend: AUG-CC-PVTZ
  Basis Set: (AUG-CC-PVTZ AUX)
    Blend: AUG-CC-PVTZ-JKFIT

    Orbital Energies [Eh]
    ---------------------

    Doubly Occupied:

       1A    -20.527726     2A    -15.638581     3A    -15.629506
       4A    -15.609644     5A    -15.571785     6A    -15.566257
       7A    -11.394291     8A    -11.370806     9A    -11.323703
      10A    -11.314645    11A    -11.249764    12A     -1.394678
      13A     -1.368165    14A     -1.334063    15A     -1.219055
      16A     -1.207646    17A     -1.180143    18A     -1.035583
      19A     -0.909489    20A     -0.878534    21A     -0.849993
      22A     -0.795521    23A     -0.742540    24A     -0.728469
      25A     -0.703700    26A     -0.675813    27A     -0.656346
      28A     -0.627517    29A     -0.618089    30A     -0.603463
      31A     -0.599366    32A     -0.547020    33A     -0.496452
      34A     -0.457563    35A     -0.443160    36A     -0.435317
      37A     -0.429638    38A     -0.413782    39A     -0.309711

  @DF-RHF Final Energy:  -539.58536076667906

   => Energetics <=

    Nuclear Repulsion Energy =            593.8695117134043358
    One-Electron Energy =               -1913.1946948761901695
    Two-Electron Energy =                 779.7398223961067742
    Total Energy =                       -539.5853607666790595
  Basis Set: (AUG-CC-PVTZ AUX)
    Blend: AUG-CC-PVTZ-RI
    Molecular point group: c1

    Geometry (in Angstrom), charge = 0, multiplicity = 1:

       Center              X                  Y                   Z               Mass
    ------------   -----------------  -----------------  -----------------  -----------------
         O            0.201973287117     2.666965571854    -0.005754436893    15.994914619570
         C            0.234479287117     1.442470571854     0.007144563107    12.000000000000
         N            1.491529287117     0.760555571854    -0.002164436893    14.003074004430
         C            1.695210287117    -0.596869428146     0.004744563107    12.000000000000
         N            0.729661287117    -1.483264428146     0.014025563107    14.003074004430
         C           -0.544114312883    -0.864996628146    -0.001329636893    12.000000000000
         C           -0.827991712883     0.467422571854     0.018143563107    12.000000000000
         N           -2.192301712883     0.657264571854     0.016255563107    14.003074004430
         C           -2.682526712883    -0.572475428146     0.003281563107    12.000000000000
         N           -1.704620712883    -1.538396428146    -0.004601436893    14.003074004430
         N            3.015318287117    -1.012438428146    -0.076951436893    14.003074004430
         H            2.289392287117     1.383917571854    -0.101938436893     1.007825032230
         H           -3.735256712883    -0.823965428146    -0.000635436893     1.007825032230
         H           -1.827187712883    -2.544276428146    -0.018502436893     1.007825032230
         H            3.088401287117    -2.014105428146     0.070899563107     1.007825032230
         H            3.667839287117    -0.494965428146     0.503129563107     1.007825032230

  Basis Set: AUG-CC-PVTZ
    Blend: AUG-CC-PVTZ
  Basis Set: (AUG-CC-PVTZ AUX)
    Blend: AUG-CC-PVTZ-JKFIT
	 Reference Energy          =    -539.5853607666790595 [Eh]
	 Singles Energy            =      -0.0000000000000000 [Eh]
	 Same-Spin Energy          =      -0.5722178653553383 [Eh]
	 Opposite-Spin Energy      =      -1.6628467146567467 [Eh]
	 Correlation Energy        =      -2.2350645800120850 [Eh]
	 Total Energy              =    -541.8204253466911950 [Eh]

	 ================> DF-SCS-MP2 Energies <==================
	-----------------------------------------------------------
	 SCS Same-Spin Scale       =       0.3333333333333333 [-]
	 SCS Opposite-Spin Scale   =       1.2000000000000000 [-]
	 SCS Same-Spin Energy      =      -0.1907392884517794 [Eh]
	 SCS Opposite-Spin Energy  =      -1.9954160575880959 [Eh]
	 SCS Correlation Energy    =      -2.1861553460398753 [Eh]
	 SCS Total Energy          =    -541.7715161127189276 [Eh]
	-----------------------------------------------------------

  Dipole Moment: [D]
     X:     2.4849      Y:    -5.5681      Z:     0.8417     Total:     6.1552

*** Psi4 exiting successfully. Buy a developer a beer!
