                               Psi4 1.3.2 release

  ==> Input File <==

--------------------------------------------------------------------------
#psi4
#
memory 32 gb

molecule  {
0 1
  O        0.1763910     2.6970700    -0.0085580
  C        0.2089260     1.4725840     0.0042240
  N        1.3719607     0.7732194     0.0013304
  C        1.6696020    -0.5667920     0.0018180
  N        0.7040600    -1.4531590     0.0111340
  C       -0.5247500    -0.8567100    -0.0036900
  C       -0.8535700     0.4975280     0.0150930
  N       -2.2178770     0.6874110     0.0132550
  C       -2.7081380    -0.5423290     0.0003530
  N       -1.7302440    -1.5082620    -0.0074590
  N        2.9897270    -0.9822980    -0.0798890
  H        2.2638450     1.4140280    -0.1046570
  H       -3.7608750    -0.7937900    -0.0035550
  H       -1.8528420    -2.5141400    -0.0211820
  H        3.0628590    -1.9839740     0.0678780
  H        3.6422020    -0.4648880     0.5003130
units angstrom
no_reorient  #important for SAPT in psi4, default
symmetry c1  #important for SAPT in psi4, default
}

set PROPERTIES_ORIGIN ["COM"]
properties('MP2/aug-cc-pvtz', properties = ['dipole'])
--------------------------------------------------------------------------

    Molecular point group: c1
  Charge       = 0
  Multiplicity = 1
  Basis Set: AUG-CC-PVTZ
    Blend: AUG-CC-PVTZ
  Basis Set: (AUG-CC-PVTZ AUX)
    Blend: AUG-CC-PVTZ-JKFIT

    Orbital Energies [Eh]
    ---------------------

    Doubly Occupied:

       1A    -20.517497     2A    -15.640515     3A    -15.634647
       4A    -15.618484     5A    -15.573940     6A    -15.562949
       7A    -11.400672     8A    -11.360504     9A    -11.324116
      10A    -11.312914    11A    -11.249105    12A     -1.398605
      13A     -1.359004    14A     -1.336076    15A     -1.232249
      16A     -1.216500    17A     -1.175683    18A     -1.033518
      19A     -0.914871    20A     -0.885953    21A     -0.843332
      22A     -0.801870    23A     -0.734336    24A     -0.723270
      25A     -0.702188    26A     -0.674829    27A     -0.661352
      28A     -0.631997    29A     -0.613584    30A     -0.599528
      31A     -0.592003    32A     -0.551162    33A     -0.496403
      34A     -0.464984    35A     -0.441507    36A     -0.430508
      37A     -0.429514    38A     -0.409948    39A     -0.302478

  @DF-RHF Final Energy:  -539.57327199049701

   => Energetics <=

    Nuclear Repulsion Energy =            595.5072500531078958
    One-Electron Energy =               -1916.4558572631005973
    Two-Electron Energy =                 781.3753352194955824
    Total Energy =                       -539.5732719904970054
  Basis Set: (AUG-CC-PVTZ AUX)
    Blend: AUG-CC-PVTZ-RI
    Molecular point group: c1

    Geometry (in Angstrom), charge = 0, multiplicity = 1:

       Center              X                  Y                   Z               Mass
    ------------   -----------------  -----------------  -----------------  -----------------
         O            0.207123646820     2.670302886612    -0.006280151145    15.994914619570
         C            0.239658646820     1.445816886612     0.006501848855    12.000000000000
         N            1.402693346820     0.746452286612     0.003608248855    14.003074004430
         C            1.700334646820    -0.593559113388     0.004095848855    12.000000000000
         N            0.734792646820    -1.479926113388     0.013411848855    14.003074004430
         C           -0.494017353180    -0.883477113388    -0.001412151145    12.000000000000
         C           -0.822837353180     0.470760886612     0.017370848855    12.000000000000
         N           -2.187144353180     0.660643886612     0.015532848855    14.003074004430
         C           -2.677405353180    -0.569096113388     0.002630848855    12.000000000000
         N           -1.699511353180    -1.535029113388    -0.005181151145    14.003074004430
         N            3.020459646820    -1.009065113388    -0.077611151145    14.003074004430
         H            2.294577646820     1.387260886612    -0.102379151145     1.007825032230
         H           -3.730142353180    -0.820557113388    -0.001277151145     1.007825032230
         H           -1.822109353180    -2.540907113388    -0.018904151145     1.007825032230
         H            3.093591646820    -2.010741113388     0.070155848855     1.007825032230
         H            3.672934646820    -0.491655113388     0.502590848855     1.007825032230

  Basis Set: AUG-CC-PVTZ
    Blend: AUG-CC-PVTZ
  Basis Set: (AUG-CC-PVTZ AUX)
    Blend: AUG-CC-PVTZ-JKFIT
	 Reference Energy          =    -539.5732719904970054 [Eh]
	 Singles Energy            =      -0.0000000000000000 [Eh]
	 Same-Spin Energy          =      -0.5745236742819048 [Eh]
	 Opposite-Spin Energy      =      -1.6650623683373835 [Eh]
	 Correlation Energy        =      -2.2395860426192882 [Eh]
	 Total Energy              =    -541.8128580331162993 [Eh]

	 ================> DF-SCS-MP2 Energies <==================
	-----------------------------------------------------------
	 SCS Same-Spin Scale       =       0.3333333333333333 [-]
	 SCS Opposite-Spin Scale   =       1.2000000000000000 [-]
	 SCS Same-Spin Energy      =      -0.1915078914273016 [Eh]
	 SCS Opposite-Spin Energy  =      -1.9980748420048602 [Eh]
	 SCS Correlation Energy    =      -2.1895827334321618 [Eh]
	 SCS Total Energy          =    -541.7628547239291947 [Eh]
	-----------------------------------------------------------

  Dipole Moment: [D]
     X:     2.9378      Y:    -5.8307      Z:     0.8504     Total:     6.5841

*** Psi4 exiting successfully. Buy a developer a beer!
