                               Psi4 1.3.2 release

  ==> Input File <==

--------------------------------------------------------------------------
#psi4
#
memory 32 gb

molecule  {
0 1
  O        0.1763910     2.6970700    -0.0085580
  C        0.2089260     1.4725840     0.0042240
  N        1.4413802     0.7472120    -0.0049096
  C        1.6696020    -0.5667920     0.0018180
  N        0.7040600    -1.4531590     0.0111340
  C       -0.5247500    -0.8567100    -0.0036900
  C       -0.8535700     0.4975280     0.0150930
  N       -2.2178770     0.6874110     0.0132550
  C       -2.7081380    -0.5423290     0.0003530
  N       -1.7302440    -1.5082620    -0.0074590
  N        2.9897270    -0.9822980    -0.0798890
  H        2.2638450     1.4140280    -0.1046570
  H       -3.7608750    -0.7937900    -0.0035550
  H       -1.8528420    -2.5141400    -0.0211820
  H        3.0628590    -1.9839740     0.0678780
  H        3.6422020    -0.4648880     0.5003130
units angstrom
no_reorient  #important for SAPT in psi4, default
symmetry c1  #important for SAPT in psi4, default
}

set PROPERTIES_ORIGIN ["COM"]
properties('MP2/aug-cc-pvtz', properties = ['dipole'])
--------------------------------------------------------------------------

    Molecular point group: c1
  Charge       = 0
  Multiplicity = 1
  Basis Set: AUG-CC-PVTZ
    Blend: AUG-CC-PVTZ
  Basis Set: (AUG-CC-PVTZ AUX)
    Blend: AUG-CC-PVTZ-JKFIT

    Orbital Energies [Eh]
    ---------------------

    Doubly Occupied:

       1A    -20.527900     2A    -15.636267     3A    -15.635063
       4A    -15.611558     5A    -15.569556     6A    -15.564167
       7A    -11.394117     8A    -11.370330     9A    -11.326536
      10A    -11.313951    11A    -11.250280    12A     -1.397000
      13A     -1.361184    14A     -1.340413    15A     -1.223049
      16A     -1.216483    17A     -1.176777    18A     -1.032987
      19A     -0.909965    20A     -0.885767    21A     -0.844198
      22A     -0.800329    23A     -0.734782    24A     -0.728981
      25A     -0.699533    26A     -0.674809    27A     -0.659014
      28A     -0.629734    29A     -0.617486    30A     -0.600174
      31A     -0.596650    32A     -0.548024    33A     -0.497351
      34A     -0.463055    35A     -0.445059    36A     -0.434108
      37A     -0.432508    38A     -0.411002    39A     -0.302215

  @DF-RHF Final Energy:  -539.58286314410145

   => Energetics <=

    Nuclear Repulsion Energy =            594.6235600760234092
    One-Electron Energy =               -1914.6881246058467241
    Two-Electron Energy =                 780.4817013857217489
    Total Energy =                       -539.5828631441014522
  Basis Set: (AUG-CC-PVTZ AUX)
    Blend: AUG-CC-PVTZ-RI
    Molecular point group: c1

    Geometry (in Angstrom), charge = 0, multiplicity = 1:

       Center              X                  Y                   Z               Mass
    ------------   -----------------  -----------------  -----------------  -----------------
         O            0.200688094393     2.672713909252    -0.005701670355    15.994914619570
         C            0.233223094393     1.448227909252     0.007080329645    12.000000000000
         N            1.465677294393     0.722855909252    -0.002053270355    14.003074004430
         C            1.693899094393    -0.591148090748     0.004674329645    12.000000000000
         N            0.728357094393    -1.477515090748     0.013990329645    14.003074004430
         C           -0.500452905607    -0.881066090748    -0.000833670355    12.000000000000
         C           -0.829272905607     0.473171909252     0.017949329645    12.000000000000
         N           -2.193579905607     0.663054909252     0.016111329645    14.003074004430
         C           -2.683840905607    -0.566685090748     0.003209329645    12.000000000000
         N           -1.705946905607    -1.532618090748    -0.004602670355    14.003074004430
         N            3.014024094393    -1.006654090748    -0.077032670355    14.003074004430
         H            2.288142094393     1.389671909252    -0.101800670355     1.007825032230
         H           -3.736577905607    -0.818146090748    -0.000698670355     1.007825032230
         H           -1.828544905607    -2.538496090748    -0.018325670355     1.007825032230
         H            3.087156094393    -2.008330090748     0.070734329645     1.007825032230
         H            3.666499094393    -0.489244090748     0.503169329645     1.007825032230

  Basis Set: AUG-CC-PVTZ
    Blend: AUG-CC-PVTZ
  Basis Set: (AUG-CC-PVTZ AUX)
    Blend: AUG-CC-PVTZ-JKFIT
	 Reference Energy          =    -539.5828631441014522 [Eh]
	 Singles Energy            =      -0.0000000000000000 [Eh]
	 Same-Spin Energy          =      -0.5738031603351841 [Eh]
	 Opposite-Spin Energy      =      -1.6640245828687359 [Eh]
	 Correlation Energy        =      -2.2378277432039200 [Eh]
	 Total Energy              =    -541.8206908873053180 [Eh]

	 ================> DF-SCS-MP2 Energies <==================
	-----------------------------------------------------------
	 SCS Same-Spin Scale       =       0.3333333333333333 [-]
	 SCS Opposite-Spin Scale   =       1.2000000000000000 [-]
	 SCS Same-Spin Energy      =      -0.1912677201117280 [Eh]
	 SCS Opposite-Spin Energy  =      -1.9968294994424829 [Eh]
	 SCS Correlation Energy    =      -2.1880972195542108 [Eh]
	 SCS Total Energy          =    -541.7709603636557176 [Eh]
	-----------------------------------------------------------

  Dipole Moment: [D]
     X:     2.6990      Y:    -5.4917      Z:     0.8507     Total:     6.1780

*** Psi4 exiting successfully. Buy a developer a beer!
