                               Psi4 1.3.2 release

  ==> Input File <==

--------------------------------------------------------------------------
#psi4
#
memory 32 gb

molecule  {
0 1
  O        0.1763910     2.6970700    -0.0085580
  C        0.2089260     1.4725840     0.0042240
  N        1.4659430     0.7906670    -0.0052000
  C        1.6696020    -0.5667920     0.0018180
  N        0.7040600    -1.4531590     0.0111340
  C       -0.5731352    -0.7742167    -0.0022988
  C       -0.8535700     0.4975280     0.0150930
  N       -2.2178770     0.6874110     0.0132550
  C       -2.7081380    -0.5423290     0.0003530
  N       -1.7302440    -1.5082620    -0.0074590
  N        2.9897270    -0.9822980    -0.0798890
  H        2.2638450     1.4140280    -0.1046570
  H       -3.7608750    -0.7937900    -0.0035550
  H       -1.8528420    -2.5141400    -0.0211820
  H        3.0628590    -1.9839740     0.0678780
  H        3.6422020    -0.4648880     0.5003130
units angstrom
no_reorient  #important for SAPT in psi4, default
symmetry c1  #important for SAPT in psi4, default
}

set PROPERTIES_ORIGIN ["COM"]
properties('MP2/aug-cc-pvtz', properties = ['dipole'])
--------------------------------------------------------------------------

    Molecular point group: c1
  Charge       = 0
  Multiplicity = 1
  Basis Set: AUG-CC-PVTZ
    Blend: AUG-CC-PVTZ
  Basis Set: (AUG-CC-PVTZ AUX)
    Blend: AUG-CC-PVTZ-JKFIT

    Orbital Energies [Eh]
    ---------------------

    Doubly Occupied:

       1A    -20.532494     2A    -15.634022     3A    -15.629487
       4A    -15.608255     5A    -15.571847     6A    -15.563102
       7A    -11.391635     8A    -11.374297     9A    -11.317694
      10A    -11.316697    11A    -11.247165    12A     -1.396767
      13A     -1.365863    14A     -1.333216    15A     -1.219367
      16A     -1.201260    17A     -1.175867    18A     -1.045854
      19A     -0.908393    20A     -0.875033    21A     -0.850133
      22A     -0.791580    23A     -0.739944    24A     -0.725468
      25A     -0.709928    26A     -0.679249    27A     -0.655993
      28A     -0.623104    29A     -0.614373    30A     -0.604200
      31A     -0.596277    32A     -0.546951    33A     -0.497076
      34A     -0.455647    35A     -0.445404    36A     -0.438039
      37A     -0.427216    38A     -0.414972    39A     -0.319413

  @DF-RHF Final Energy:  -539.57695565920767

   => Energetics <=

    Nuclear Repulsion Energy =            594.4657713322803829
    One-Electron Energy =               -1914.3988894054157299
    Two-Electron Energy =                 780.3561624139276773
    Total Energy =                       -539.5769556592076697
  Basis Set: (AUG-CC-PVTZ AUX)
    Blend: AUG-CC-PVTZ-RI
    Molecular point group: c1

    Geometry (in Angstrom), charge = 0, multiplicity = 1:

       Center              X                  Y                   Z               Mass
    ------------   -----------------  -----------------  -----------------  -----------------
         O            0.202254917422     2.662131787926    -0.005785271525    15.994914619570
         C            0.234789917422     1.437645787926     0.006996728475    12.000000000000
         N            1.491806917422     0.755728787926    -0.002427271525    14.003074004430
         C            1.695465917422    -0.601730212074     0.004590728475    12.000000000000
         N            0.729923917422    -1.488097212074     0.013906728475    14.003074004430
         C           -0.547271282578    -0.809154912074     0.000473928475    12.000000000000
         C           -0.827706082578     0.462589787926     0.017865728475    12.000000000000
         N           -2.192013082578     0.652472787926     0.016027728475    14.003074004430
         C           -2.682274082578    -0.577267212074     0.003125728475    12.000000000000
         N           -1.704380082578    -1.543200212074    -0.004686271525    14.003074004430
         N            3.015590917422    -1.017236212074    -0.077116271525    14.003074004430
         H            2.289708917422     1.379089787926    -0.101884271525     1.007825032230
         H           -3.735011082578    -0.828728212074    -0.000782271525     1.007825032230
         H           -1.826978082578    -2.549078212074    -0.018409271525     1.007825032230
         H            3.088722917422    -2.018912212074     0.070650728475     1.007825032230
         H            3.668065917422    -0.499826212074     0.503085728475     1.007825032230

  Basis Set: AUG-CC-PVTZ
    Blend: AUG-CC-PVTZ
  Basis Set: (AUG-CC-PVTZ AUX)
    Blend: AUG-CC-PVTZ-JKFIT
	 Reference Energy          =    -539.5769556592076697 [Eh]
	 Singles Energy            =      -0.0000000000000000 [Eh]
	 Same-Spin Energy          =      -0.5712908344084393 [Eh]
	 Opposite-Spin Energy      =      -1.6628579970854798 [Eh]
	 Correlation Energy        =      -2.2341488314939193 [Eh]
	 Total Energy              =    -541.8111044907016094 [Eh]

	 ================> DF-SCS-MP2 Energies <==================
	-----------------------------------------------------------
	 SCS Same-Spin Scale       =       0.3333333333333333 [-]
	 SCS Opposite-Spin Scale   =       1.2000000000000000 [-]
	 SCS Same-Spin Energy      =      -0.1904302781361464 [Eh]
	 SCS Opposite-Spin Energy  =      -1.9954295965025757 [Eh]
	 SCS Correlation Energy    =      -2.1858598746387221 [Eh]
	 SCS Total Energy          =    -541.7628155338463785 [Eh]
	-----------------------------------------------------------

  Dipole Moment: [D]
     X:     2.5263      Y:    -5.3879      Z:     0.8443     Total:     6.0103

*** Psi4 exiting successfully. Buy a developer a beer!
