                               Psi4 1.3.2 release

  ==> Input File <==

--------------------------------------------------------------------------
#psi4
#
memory 32 gb

molecule  {
0 1
  O        0.1763910     2.6970700    -0.0085580
  C        0.2142379     1.2726654     0.0063109
  N        1.4659430     0.7906670    -0.0052000
  C        1.6696020    -0.5667920     0.0018180
  N        0.7040600    -1.4531590     0.0111340
  C       -0.5247500    -0.8567100    -0.0036900
  C       -0.8535700     0.4975280     0.0150930
  N       -2.2178770     0.6874110     0.0132550
  C       -2.7081380    -0.5423290     0.0003530
  N       -1.7302440    -1.5082620    -0.0074590
  N        2.9897270    -0.9822980    -0.0798890
  H        2.2638450     1.4140280    -0.1046570
  H       -3.7608750    -0.7937900    -0.0035550
  H       -1.8528420    -2.5141400    -0.0211820
  H        3.0628590    -1.9839740     0.0678780
  H        3.6422020    -0.4648880     0.5003130
units angstrom
no_reorient  #important for SAPT in psi4, default
symmetry c1  #important for SAPT in psi4, default
}

set PROPERTIES_ORIGIN ["COM"]
properties('MP2/aug-cc-pvtz', properties = ['dipole'])
--------------------------------------------------------------------------

    Molecular point group: c1
  Charge       = 0
  Multiplicity = 1
  Basis Set: AUG-CC-PVTZ
    Blend: AUG-CC-PVTZ
  Basis Set: (AUG-CC-PVTZ AUX)
    Blend: AUG-CC-PVTZ-JKFIT

    Orbital Energies [Eh]
    ---------------------

    Doubly Occupied:

       1A    -20.473217     2A    -15.652430     3A    -15.648724
       4A    -15.622786     5A    -15.592669     6A    -15.576874
       7A    -11.410476     8A    -11.349665     9A    -11.347218
      10A    -11.330901    11A    -11.255490    12A     -1.402283
      13A     -1.362511    14A     -1.282245    15A     -1.234083
      16A     -1.194972    17A     -1.187420    18A     -1.063442
      19A     -0.933579    20A     -0.902000    21A     -0.857202
      22A     -0.816176    23A     -0.775777    24A     -0.742902
      25A     -0.707365    26A     -0.680098    27A     -0.673672
      28A     -0.652482    29A     -0.623718    30A     -0.610087
      31A     -0.534654    32A     -0.526436    33A     -0.506814
      34A     -0.472172    35A     -0.441110    36A     -0.428803
      37A     -0.394283    38A     -0.387657    39A     -0.314254

  @DF-RHF Final Energy:  -539.52237183832870

   => Energetics <=

    Nuclear Repulsion Energy =            595.6616678491026278
    One-Electron Energy =               -1916.4307807816508102
    Two-Electron Energy =                 781.2467410942193737
    Total Energy =                       -539.5223718383286950
  Basis Set: (AUG-CC-PVTZ AUX)
    Blend: AUG-CC-PVTZ-RI
    Molecular point group: c1

    Geometry (in Angstrom), charge = 0, multiplicity = 1:

       Center              X                  Y                   Z               Mass
    ------------   -----------------  -----------------  -----------------  -----------------
         O            0.197988994101     2.684567776285    -0.005840540857    15.994914619570
         C            0.235835894101     1.260163176285     0.009028359143    12.000000000000
         N            1.487540994101     0.778164776285    -0.002482540857    14.003074004430
         C            1.691199994101    -0.579294223715     0.004535459143    12.000000000000
         N            0.725657994101    -1.465661223715     0.013851459143    14.003074004430
         C           -0.503152005899    -0.869212223715    -0.000972540857    12.000000000000
         C           -0.831972005899     0.485025776285     0.017810459143    12.000000000000
         N           -2.196279005899     0.674908776285     0.015972459143    14.003074004430
         C           -2.686540005899    -0.554831223715     0.003070459143    12.000000000000
         N           -1.708646005899    -1.520764223715    -0.004741540857    14.003074004430
         N            3.011324994101    -0.994800223715    -0.077171540857    14.003074004430
         H            2.285442994101     1.401525776285    -0.101939540857     1.007825032230
         H           -3.739277005899    -0.806292223715    -0.000837540857     1.007825032230
         H           -1.831244005899    -2.526642223715    -0.018464540857     1.007825032230
         H            3.084456994101    -1.996476223715     0.070595459143     1.007825032230
         H            3.663799994101    -0.477390223715     0.503030459143     1.007825032230

  Basis Set: AUG-CC-PVTZ
    Blend: AUG-CC-PVTZ
  Basis Set: (AUG-CC-PVTZ AUX)
    Blend: AUG-CC-PVTZ-JKFIT
	 Reference Energy          =    -539.5223718383286950 [Eh]
	 Singles Energy            =      -0.0000000000000000 [Eh]
	 Same-Spin Energy          =      -0.5766287211660246 [Eh]
	 Opposite-Spin Energy      =      -1.6697004607006312 [Eh]
	 Correlation Energy        =      -2.2463291818666558 [Eh]
	 Total Energy              =    -541.7687010201952944 [Eh]

	 ================> DF-SCS-MP2 Energies <==================
	-----------------------------------------------------------
	 SCS Same-Spin Scale       =       0.3333333333333333 [-]
	 SCS Opposite-Spin Scale   =       1.2000000000000000 [-]
	 SCS Same-Spin Energy      =      -0.1922095737220082 [Eh]
	 SCS Opposite-Spin Energy  =      -2.0036405528407575 [Eh]
	 SCS Correlation Energy    =      -2.1958501265627657 [Eh]
	 SCS Total Energy          =    -541.7182219648914270 [Eh]
	-----------------------------------------------------------

  Dipole Moment: [D]
     X:     2.6950      Y:    -7.5597      Z:     0.8519     Total:     8.0708

*** Psi4 exiting successfully. Buy a developer a beer!
