                               Psi4 1.3.2 release

  ==> Input File <==

--------------------------------------------------------------------------
#psi4
#
memory 32 gb

molecule  {
0 1
  O        0.1977654     2.6974483    -0.0088475
  C        0.2089260     1.4725840     0.0042240
  N        1.4659430     0.7906670    -0.0052000
  C        1.6696020    -0.5667920     0.0018180
  N        0.7040600    -1.4531590     0.0111340
  C       -0.5247500    -0.8567100    -0.0036900
  C       -0.8535700     0.4975280     0.0150930
  N       -2.2178770     0.6874110     0.0132550
  C       -2.7081380    -0.5423290     0.0003530
  N       -1.7302440    -1.5082620    -0.0074590
  N        2.9897270    -0.9822980    -0.0798890
  H        2.2638450     1.4140280    -0.1046570
  H       -3.7608750    -0.7937900    -0.0035550
  H       -1.8528420    -2.5141400    -0.0211820
  H        3.0628590    -1.9839740     0.0678780
  H        3.6422020    -0.4648880     0.5003130
units angstrom
no_reorient  #important for SAPT in psi4, default
symmetry c1  #important for SAPT in psi4, default
}

set PROPERTIES_ORIGIN ["COM"]
properties('MP2/aug-cc-pvtz', properties = ['dipole'])
--------------------------------------------------------------------------

    Molecular point group: c1
  Charge       = 0
  Multiplicity = 1
  Basis Set: AUG-CC-PVTZ
    Blend: AUG-CC-PVTZ
  Basis Set: (AUG-CC-PVTZ AUX)
    Blend: AUG-CC-PVTZ-JKFIT

    Orbital Energies [Eh]
    ---------------------

    Doubly Occupied:

       1A    -20.524247     2A    -15.636595     3A    -15.631061
       4A    -15.612163     5A    -15.573463     6A    -15.565710
       7A    -11.398265     8A    -11.368100     9A    -11.328206
      10A    -11.314661    11A    -11.252179    12A     -1.393854
      13A     -1.361362    14A     -1.335570    15A     -1.220278
      16A     -1.218128    17A     -1.178559    18A     -1.031778
      19A     -0.907064    20A     -0.884925    21A     -0.845371
      22A     -0.799068    23A     -0.740120    24A     -0.730292
      25A     -0.700715    26A     -0.673264    27A     -0.656364
      28A     -0.633765    29A     -0.614697    30A     -0.601811
      31A     -0.596794    32A     -0.547936    33A     -0.499910
      34A     -0.462480    35A     -0.443159    36A     -0.433663
      37A     -0.432226    38A     -0.412644    39A     -0.303299

  @DF-RHF Final Energy:  -539.58764845598148

   => Energetics <=

    Nuclear Repulsion Energy =            593.6396302127012632
    One-Electron Energy =               -1912.7270716254733998
    Two-Electron Energy =                 779.4997929567905430
    Total Energy =                       -539.5876484559814799
  Basis Set: (AUG-CC-PVTZ AUX)
    Blend: AUG-CC-PVTZ-RI
    Molecular point group: c1

    Geometry (in Angstrom), charge = 0, multiplicity = 1:

       Center              X                  Y                   Z               Mass
    ------------   -----------------  -----------------  -----------------  -----------------
         O            0.217522017141     2.669023643491    -0.005933593034    15.994914619570
         C            0.228682617141     1.444159343491     0.007137906966    12.000000000000
         N            1.485699617141     0.762242343491    -0.002286093034    14.003074004430
         C            1.689358617141    -0.595216656509     0.004731906966    12.000000000000
         N            0.723816617141    -1.481583656509     0.014047906966    14.003074004430
         C           -0.504993382859    -0.885134656509    -0.000776093034    12.000000000000
         C           -0.833813382859     0.469103343491     0.018006906966    12.000000000000
         N           -2.198120382859     0.658986343491     0.016168906966    14.003074004430
         C           -2.688381382859    -0.570753656509     0.003266906966    12.000000000000
         N           -1.710487382859    -1.536686656509    -0.004545093034    14.003074004430
         N            3.009483617141    -1.010722656509    -0.076975093034    14.003074004430
         H            2.283601617141     1.385603343491    -0.101743093034     1.007825032230
         H           -3.741118382859    -0.822214656509    -0.000641093034     1.007825032230
         H           -1.833085382859    -2.542564656509    -0.018268093034     1.007825032230
         H            3.082615617141    -2.012398656509     0.070791906966     1.007825032230
         H            3.661958617141    -0.493312656509     0.503226906966     1.007825032230

  Basis Set: AUG-CC-PVTZ
    Blend: AUG-CC-PVTZ
  Basis Set: (AUG-CC-PVTZ AUX)
    Blend: AUG-CC-PVTZ-JKFIT
	 Reference Energy          =    -539.5876484559814799 [Eh]
	 Singles Energy            =      -0.0000000000000000 [Eh]
	 Same-Spin Energy          =      -0.5729967630156168 [Eh]
	 Opposite-Spin Energy      =      -1.6631138097774882 [Eh]
	 Correlation Energy        =      -2.2361105727931050 [Eh]
	 Total Energy              =    -541.8237590287745888 [Eh]

	 ================> DF-SCS-MP2 Energies <==================
	-----------------------------------------------------------
	 SCS Same-Spin Scale       =       0.3333333333333333 [-]
	 SCS Opposite-Spin Scale   =       1.2000000000000000 [-]
	 SCS Same-Spin Energy      =      -0.1909989210052056 [Eh]
	 SCS Opposite-Spin Energy  =      -1.9957365717329858 [Eh]
	 SCS Correlation Energy    =      -2.1867354927381912 [Eh]
	 SCS Total Energy          =    -541.7743839487196738 [Eh]
	-----------------------------------------------------------

  Dipole Moment: [D]
     X:     2.6213      Y:    -5.6440      Z:     0.8445     Total:     6.2800

*** Psi4 exiting successfully. Buy a developer a beer!
