                               Psi4 1.3.2 release

  ==> Input File <==

--------------------------------------------------------------------------
#psi4
#
memory 32 gb

molecule  {
0 1
  O        0.0910574     2.6918299    -0.0073620
  C        0.2089260     1.4725840     0.0042240
  N        1.4659430     0.7906670    -0.0052000
  C        1.6696020    -0.5667920     0.0018180
  N        0.7040600    -1.4531590     0.0111340
  C       -0.5247500    -0.8567100    -0.0036900
  C       -0.8535700     0.4975280     0.0150930
  N       -2.2178770     0.6874110     0.0132550
  C       -2.7081380    -0.5423290     0.0003530
  N       -1.7302440    -1.5082620    -0.0074590
  N        2.9897270    -0.9822980    -0.0798890
  H        2.2638450     1.4140280    -0.1046570
  H       -3.7608750    -0.7937900    -0.0035550
  H       -1.8528420    -2.5141400    -0.0211820
  H        3.0628590    -1.9839740     0.0678780
  H        3.6422020    -0.4648880     0.5003130
units angstrom
no_reorient  #important for SAPT in psi4, default
symmetry c1  #important for SAPT in psi4, default
}

set PROPERTIES_ORIGIN ["COM"]
properties('MP2/aug-cc-pvtz', properties = ['dipole'])
--------------------------------------------------------------------------

    Molecular point group: c1
  Charge       = 0
  Multiplicity = 1
  Basis Set: AUG-CC-PVTZ
    Blend: AUG-CC-PVTZ
  Basis Set: (AUG-CC-PVTZ AUX)
    Blend: AUG-CC-PVTZ-JKFIT

    Orbital Energies [Eh]
    ---------------------

    Doubly Occupied:

       1A    -20.524987     2A    -15.635619     3A    -15.634743
       4A    -15.613199     5A    -15.574125     6A    -15.563671
       7A    -11.399815     8A    -11.367823     9A    -11.325046
      10A    -11.312918    11A    -11.248635    12A     -1.392636
      13A     -1.359479    14A     -1.336976    15A     -1.223169
      16A     -1.218658    17A     -1.176978    18A     -1.029672
      19A     -0.906140    20A     -0.886441    21A     -0.843417
      22A     -0.799536    23A     -0.741289    24A     -0.730324
      25A     -0.700617    26A     -0.672881    27A     -0.656364
      28A     -0.633960    29A     -0.614469    30A     -0.599973
      31A     -0.596033    32A     -0.547997    33A     -0.499364
      34A     -0.462933    35A     -0.443172    36A     -0.434377
      37A     -0.430575    38A     -0.410518    39A     -0.301350

  @DF-RHF Final Energy:  -539.58579892196042

   => Energetics <=

    Nuclear Repulsion Energy =            593.7853062975375451
    One-Electron Energy =               -1913.0424522244443324
    Two-Electron Energy =                 779.6713470049463695
    Total Energy =                       -539.5857989219604178
  Basis Set: (AUG-CC-PVTZ AUX)
    Blend: AUG-CC-PVTZ-RI
    Molecular point group: c1

    Geometry (in Angstrom), charge = 0, multiplicity = 1:

       Center              X                  Y                   Z               Mass
    ------------   -----------------  -----------------  -----------------  -----------------
         O            0.122113533977     2.664000186751    -0.004605395506    15.994914619570
         C            0.239982133977     1.444754286751     0.006980604494    12.000000000000
         N            1.496999133977     0.762837286751    -0.002443395506    14.003074004430
         C            1.700658133977    -0.594621713249     0.004574604494    12.000000000000
         N            0.735116133977    -1.480988713249     0.013890604494    14.003074004430
         C           -0.493693866023    -0.884539713249    -0.000933395506    12.000000000000
         C           -0.822513866023     0.469698286751     0.017849604494    12.000000000000
         N           -2.186820866023     0.659581286751     0.016011604494    14.003074004430
         C           -2.677081866023    -0.570158713249     0.003109604494    12.000000000000
         N           -1.699187866023    -1.536091713249    -0.004702395506    14.003074004430
         N            3.020783133977    -1.010127713249    -0.077132395506    14.003074004430
         H            2.294901133977     1.386198286751    -0.101900395506     1.007825032230
         H           -3.729818866023    -0.821619713249    -0.000798395506     1.007825032230
         H           -1.821785866023    -2.541969713249    -0.018425395506     1.007825032230
         H            3.093915133977    -2.011803713249     0.070634604494     1.007825032230
         H            3.673258133977    -0.492717713249     0.503069604494     1.007825032230

  Basis Set: AUG-CC-PVTZ
    Blend: AUG-CC-PVTZ
  Basis Set: (AUG-CC-PVTZ AUX)
    Blend: AUG-CC-PVTZ-JKFIT
	 Reference Energy          =    -539.5857989219604178 [Eh]
	 Singles Energy            =      -0.0000000000000000 [Eh]
	 Same-Spin Energy          =      -0.5732426529173500 [Eh]
	 Opposite-Spin Energy      =      -1.6636494070154186 [Eh]
	 Correlation Energy        =      -2.2368920599327686 [Eh]
	 Total Energy              =    -541.8226909818931745 [Eh]

	 ================> DF-SCS-MP2 Energies <==================
	-----------------------------------------------------------
	 SCS Same-Spin Scale       =       0.3333333333333333 [-]
	 SCS Opposite-Spin Scale   =       1.2000000000000000 [-]
	 SCS Same-Spin Energy      =      -0.1910808843057833 [Eh]
	 SCS Opposite-Spin Energy  =      -1.9963792884185023 [Eh]
	 SCS Correlation Energy    =      -2.1874601727242857 [Eh]
	 SCS Total Energy          =    -541.7732590946847040 [Eh]
	-----------------------------------------------------------

  Dipole Moment: [D]
     X:     2.8551      Y:    -5.5852      Z:     0.8419     Total:     6.3289

*** Psi4 exiting successfully. Buy a developer a beer!
