                               Psi4 1.3.2 release

  ==> Input File <==

--------------------------------------------------------------------------
#psi4
#
memory 32 gb

molecule  {
0 1
  O        0.1763910     2.6970700    -0.0085580
  C        0.2089260     1.4725840     0.0042240
  N        1.4153159     0.7046408    -0.0046081
  C        1.6696020    -0.5667920     0.0018180
  N        0.7040600    -1.4531590     0.0111340
  C       -0.5247500    -0.8567100    -0.0036900
  C       -0.8535700     0.4975280     0.0150930
  N       -2.2178770     0.6874110     0.0132550
  C       -2.7081380    -0.5423290     0.0003530
  N       -1.7302440    -1.5082620    -0.0074590
  N        2.9897270    -0.9822980    -0.0798890
  H        2.2638450     1.4140280    -0.1046570
  H       -3.7608750    -0.7937900    -0.0035550
  H       -1.8528420    -2.5141400    -0.0211820
  H        3.0628590    -1.9839740     0.0678780
  H        3.6422020    -0.4648880     0.5003130
units angstrom
no_reorient  #important for SAPT in psi4, default
symmetry c1  #important for SAPT in psi4, default
}

set PROPERTIES_ORIGIN ["COM"]
properties('MP2/aug-cc-pvtz', properties = ['dipole'])
--------------------------------------------------------------------------

    Molecular point group: c1
  Charge       = 0
  Multiplicity = 1
  Basis Set: AUG-CC-PVTZ
    Blend: AUG-CC-PVTZ
  Basis Set: (AUG-CC-PVTZ AUX)
    Blend: AUG-CC-PVTZ-JKFIT

    Orbital Energies [Eh]
    ---------------------

    Doubly Occupied:

       1A    -20.531441     2A    -15.640170     3A    -15.633944
       4A    -15.610799     5A    -15.565506     6A    -15.563075
       7A    -11.389509     8A    -11.373019     9A    -11.325554
      10A    -11.313691    11A    -11.249260    12A     -1.401336
      13A     -1.362117    14A     -1.344789    15A     -1.225367
      16A     -1.214538    17A     -1.175331    18A     -1.035557
      19A     -0.916138    20A     -0.883308    21A     -0.843460
      22A     -0.800981    23A     -0.736410    24A     -0.722416
      25A     -0.697515    26A     -0.676336    27A     -0.662171
      28A     -0.626050    29A     -0.619882    30A     -0.601101
      31A     -0.592897    32A     -0.548340    33A     -0.494583
      34A     -0.463908    35A     -0.447089    36A     -0.435091
      37A     -0.431398    38A     -0.409758    39A     -0.301597

  @DF-RHF Final Energy:  -539.57085054769072

   => Energetics <=

    Nuclear Repulsion Energy =            595.6277502098320156
    One-Electron Energy =               -1916.6663327819780989
    Two-Electron Energy =                 781.4677320244552448
    Total Energy =                       -539.5708505476907249
  Basis Set: (AUG-CC-PVTZ AUX)
    Blend: AUG-CC-PVTZ-RI
    Molecular point group: c1

    Geometry (in Angstrom), charge = 0, multiplicity = 1:

       Center              X                  Y                   Z               Mass
    ------------   -----------------  -----------------  -----------------  -----------------
         O            0.203104391963     2.676660483190    -0.005729620990    15.994914619570
         C            0.235639391963     1.452174483190     0.007052379010    12.000000000000
         N            1.442029291963     0.684231283190    -0.001779720990    14.003074004430
         C            1.696315391963    -0.587201516810     0.004646379010    12.000000000000
         N            0.730773391963    -1.473568516810     0.013962379010    14.003074004430
         C           -0.498036608037    -0.877119516810    -0.000861620990    12.000000000000
         C           -0.826856608037     0.477118483190     0.017921379010    12.000000000000
         N           -2.191163608037     0.667001483190     0.016083379010    14.003074004430
         C           -2.681424608037    -0.562738516810     0.003181379010    12.000000000000
         N           -1.703530608037    -1.528671516810    -0.004630620990    14.003074004430
         N            3.016440391963    -1.002707516810    -0.077060620990    14.003074004430
         H            2.290558391963     1.393618483190    -0.101828620990     1.007825032230
         H           -3.734161608037    -0.814199516810    -0.000726620990     1.007825032230
         H           -1.826128608037    -2.534549516810    -0.018353620990     1.007825032230
         H            3.089572391963    -2.004383516810     0.070706379010     1.007825032230
         H            3.668915391963    -0.485297516810     0.503141379010     1.007825032230

  Basis Set: AUG-CC-PVTZ
    Blend: AUG-CC-PVTZ
  Basis Set: (AUG-CC-PVTZ AUX)
    Blend: AUG-CC-PVTZ-JKFIT
	 Reference Energy          =    -539.5708505476907249 [Eh]
	 Singles Energy            =      -0.0000000000000000 [Eh]
	 Same-Spin Energy          =      -0.5747509830766852 [Eh]
	 Opposite-Spin Energy      =      -1.6653070034208299 [Eh]
	 Correlation Energy        =      -2.2400579864975150 [Eh]
	 Total Energy              =    -541.8109085341882292 [Eh]

	 ================> DF-SCS-MP2 Energies <==================
	-----------------------------------------------------------
	 SCS Same-Spin Scale       =       0.3333333333333333 [-]
	 SCS Opposite-Spin Scale   =       1.2000000000000000 [-]
	 SCS Same-Spin Energy      =      -0.1915836610255617 [Eh]
	 SCS Opposite-Spin Energy  =      -1.9983684041049958 [Eh]
	 SCS Correlation Energy    =      -2.1899520651305577 [Eh]
	 SCS Total Energy          =    -541.7608026128212941 [Eh]
	-----------------------------------------------------------

  Dipole Moment: [D]
     X:     2.7198      Y:    -5.3592      Z:     0.8573     Total:     6.0707

*** Psi4 exiting successfully. Buy a developer a beer!
