                               Psi4 1.3.2 release

  ==> Input File <==

--------------------------------------------------------------------------
#psi4
#
memory 32 gb

molecule  {
0 1
  O        0.1763910     2.6970700    -0.0085580
  C        0.2089260     1.4725840     0.0042240
  N        1.4659430     0.7906670    -0.0052000
  C        1.6380790    -0.5336409     0.0011616
  N        0.7040600    -1.4531590     0.0111340
  C       -0.5247500    -0.8567100    -0.0036900
  C       -0.8535700     0.4975280     0.0150930
  N       -2.2178770     0.6874110     0.0132550
  C       -2.7081380    -0.5423290     0.0003530
  N       -1.7302440    -1.5082620    -0.0074590
  N        2.9897270    -0.9822980    -0.0798890
  H        2.2638450     1.4140280    -0.1046570
  H       -3.7608750    -0.7937900    -0.0035550
  H       -1.8528420    -2.5141400    -0.0211820
  H        3.0628590    -1.9839740     0.0678780
  H        3.6422020    -0.4648880     0.5003130
units angstrom
no_reorient  #important for SAPT in psi4, default
symmetry c1  #important for SAPT in psi4, default
}

set PROPERTIES_ORIGIN ["COM"]
properties('MP2/aug-cc-pvtz', properties = ['dipole'])
--------------------------------------------------------------------------

    Molecular point group: c1
  Charge       = 0
  Multiplicity = 1
  Basis Set: AUG-CC-PVTZ
    Blend: AUG-CC-PVTZ
  Basis Set: (AUG-CC-PVTZ AUX)
    Blend: AUG-CC-PVTZ-JKFIT

    Orbital Energies [Eh]
    ---------------------

    Doubly Occupied:

       1A    -20.527063     2A    -15.637525     3A    -15.636836
       4A    -15.606521     5A    -15.574800     6A    -15.566404
       7A    -11.397396     8A    -11.370473     9A    -11.328747
      10A    -11.315526    11A    -11.252838    12A     -1.398772
      13A     -1.362604    14A     -1.337523    15A     -1.226619
      16A     -1.208816    17A     -1.180126    18A     -1.032623
      19A     -0.910380    20A     -0.888908    21A     -0.846361
      22A     -0.800081    23A     -0.747688    24A     -0.720775
      25A     -0.697548    26A     -0.675155    27A     -0.659515
      28A     -0.626722    29A     -0.616815    30A     -0.603548
      31A     -0.598494    32A     -0.545602    33A     -0.503964
      34A     -0.459509    35A     -0.446096    36A     -0.436952
      37A     -0.435079    38A     -0.413764    39A     -0.304057

  @DF-RHF Final Energy:  -539.58523192071834

   => Energetics <=

    Nuclear Repulsion Energy =            594.1818993126735222
    One-Electron Energy =               -1913.7378188448512901
    Two-Electron Energy =                 779.9706876114594252
    Total Energy =                       -539.5852319207183427
  Basis Set: (AUG-CC-PVTZ AUX)
    Blend: AUG-CC-PVTZ-RI
    Molecular point group: c1

    Geometry (in Angstrom), charge = 0, multiplicity = 1:

       Center              X                  Y                   Z               Mass
    ------------   -----------------  -----------------  -----------------  -----------------
         O            0.200915313380     2.666051739687    -0.005622601574    15.994914619570
         C            0.233450313380     1.441565739687     0.007159398426    12.000000000000
         N            1.490467313380     0.759648739687    -0.002264601574    14.003074004430
         C            1.662603313380    -0.564659160313     0.004096998426    12.000000000000
         N            0.728584313380    -1.484177260313     0.014069398426    14.003074004430
         C           -0.500225686620    -0.887728260313    -0.000754601574    12.000000000000
         C           -0.829045686620     0.466509739687     0.018028398426    12.000000000000
         N           -2.193352686620     0.656392739687     0.016190398426    14.003074004430
         C           -2.683613686620    -0.573347260313     0.003288398426    12.000000000000
         N           -1.705719686620    -1.539280260313    -0.004523601574    14.003074004430
         N            3.014251313380    -1.013316260313    -0.076953601574    14.003074004430
         H            2.288369313380     1.383009739687    -0.101721601574     1.007825032230
         H           -3.736350686620    -0.824808260313    -0.000619601574     1.007825032230
         H           -1.828317686620    -2.545158260313    -0.018246601574     1.007825032230
         H            3.087383313380    -2.014992260313     0.070813398426     1.007825032230
         H            3.666726313380    -0.495906260313     0.503248398426     1.007825032230

  Basis Set: AUG-CC-PVTZ
    Blend: AUG-CC-PVTZ
  Basis Set: (AUG-CC-PVTZ AUX)
    Blend: AUG-CC-PVTZ-JKFIT
	 Reference Energy          =    -539.5852319207183427 [Eh]
	 Singles Energy            =      -0.0000000000000000 [Eh]
	 Same-Spin Energy          =      -0.5729651851296638 [Eh]
	 Opposite-Spin Energy      =      -1.6632748476808263 [Eh]
	 Correlation Energy        =      -2.2362400328104899 [Eh]
	 Total Energy              =    -541.8214719535288850 [Eh]

	 ================> DF-SCS-MP2 Energies <==================
	-----------------------------------------------------------
	 SCS Same-Spin Scale       =       0.3333333333333333 [-]
	 SCS Opposite-Spin Scale   =       1.2000000000000000 [-]
	 SCS Same-Spin Energy      =      -0.1909883950432212 [Eh]
	 SCS Opposite-Spin Energy  =      -1.9959298172169915 [Eh]
	 SCS Correlation Energy    =      -2.1869182122602129 [Eh]
	 SCS Total Energy          =    -541.7721501329785951 [Eh]
	-----------------------------------------------------------

  Dipole Moment: [D]
     X:     2.4043      Y:    -5.4386      Z:     0.8477     Total:     6.0065

*** Psi4 exiting successfully. Buy a developer a beer!
