                               Psi4 1.3.2 release

  ==> Input File <==

--------------------------------------------------------------------------
#psi4
#
memory 32 gb

molecule  {
0 1
  O        0.1763910     2.6970700    -0.0085580
  C        0.2089260     1.4725840     0.0042240
  N        1.4659430     0.7906670    -0.0052000
  C        1.6696020    -0.5667920     0.0018180
  N        0.7040600    -1.4531590     0.0111340
  C       -0.5247500    -0.8567100    -0.0036900
  C       -0.8535700     0.4975280     0.0150930
  N       -2.2178770     0.6874110     0.0132550
  C       -2.7081380    -0.5423290     0.0003530
  N       -1.7302440    -1.5082620    -0.0074590
  N        2.9897270    -0.9822980    -0.0798890
  H        2.4206950     1.5365671    -0.1242081
  H       -3.7608750    -0.7937900    -0.0035550
  H       -1.8528420    -2.5141400    -0.0211820
  H        3.0628590    -1.9839740     0.0678780
  H        3.6422020    -0.4648880     0.5003130
units angstrom
no_reorient  #important for SAPT in psi4, default
symmetry c1  #important for SAPT in psi4, default
}

set PROPERTIES_ORIGIN ["COM"]
properties('MP2/aug-cc-pvtz', properties = ['dipole'])
--------------------------------------------------------------------------

    Molecular point group: c1
  Charge       = 0
  Multiplicity = 1
  Basis Set: AUG-CC-PVTZ
    Blend: AUG-CC-PVTZ
  Basis Set: (AUG-CC-PVTZ AUX)
    Blend: AUG-CC-PVTZ-JKFIT

    Orbital Energies [Eh]
    ---------------------

    Doubly Occupied:

       1A    -20.522845     2A    -15.644767     3A    -15.635410
       4A    -15.610672     5A    -15.572606     6A    -15.564725
       7A    -11.397163     8A    -11.367179     9A    -11.326685
      10A    -11.313654    11A    -11.251161    12A     -1.389315
      13A     -1.359818    14A     -1.332225    15A     -1.218199
      16A     -1.207384    17A     -1.174453    18A     -1.029672
      19A     -0.901372    20A     -0.876799    21A     -0.843422
      22A     -0.794243    23A     -0.729163    24A     -0.709625
      25A     -0.693289    26A     -0.671831    27A     -0.653826
      28A     -0.625834    29A     -0.613388    30A     -0.596047
      31A     -0.592477    32A     -0.546322    33A     -0.497312
      34A     -0.461254    35A     -0.441847    36A     -0.432091
      37A     -0.429582    38A     -0.411142    39A     -0.302105

  @DF-RHF Final Energy:  -539.55761232406599

   => Energetics <=

    Nuclear Repulsion Energy =            592.4843744004748487
    One-Electron Energy =               -1910.6021662692965037
    Two-Electron Energy =                 778.5601795447557834
    Total Energy =                       -539.5576123240659854
  Basis Set: (AUG-CC-PVTZ AUX)
    Blend: AUG-CC-PVTZ-RI
    Molecular point group: c1

    Geometry (in Angstrom), charge = 0, multiplicity = 1:

       Center              X                  Y                   Z               Mass
    ------------   -----------------  -----------------  -----------------  -----------------
         O            0.197364466296     2.667867802576    -0.005544300785    15.994914619570
         C            0.229899466296     1.443381802576     0.007237699215    12.000000000000
         N            1.486916466296     0.761464802576    -0.002186300785    14.003074004430
         C            1.690575466296    -0.595994197424     0.004831699215    12.000000000000
         N            0.725033466296    -1.482361197424     0.014147699215    14.003074004430
         C           -0.503776533704    -0.885912197424    -0.000676300785    12.000000000000
         C           -0.832596533704     0.468325802576     0.018106699215    12.000000000000
         N           -2.196903533704     0.658208802576     0.016268699215    14.003074004430
         C           -2.687164533704    -0.571531197424     0.003366699215    12.000000000000
         N           -1.709270533704    -1.537464197424    -0.004445300785    14.003074004430
         N            3.010700466296    -1.011500197424    -0.076875300785    14.003074004430
         H            2.441668466296     1.507364902576    -0.121194400785     1.007825032230
         H           -3.739901533704    -0.822992197424    -0.000541300785     1.007825032230
         H           -1.831868533704    -2.543342197424    -0.018168300785     1.007825032230
         H            3.083832466296    -2.013176197424     0.070891699215     1.007825032230
         H            3.663175466296    -0.494090197424     0.503326699215     1.007825032230

  Basis Set: AUG-CC-PVTZ
    Blend: AUG-CC-PVTZ
  Basis Set: (AUG-CC-PVTZ AUX)
    Blend: AUG-CC-PVTZ-JKFIT
	 Reference Energy          =    -539.5576123240659854 [Eh]
	 Singles Energy            =      -0.0000000000000000 [Eh]
	 Same-Spin Energy          =      -0.5749315918263405 [Eh]
	 Opposite-Spin Energy      =      -1.6675491108773450 [Eh]
	 Correlation Energy        =      -2.2424807027036855 [Eh]
	 Total Energy              =    -541.8000930267696731 [Eh]

	 ================> DF-SCS-MP2 Energies <==================
	-----------------------------------------------------------
	 SCS Same-Spin Scale       =       0.3333333333333333 [-]
	 SCS Opposite-Spin Scale   =       1.2000000000000000 [-]
	 SCS Same-Spin Energy      =      -0.1916438639421135 [Eh]
	 SCS Opposite-Spin Energy  =      -2.0010589330528141 [Eh]
	 SCS Correlation Energy    =      -2.1927027969949275 [Eh]
	 SCS Total Energy          =    -541.7503151210609076 [Eh]
	-----------------------------------------------------------

  Dipole Moment: [D]
     X:     2.8230      Y:    -5.4881      Z:     0.8164     Total:     6.2253

*** Psi4 exiting successfully. Buy a developer a beer!
