                               Psi4 1.3.2 release

  ==> Input File <==

--------------------------------------------------------------------------
#psi4
#
memory 32 gb

molecule  {
0 1
  O        0.1763910     2.6970700    -0.0085580
  C        0.2089260     1.4725840     0.0042240
  N        1.4659430     0.7906670    -0.0052000
  C        1.6696020    -0.5667920     0.0018180
  N        0.6594543    -1.5374258     0.0115186
  C       -0.5247500    -0.8567100    -0.0036900
  C       -0.8535700     0.4975280     0.0150930
  N       -2.2178770     0.6874110     0.0132550
  C       -2.7081380    -0.5423290     0.0003530
  N       -1.7302440    -1.5082620    -0.0074590
  N        2.9897270    -0.9822980    -0.0798890
  H        2.2638450     1.4140280    -0.1046570
  H       -3.7608750    -0.7937900    -0.0035550
  H       -1.8528420    -2.5141400    -0.0211820
  H        3.0628590    -1.9839740     0.0678780
  H        3.6422020    -0.4648880     0.5003130
units angstrom
no_reorient  #important for SAPT in psi4, default
symmetry c1  #important for SAPT in psi4, default
}

set PROPERTIES_ORIGIN ["COM"]
properties('MP2/aug-cc-pvtz', properties = ['dipole'])
--------------------------------------------------------------------------

    Molecular point group: c1
  Charge       = 0
  Multiplicity = 1
  Basis Set: AUG-CC-PVTZ
    Blend: AUG-CC-PVTZ
  Basis Set: (AUG-CC-PVTZ AUX)
    Blend: AUG-CC-PVTZ-JKFIT

    Orbital Energies [Eh]
    ---------------------

    Doubly Occupied:

       1A    -20.525569     2A    -15.641829     3A    -15.629444
       4A    -15.621043     5A    -15.582838     6A    -15.562552
       7A    -11.415361     8A    -11.368962     9A    -11.324953
      10A    -11.311061    11A    -11.248899    12A     -1.392896
      13A     -1.357988    14A     -1.331253    15A     -1.226395
      16A     -1.212078    17A     -1.170995    18A     -1.025296
      19A     -0.904205    20A     -0.889401    21A     -0.841772
      22A     -0.791646    23A     -0.743259    24A     -0.728284
      25A     -0.703296    26A     -0.673856    27A     -0.652796
      28A     -0.622020    29A     -0.613584    30A     -0.600014
      31A     -0.593566    32A     -0.546110    33A     -0.505183
      34A     -0.463060    35A     -0.445600    36A     -0.435716
      37A     -0.433396    38A     -0.408910    39A     -0.296599

  @DF-RHF Final Energy:  -539.57344013844863

   => Energetics <=

    Nuclear Repulsion Energy =            591.5766861025474554
    One-Electron Energy =               -1908.6168841681246704
    Two-Electron Energy =                 777.4667579271285831
    Total Energy =                       -539.5734401384486318
  Basis Set: (AUG-CC-PVTZ AUX)
    Blend: AUG-CC-PVTZ-RI
    Molecular point group: c1

    Geometry (in Angstrom), charge = 0, multiplicity = 1:

       Center              X                  Y                   Z               Mass
    ------------   -----------------  -----------------  -----------------  -----------------
         O            0.202546176542     2.676497377565    -0.005710403190    15.994914619570
         C            0.235081176542     1.452011377565     0.007071596810    12.000000000000
         N            1.492098176542     0.770094377565    -0.002352403190    14.003074004430
         C            1.695757176542    -0.587364622435     0.004665596810    12.000000000000
         N            0.685609476542    -1.557998422435     0.014366196810    14.003074004430
         C           -0.498594823458    -0.877282622435    -0.000842403190    12.000000000000
         C           -0.827414823458     0.476955377565     0.017940596810    12.000000000000
         N           -2.191721823458     0.666838377565     0.016102596810    14.003074004430
         C           -2.681982823458    -0.562901622435     0.003200596810    12.000000000000
         N           -1.704088823458    -1.528834622435    -0.004611403190    14.003074004430
         N            3.015882176542    -1.002870622435    -0.077041403190    14.003074004430
         H            2.290000176542     1.393455377565    -0.101809403190     1.007825032230
         H           -3.734719823458    -0.814362622435    -0.000707403190     1.007825032230
         H           -1.826686823458    -2.534712622435    -0.018334403190     1.007825032230
         H            3.089014176542    -2.004546622435     0.070725596810     1.007825032230
         H            3.668357176542    -0.485460622435     0.503160596810     1.007825032230

  Basis Set: AUG-CC-PVTZ
    Blend: AUG-CC-PVTZ
  Basis Set: (AUG-CC-PVTZ AUX)
    Blend: AUG-CC-PVTZ-JKFIT
	 Reference Energy          =    -539.5734401384486318 [Eh]
	 Singles Energy            =      -0.0000000000000000 [Eh]
	 Same-Spin Energy          =      -0.5741597754886569 [Eh]
	 Opposite-Spin Energy      =      -1.6662733080924104 [Eh]
	 Correlation Energy        =      -2.2404330835810673 [Eh]
	 Total Energy              =    -541.8138732220296561 [Eh]

	 ================> DF-SCS-MP2 Energies <==================
	-----------------------------------------------------------
	 SCS Same-Spin Scale       =       0.3333333333333333 [-]
	 SCS Opposite-Spin Scale   =       1.2000000000000000 [-]
	 SCS Same-Spin Energy      =      -0.1913865918295523 [Eh]
	 SCS Opposite-Spin Energy  =      -1.9995279697108923 [Eh]
	 SCS Correlation Energy    =      -2.1909145615404446 [Eh]
	 SCS Total Energy          =    -541.7643546999890987 [Eh]
	-----------------------------------------------------------

  Dipole Moment: [D]
     X:     3.0380      Y:    -5.4521      Z:     0.8346     Total:     6.2969

*** Psi4 exiting successfully. Buy a developer a beer!
