                               Psi4 1.4a3.dev225

  ==> Input File <==

--------------------------------------------------------------------------
#psi4
#
memory 32 gb

molecule  {
0 1
  O        0.1763800     2.6970850    -0.0086780
  C        0.2088860     1.4725900     0.0042210
  N        1.4659360     0.7906750    -0.0050880
  C        1.6696170    -0.5667500     0.0018210
  N        0.7040680    -1.4531450     0.0111020
  C       -0.5247290    -0.8567090    -0.0037110
  C       -0.8583041     0.5169754     0.0154917
  N       -2.2178950     0.6873840     0.0133320
  C       -2.7081200    -0.5423560     0.0003580
  N       -1.7302140    -1.5082770    -0.0075250
  N        2.9897250    -0.9823190    -0.0798750
  H        2.2637990     1.4140370    -0.1048620
  H       -3.7608500    -0.7938460    -0.0035590
  H       -1.8527810    -2.5141570    -0.0214260
  H        3.0628080    -1.9839860     0.0679760
  H        3.6422460    -0.4648460     0.5002060
units angstrom
no_reorient  #important for SAPT in psi4, default
symmetry c1  #important for SAPT in psi4, default
}

set PROPERTIES_ORIGIN ["COM"]
properties('MP2/aug-cc-pvtz', properties = ['dipole'])
--------------------------------------------------------------------------

    Molecular point group: c1
  Charge       = 0
  Multiplicity = 1
  Basis Set: AUG-CC-PVTZ
    Blend: AUG-CC-PVTZ
  Basis Set: (AUG-CC-PVTZ AUX)
    Blend: AUG-CC-PVTZ-JKFIT

    Orbital Energies [Eh]
    ---------------------

    Doubly Occupied:

       1A    -20.522246     2A    -15.637629     3A    -15.632294
       4A    -15.612714     5A    -15.574338     6A    -15.565513
       7A    -11.399022     8A    -11.366385     9A    -11.330350
      10A    -11.314165    11A    -11.252457    12A     -1.392984
      13A     -1.360268    14A     -1.335934    15A     -1.220817
      16A     -1.218905    17A     -1.179898    18A     -1.030036
      19A     -0.907833    20A     -0.885655    21A     -0.844714
      22A     -0.799357    23A     -0.741189    24A     -0.731411
      25A     -0.699727    26A     -0.671935    27A     -0.656271
      28A     -0.634832    29A     -0.613013    30A     -0.603991
      31A     -0.596926    32A     -0.548121    33A     -0.500268
      34A     -0.462943    35A     -0.442833    36A     -0.432612
      37A     -0.430794    38A     -0.413121    39A     -0.300506

  @DF-RHF Final Energy:  -539.58652669040794

   => Energetics <=

    Nuclear Repulsion Energy =            593.4770748202552113
    One-Electron Energy =               -1912.3991871373657432
    Two-Electron Energy =                 779.3355856267025956
    Total Energy =                       -539.5865266904079363
  Basis Set: (AUG-CC-PVTZ AUX)
    Blend: AUG-CC-PVTZ-RI
    Molecular point group: c1

    Geometry (in Angstrom), charge = 0, multiplicity = 1:

       Center              X                  Y                   Z               Mass
    ------------   -----------------  -----------------  -----------------  -----------------
         O            0.198774903219     2.667156110831    -0.005819096530    15.994914619570
         C            0.231280903219     1.442661110831     0.007079903470    12.000000000000
         N            1.488330903219     0.760746110831    -0.002229096530    14.003074004430
         C            1.692011903219    -0.596678889169     0.004679903470    12.000000000000
         N            0.726462903219    -1.483073889169     0.013960903470    14.003074004430
         C           -0.502334096781    -0.886637889169    -0.000852096530    12.000000000000
         C           -0.835909196781     0.487046510831     0.018350603470    12.000000000000
         N           -2.195500096781     0.657455110831     0.016190903470    14.003074004430
         C           -2.685725096781    -0.572284889169     0.003216903470    12.000000000000
         N           -1.707819096781    -1.538205889169    -0.004666096530    14.003074004430
         N            3.012119903219    -1.012247889169    -0.077016096530    14.003074004430
         H            2.286193903219     1.384108110831    -0.102003096530     1.007825032230
         H           -3.738455096781    -0.823774889169    -0.000700096530     1.007825032230
         H           -1.830386096781    -2.544085889169    -0.018567096530     1.007825032230
         H            3.085202903219    -2.013914889169     0.070834903470     1.007825032230
         H            3.664640903219    -0.494774889169     0.503064903470     1.007825032230

  Basis Set: AUG-CC-PVTZ
    Blend: AUG-CC-PVTZ
  Basis Set: (AUG-CC-PVTZ AUX)
    Blend: AUG-CC-PVTZ-JKFIT
	 Reference Energy          =    -539.5865266904079363 [Eh]
	 Singles Energy            =      -0.0000000000000000 [Eh]
	 Same-Spin Energy          =      -0.5733837501971990 [Eh]
	 Opposite-Spin Energy      =      -1.6634800326608947 [Eh]
	 Correlation Energy        =      -2.2368637828580935 [Eh]
	 Total Energy              =    -541.8233904732660449 [Eh]

	 ================> DF-SCS-MP2 Energies <==================
	-----------------------------------------------------------
	 SCS Same-Spin Scale       =       0.3333333333333333 [-]
	 SCS Opposite-Spin Scale   =       1.2000000000000000 [-]
	 SCS Same-Spin Energy      =      -0.1911279167323996 [Eh]
	 SCS Opposite-Spin Energy  =      -1.9961760391930736 [Eh]
	 SCS Correlation Energy    =      -2.1873039559254734 [Eh]
	 SCS Total Energy          =    -541.7738306463334084 [Eh]
	-----------------------------------------------------------

  Dipole Moment: [D]
     X:     2.6491      Y:    -5.6809      Z:     0.8437     Total:     6.3248

*** Psi4 exiting successfully. Buy a developer a beer!
