                               Psi4 1.3.2 release

  ==> Input File <==

--------------------------------------------------------------------------
#psi4
#
memory 32 gb

molecule  {
0 1
  O        0.1763910     2.6970700    -0.0085580
  C        0.1742608     1.5090696     0.0052145
  N        1.4659430     0.7906670    -0.0052000
  C        1.6696020    -0.5667920     0.0018180
  N        0.7040600    -1.4531590     0.0111340
  C       -0.5247500    -0.8567100    -0.0036900
  C       -0.8535700     0.4975280     0.0150930
  N       -2.2178770     0.6874110     0.0132550
  C       -2.7081380    -0.5423290     0.0003530
  N       -1.7302440    -1.5082620    -0.0074590
  N        2.9897270    -0.9822980    -0.0798890
  H        2.2638450     1.4140280    -0.1046570
  H       -3.7608750    -0.7937900    -0.0035550
  H       -1.8528420    -2.5141400    -0.0211820
  H        3.0628590    -1.9839740     0.0678780
  H        3.6422020    -0.4648880     0.5003130
units angstrom
no_reorient  #important for SAPT in psi4, default
symmetry c1  #important for SAPT in psi4, default
}

set PROPERTIES_ORIGIN ["COM"]
properties('MP2/aug-cc-pvtz', properties = ['dipole'])
--------------------------------------------------------------------------

    Molecular point group: c1
  Charge       = 0
  Multiplicity = 1
  Basis Set: AUG-CC-PVTZ
    Blend: AUG-CC-PVTZ
  Basis Set: (AUG-CC-PVTZ AUX)
    Blend: AUG-CC-PVTZ-JKFIT

    Orbital Energies [Eh]
    ---------------------

    Doubly Occupied:

       1A    -20.534875     2A    -15.635521     3A    -15.622817
       4A    -15.608657     5A    -15.568792     6A    -15.564254
       7A    -11.394199     8A    -11.369871     9A    -11.327673
      10A    -11.312845    11A    -11.250328    12A     -1.410792
      13A     -1.366214    14A     -1.333764    15A     -1.215774
      16A     -1.211002    17A     -1.176210    18A     -1.029330
      19A     -0.903291    20A     -0.877007    21A     -0.844521
      22A     -0.793641    23A     -0.732471    24A     -0.727959
      25A     -0.700497    26A     -0.673346    27A     -0.653110
      28A     -0.631400    29A     -0.630385    30A     -0.600166
      31A     -0.593618    32A     -0.557293    33A     -0.497226
      34A     -0.460571    35A     -0.446402    36A     -0.435637
      37A     -0.433866    38A     -0.410923    39A     -0.302021

  @DF-RHF Final Energy:  -539.58684002556151

   => Energetics <=

    Nuclear Repulsion Energy =            593.4031728045534919
    One-Electron Energy =               -1912.3034890964090664
    Two-Electron Energy =                 779.3134762662941739
    Total Energy =                       -539.5868400255615143
  Basis Set: (AUG-CC-PVTZ AUX)
    Blend: AUG-CC-PVTZ-RI
    Molecular point group: c1

    Geometry (in Angstrom), charge = 0, multiplicity = 1:

       Center              X                  Y                   Z               Mass
    ------------   -----------------  -----------------  -----------------  -----------------
         O            0.201164942955     2.665786832992    -0.005753438233    15.994914619570
         C            0.199034742955     1.477786432992     0.008019061767    12.000000000000
         N            1.490716942955     0.759383832992    -0.002395438233    14.003074004430
         C            1.694375942955    -0.598075167008     0.004622561767    12.000000000000
         N            0.728833942955    -1.484442167008     0.013938561767    14.003074004430
         C           -0.499976057045    -0.887993167008    -0.000885438233    12.000000000000
         C           -0.828796057045     0.466244832992     0.017897561767    12.000000000000
         N           -2.193103057045     0.656127832992     0.016059561767    14.003074004430
         C           -2.683364057045    -0.573612167008     0.003157561767    12.000000000000
         N           -1.705470057045    -1.539545167008    -0.004654438233    14.003074004430
         N            3.014500942955    -1.013581167008    -0.077084438233    14.003074004430
         H            2.288618942955     1.382744832992    -0.101852438233     1.007825032230
         H           -3.736101057045    -0.825073167008    -0.000750438233     1.007825032230
         H           -1.828068057045    -2.545423167008    -0.018377438233     1.007825032230
         H            3.087632942955    -2.015257167008     0.070682561767     1.007825032230
         H            3.666975942955    -0.496171167008     0.503117561767     1.007825032230

  Basis Set: AUG-CC-PVTZ
    Blend: AUG-CC-PVTZ
  Basis Set: (AUG-CC-PVTZ AUX)
    Blend: AUG-CC-PVTZ-JKFIT
	 Reference Energy          =    -539.5868400255615143 [Eh]
	 Singles Energy            =      -0.0000000000000000 [Eh]
	 Same-Spin Energy          =      -0.5724026169532945 [Eh]
	 Opposite-Spin Energy      =      -1.6620849973152185 [Eh]
	 Correlation Energy        =      -2.2344876142685131 [Eh]
	 Total Energy              =    -541.8213276398299740 [Eh]

	 ================> DF-SCS-MP2 Energies <==================
	-----------------------------------------------------------
	 SCS Same-Spin Scale       =       0.3333333333333333 [-]
	 SCS Opposite-Spin Scale   =       1.2000000000000000 [-]
	 SCS Same-Spin Energy      =      -0.1908008723177648 [Eh]
	 SCS Opposite-Spin Energy  =      -1.9945019967782622 [Eh]
	 SCS Correlation Energy    =      -2.1853028690960272 [Eh]
	 SCS Total Energy          =    -541.7721428946575770 [Eh]
	-----------------------------------------------------------

  Dipole Moment: [D]
     X:     2.4806      Y:    -5.2179      Z:     0.8423     Total:     5.8386

*** Psi4 exiting successfully. Buy a developer a beer!
