                               Psi4 1.3.2 release

  ==> Input File <==

--------------------------------------------------------------------------
#psi4
#
memory 32 gb

molecule  {
0 1
  O        0.1763910     2.6970700    -0.0085580
  C        0.2089260     1.4725840     0.0042240
  N        1.4659430     0.7906670    -0.0052000
  C        1.6696020    -0.5667920     0.0018180
  N        0.7040600    -1.4531590     0.0111340
  C       -0.5247500    -0.8567100    -0.0036900
  C       -0.8535700     0.4975280     0.0150930
  N       -2.2178770     0.6874110     0.0132550
  C       -2.7081380    -0.5423290     0.0003530
  N       -1.8365716    -1.6051823    -0.0085360
  N        2.9897270    -0.9822980    -0.0798890
  H        2.2638450     1.4140280    -0.1046570
  H       -3.7608750    -0.7937900    -0.0035550
  H       -1.8528420    -2.5141400    -0.0211820
  H        3.0628590    -1.9839740     0.0678780
  H        3.6422020    -0.4648880     0.5003130
units angstrom
no_reorient  #important for SAPT in psi4, default
symmetry c1  #important for SAPT in psi4, default
}

set PROPERTIES_ORIGIN ["COM"]
properties('MP2/aug-cc-pvtz', properties = ['dipole'])
--------------------------------------------------------------------------

    Molecular point group: c1
  Charge       = 0
  Multiplicity = 1
  Basis Set: AUG-CC-PVTZ
    Blend: AUG-CC-PVTZ
  Basis Set: (AUG-CC-PVTZ AUX)
    Blend: AUG-CC-PVTZ-JKFIT

    Orbital Energies [Eh]
    ---------------------

    Doubly Occupied:

       1A    -20.528781     2A    -15.635842     3A    -15.627465
       4A    -15.613497     5A    -15.577307     6A    -15.564872
       7A    -11.400002     8A    -11.372871     9A    -11.339651
      10A    -11.324111    11A    -11.261244    12A     -1.395161
      13A     -1.350955    14A     -1.328436    15A     -1.223143
      16A     -1.218703    17A     -1.186800    18A     -1.029440
      19A     -0.899908    20A     -0.890165    21A     -0.871227
      22A     -0.796593    23A     -0.740528    24A     -0.724309
      25A     -0.707560    26A     -0.684541    27A     -0.651704
      28A     -0.628879    29A     -0.613374    30A     -0.591507
      31A     -0.580784    32A     -0.549548    33A     -0.504126
      34A     -0.464526    35A     -0.446417    36A     -0.435683
      37A     -0.435269    38A     -0.418647    39A     -0.302345

  @DF-RHF Final Energy:  -539.55636033335054

   => Energetics <=

    Nuclear Repulsion Energy =            590.1621354263128296
    One-Electron Energy =               -1905.6051431615021556
    Two-Electron Energy =                 775.8866474018388999
    Total Energy =                       -539.5563603333505398
  Basis Set: (AUG-CC-PVTZ AUX)
    Blend: AUG-CC-PVTZ-RI
    Molecular point group: c1

    Geometry (in Angstrom), charge = 0, multiplicity = 1:

       Center              X                  Y                   Z               Mass
    ------------   -----------------  -----------------  -----------------  -----------------
         O            0.208268121001     2.677670423505    -0.005574905190    15.994914619570
         C            0.240803121001     1.453184423505     0.007207094810    12.000000000000
         N            1.497820121001     0.771267423505    -0.002216905190    14.003074004430
         C            1.701479121001    -0.586191576495     0.004801094810    12.000000000000
         N            0.735937121001    -1.472558576495     0.014117094810    14.003074004430
         C           -0.492872878999    -0.876109576495    -0.000706905190    12.000000000000
         C           -0.821692878999     0.478128423505     0.018076094810    12.000000000000
         N           -2.185999878999     0.668011423505     0.016238094810    14.003074004430
         C           -2.676260878999    -0.561728576495     0.003336094810    12.000000000000
         N           -1.804694478999    -1.624581876495    -0.005552905190    14.003074004430
         N            3.021604121001    -1.001697576495    -0.076905905190    14.003074004430
         H            2.295722121001     1.394628423505    -0.101673905190     1.007825032230
         H           -3.728997878999    -0.813189576495    -0.000571905190     1.007825032230
         H           -1.820964878999    -2.533539576495    -0.018198905190     1.007825032230
         H            3.094736121001    -2.003373576495     0.070861094810     1.007825032230
         H            3.674079121001    -0.484287576495     0.503296094810     1.007825032230

  Basis Set: AUG-CC-PVTZ
    Blend: AUG-CC-PVTZ
  Basis Set: (AUG-CC-PVTZ AUX)
    Blend: AUG-CC-PVTZ-JKFIT
	 Reference Energy          =    -539.5563603333505398 [Eh]
	 Singles Energy            =      -0.0000000000000000 [Eh]
	 Same-Spin Energy          =      -0.5730071527342067 [Eh]
	 Opposite-Spin Energy      =      -1.6656794145238565 [Eh]
	 Correlation Energy        =      -2.2386865672580631 [Eh]
	 Total Energy              =    -541.7950469006085541 [Eh]

	 ================> DF-SCS-MP2 Energies <==================
	-----------------------------------------------------------
	 SCS Same-Spin Scale       =       0.3333333333333333 [-]
	 SCS Opposite-Spin Scale   =       1.2000000000000000 [-]
	 SCS Same-Spin Energy      =      -0.1910023842447355 [Eh]
	 SCS Opposite-Spin Energy  =      -1.9988152974286277 [Eh]
	 SCS Correlation Energy    =      -2.1898176816733632 [Eh]
	 SCS Total Energy          =    -541.7461780150239292 [Eh]
	-----------------------------------------------------------

  Dipole Moment: [D]
     X:     2.9790      Y:    -5.3205      Z:     0.8492     Total:     6.1566

*** Psi4 exiting successfully. Buy a developer a beer!
