                               Psi4 1.4a3.dev225

  ==> Input File <==

--------------------------------------------------------------------------
#psi4
#
memory 32 gb

molecule  {
0 1
  O        0.1763800     2.6970850    -0.0086780
  C        0.2088860     1.4725900     0.0042210
  N        1.4659360     0.7906750    -0.0050880
  C        1.6696170    -0.5667500     0.0018210
  N        0.7040680    -1.4531450     0.0111020
  C       -0.5247290    -0.8567090    -0.0037110
  C       -0.8417874     0.4489585     0.0145409
  N       -2.2178950     0.6873840     0.0133320
  C       -2.7081200    -0.5423560     0.0003580
  N       -1.7302140    -1.5082770    -0.0075250
  N        2.9897250    -0.9823190    -0.0798750
  H        2.2637990     1.4140370    -0.1048620
  H       -3.7608500    -0.7938460    -0.0035590
  H       -1.8527810    -2.5141570    -0.0214260
  H        3.0628080    -1.9839860     0.0679760
  H        3.6422460    -0.4648460     0.5002060
units angstrom
no_reorient  #important for SAPT in psi4, default
symmetry c1  #important for SAPT in psi4, default
}

set PROPERTIES_ORIGIN ["COM"]
properties('MP2/aug-cc-pvtz', properties = ['dipole'])
--------------------------------------------------------------------------

    Molecular point group: c1
  Charge       = 0
  Multiplicity = 1
  Basis Set: AUG-CC-PVTZ
    Blend: AUG-CC-PVTZ
  Basis Set: (AUG-CC-PVTZ AUX)
    Blend: AUG-CC-PVTZ-JKFIT

    Orbital Energies [Eh]
    ---------------------

    Doubly Occupied:

       1A    -20.529782     2A    -15.632608     3A    -15.631260
       4A    -15.611617     5A    -15.571707     6A    -15.564895
       7A    -11.397631     8A    -11.372162     9A    -11.320056
      10A    -11.314776    11A    -11.248991    12A     -1.395122
      13A     -1.362857    14A     -1.335727    15A     -1.220780
      16A     -1.216961    17A     -1.173969    18A     -1.035563
      19A     -0.904899    20A     -0.884231    21A     -0.845443
      22A     -0.798816    23A     -0.738264    24A     -0.727728
      25A     -0.703436    26A     -0.675547    27A     -0.656794
      28A     -0.631935    29A     -0.618213    30A     -0.598268
      31A     -0.592281    32A     -0.547608    33A     -0.498561
      34A     -0.461886    35A     -0.443899    36A     -0.438104
      37A     -0.432972    38A     -0.409877    39A     -0.309346

  @DF-RHF Final Energy:  -539.58557597746790

   => Energetics <=

    Nuclear Repulsion Energy =            594.1162990409898157
    One-Electron Energy =               -1913.6946036085960259
    Two-Electron Energy =                 779.9927285901383129
    Total Energy =                       -539.5855759774678972
  Basis Set: (AUG-CC-PVTZ AUX)
    Blend: AUG-CC-PVTZ-RI
    Molecular point group: c1

    Geometry (in Angstrom), charge = 0, multiplicity = 1:

       Center              X                  Y                   Z               Mass
    ------------   -----------------  -----------------  -----------------  -----------------
         O            0.197462747149     2.672559659253    -0.005743560981    15.994914619570
         C            0.229968747149     1.448064659253     0.007155439019    12.000000000000
         N            1.487018747149     0.766149659253    -0.002153560981    14.003074004430
         C            1.690699747149    -0.591275340747     0.004755439019    12.000000000000
         N            0.725150747149    -1.477670340747     0.014036439019    14.003074004430
         C           -0.503646252851    -0.881234340747    -0.000776560981    12.000000000000
         C           -0.820704652851     0.424433159253     0.017475339019    12.000000000000
         N           -2.196812252851     0.662858659253     0.016266439019    14.003074004430
         C           -2.687037252851    -0.566881340747     0.003292439019    12.000000000000
         N           -1.709131252851    -1.532802340747    -0.004590560981    14.003074004430
         N            3.010807747149    -1.006844340747    -0.076940560981    14.003074004430
         H            2.284881747149     1.389511659253    -0.101927560981     1.007825032230
         H           -3.739767252851    -0.818371340747    -0.000624560981     1.007825032230
         H           -1.831698252851    -2.538682340747    -0.018491560981     1.007825032230
         H            3.083890747149    -2.008511340747     0.070910439019     1.007825032230
         H            3.663328747149    -0.489371340747     0.503140439019     1.007825032230

  Basis Set: AUG-CC-PVTZ
    Blend: AUG-CC-PVTZ
  Basis Set: (AUG-CC-PVTZ AUX)
    Blend: AUG-CC-PVTZ-JKFIT
	 Reference Energy          =    -539.5855759774678972 [Eh]
	 Singles Energy            =      -0.0000000000000000 [Eh]
	 Same-Spin Energy          =      -0.5722181230665404 [Eh]
	 Opposite-Spin Energy      =      -1.6626624802285850 [Eh]
	 Correlation Energy        =      -2.2348806032951254 [Eh]
	 Total Energy              =    -541.8204565807629933 [Eh]

	 ================> DF-SCS-MP2 Energies <==================
	-----------------------------------------------------------
	 SCS Same-Spin Scale       =       0.3333333333333333 [-]
	 SCS Opposite-Spin Scale   =       1.2000000000000000 [-]
	 SCS Same-Spin Energy      =      -0.1907393743555135 [Eh]
	 SCS Opposite-Spin Energy  =      -1.9951949762743020 [Eh]
	 SCS Correlation Energy    =      -2.1859343506298154 [Eh]
	 SCS Total Energy          =    -541.7715103280977473 [Eh]
	-----------------------------------------------------------

  Dipole Moment: [D]
     X:     2.7176      Y:    -5.5085      Z:     0.8427     Total:     6.1999

*** Psi4 exiting successfully. Buy a developer a beer!
