                               Psi4 1.3.2 release

  ==> Input File <==

--------------------------------------------------------------------------
#psi4
#
memory 32 gb

molecule  {
0 1
  O        0.1763910     2.6970700    -0.0085580
  C        0.1917460     1.4909775     0.0040256
  N        1.4659430     0.7906670    -0.0052000
  C        1.6696020    -0.5667920     0.0018180
  N        0.7040600    -1.4531590     0.0111340
  C       -0.5247500    -0.8567100    -0.0036900
  C       -0.8535700     0.4975280     0.0150930
  N       -2.2178770     0.6874110     0.0132550
  C       -2.7081380    -0.5423290     0.0003530
  N       -1.7302440    -1.5082620    -0.0074590
  N        2.9897270    -0.9822980    -0.0798890
  H        2.2638450     1.4140280    -0.1046570
  H       -3.7608750    -0.7937900    -0.0035550
  H       -1.8528420    -2.5141400    -0.0211820
  H        3.0628590    -1.9839740     0.0678780
  H        3.6422020    -0.4648880     0.5003130
units angstrom
no_reorient  #important for SAPT in psi4, default
symmetry c1  #important for SAPT in psi4, default
}

set PROPERTIES_ORIGIN ["COM"]
properties('MP2/aug-cc-pvtz', properties = ['dipole'])
--------------------------------------------------------------------------

    Molecular point group: c1
  Charge       = 0
  Multiplicity = 1
  Basis Set: AUG-CC-PVTZ
    Blend: AUG-CC-PVTZ
  Basis Set: (AUG-CC-PVTZ AUX)
    Blend: AUG-CC-PVTZ-JKFIT

    Orbital Energies [Eh]
    ---------------------

    Doubly Occupied:

       1A    -20.529631     2A    -15.635859     3A    -15.627548
       4A    -15.610558     5A    -15.571194     6A    -15.564754
       7A    -11.396460     8A    -11.368958     9A    -11.327603
      10A    -11.313554    11A    -11.250806    12A     -1.400301
      13A     -1.364593    14A     -1.335363    15A     -1.217751
      16A     -1.215292    17A     -1.177295    18A     -1.030327
      19A     -0.904938    20A     -0.881126    21A     -0.844737
      22A     -0.796439    23A     -0.736260    24A     -0.729182
      25A     -0.700395    26A     -0.673326    27A     -0.654603
      28A     -0.632463    29A     -0.622628    30A     -0.600895
      31A     -0.595091    32A     -0.552232    33A     -0.498505
      34A     -0.461652    35A     -0.444767    36A     -0.434758
      37A     -0.433545    38A     -0.411657    39A     -0.302463

  @DF-RHF Final Energy:  -539.58795870213919

   => Energetics <=

    Nuclear Repulsion Energy =            593.5225768882431794
    One-Electron Energy =               -1912.5220566283189783
    Two-Electron Energy =                 779.4115210379367227
    Total Energy =                       -539.5879587021391899
  Basis Set: (AUG-CC-PVTZ AUX)
    Blend: AUG-CC-PVTZ-RI
    Molecular point group: c1

    Geometry (in Angstrom), charge = 0, multiplicity = 1:

       Center              X                  Y                   Z               Mass
    ------------   -----------------  -----------------  -----------------  -----------------
         O            0.199775845174     2.667224145460    -0.005658987020    15.994914619570
         C            0.215130845174     1.461131645460     0.006924612980    12.000000000000
         N            1.489327845174     0.760821145460    -0.002300987020    14.003074004430
         C            1.692986845174    -0.596637854540     0.004717012980    12.000000000000
         N            0.727444845174    -1.483004854540     0.014033012980    14.003074004430
         C           -0.501365154826    -0.886555854540    -0.000790987020    12.000000000000
         C           -0.830185154826     0.467682145460     0.017992012980    12.000000000000
         N           -2.194492154826     0.657565145460     0.016154012980    14.003074004430
         C           -2.684753154826    -0.572174854540     0.003252012980    12.000000000000
         N           -1.706859154826    -1.538107854540    -0.004559987020    14.003074004430
         N            3.013111845174    -1.012143854540    -0.076989987020    14.003074004430
         H            2.287229845174     1.384182145460    -0.101757987020     1.007825032230
         H           -3.737490154826    -0.823635854540    -0.000655987020     1.007825032230
         H           -1.829457154826    -2.543985854540    -0.018282987020     1.007825032230
         H            3.086243845174    -2.013819854540     0.070777012980     1.007825032230
         H            3.665586845174    -0.494733854540     0.503212012980     1.007825032230

  Basis Set: AUG-CC-PVTZ
    Blend: AUG-CC-PVTZ
  Basis Set: (AUG-CC-PVTZ AUX)
    Blend: AUG-CC-PVTZ-JKFIT
	 Reference Energy          =    -539.5879587021391899 [Eh]
	 Singles Energy            =      -0.0000000000000000 [Eh]
	 Same-Spin Energy          =      -0.5726984340492012 [Eh]
	 Opposite-Spin Energy      =      -1.6626124319865783 [Eh]
	 Correlation Energy        =      -2.2353108660357792 [Eh]
	 Total Energy              =    -541.8232695681749647 [Eh]

	 ================> DF-SCS-MP2 Energies <==================
	-----------------------------------------------------------
	 SCS Same-Spin Scale       =       0.3333333333333333 [-]
	 SCS Opposite-Spin Scale   =       1.2000000000000000 [-]
	 SCS Same-Spin Energy      =      -0.1908994780164004 [Eh]
	 SCS Opposite-Spin Energy  =      -1.9951349183838938 [Eh]
	 SCS Correlation Energy    =      -2.1860343964002942 [Eh]
	 SCS Total Energy          =    -541.7739930985394494 [Eh]
	-----------------------------------------------------------

  Dipole Moment: [D]
     X:     2.5777      Y:    -5.4279      Z:     0.8423     Total:     6.0676

*** Psi4 exiting successfully. Buy a developer a beer!
