                               Psi4 1.3.2 release

  ==> Input File <==

--------------------------------------------------------------------------
#psi4
#
memory 32 gb

molecule  {
0 1
  O        0.1763910     2.6970700    -0.0085580
  C        0.2089260     1.4725840     0.0042240
  N        1.3877817     0.6630052    -0.0042958
  C        1.6696020    -0.5667920     0.0018180
  N        0.7040600    -1.4531590     0.0111340
  C       -0.5247500    -0.8567100    -0.0036900
  C       -0.8535700     0.4975280     0.0150930
  N       -2.2178770     0.6874110     0.0132550
  C       -2.7081380    -0.5423290     0.0003530
  N       -1.7302440    -1.5082620    -0.0074590
  N        2.9897270    -0.9822980    -0.0798890
  H        2.2638450     1.4140280    -0.1046570
  H       -3.7608750    -0.7937900    -0.0035550
  H       -1.8528420    -2.5141400    -0.0211820
  H        3.0628590    -1.9839740     0.0678780
  H        3.6422020    -0.4648880     0.5003130
units angstrom
no_reorient  #important for SAPT in psi4, default
symmetry c1  #important for SAPT in psi4, default
}

set PROPERTIES_ORIGIN ["COM"]
properties('MP2/aug-cc-pvtz', properties = ['dipole'])
--------------------------------------------------------------------------

    Molecular point group: c1
  Charge       = 0
  Multiplicity = 1
  Basis Set: AUG-CC-PVTZ
    Blend: AUG-CC-PVTZ
  Basis Set: (AUG-CC-PVTZ AUX)
    Blend: AUG-CC-PVTZ-JKFIT

    Orbital Energies [Eh]
    ---------------------

    Doubly Occupied:

       1A    -20.534984     2A    -15.643697     3A    -15.632911
       4A    -15.610136     5A    -15.562059     6A    -15.561576
       7A    -11.384937     8A    -11.376047     9A    -11.324666
      10A    -11.313556    11A    -11.248450    12A     -1.406736
      13A     -1.364202    14A     -1.348282    15A     -1.227619
      16A     -1.212561    17A     -1.173935    18A     -1.039198
      19A     -0.923012    20A     -0.879800    21A     -0.842812
      22A     -0.801294    23A     -0.738868    24A     -0.717282
      25A     -0.694821    26A     -0.678026    27A     -0.665513
      28A     -0.625041    29A     -0.619935    30A     -0.602317
      31A     -0.587017    32A     -0.548869    33A     -0.491501
      34A     -0.465106    35A     -0.449100    36A     -0.435657
      37A     -0.429944    38A     -0.408533    39A     -0.301106

  @DF-RHF Final Energy:  -539.55196198226372

   => Energetics <=

    Nuclear Repulsion Energy =            596.6617937829601033
    One-Electron Energy =               -1918.6852951105167904
    Two-Electron Energy =                 782.4715393452929675
    Total Energy =                       -539.5519619822637196
  Basis Set: (AUG-CC-PVTZ AUX)
    Blend: AUG-CC-PVTZ-RI
    Molecular point group: c1

    Geometry (in Angstrom), charge = 0, multiplicity = 1:

       Center              X                  Y                   Z               Mass
    ------------   -----------------  -----------------  -----------------  -----------------
         O            0.205656956986     2.680520322092    -0.005758572841    15.994914619570
         C            0.238191956986     1.456034322092     0.007023427159    12.000000000000
         N            1.417047656986     0.646455522092    -0.001496372841    14.003074004430
         C            1.698867956986    -0.583341677908     0.004617427159    12.000000000000
         N            0.733325956986    -1.469708677908     0.013933427159    14.003074004430
         C           -0.495484043014    -0.873259677908    -0.000890572841    12.000000000000
         C           -0.824304043014     0.480978322092     0.017892427159    12.000000000000
         N           -2.188611043014     0.670861322092     0.016054427159    14.003074004430
         C           -2.678872043014    -0.558878677908     0.003152427159    12.000000000000
         N           -1.700978043014    -1.524811677908    -0.004659572841    14.003074004430
         N            3.018992956986    -0.998847677908    -0.077089572841    14.003074004430
         H            2.293110956986     1.397478322092    -0.101857572841     1.007825032230
         H           -3.731609043014    -0.810339677908    -0.000755572841     1.007825032230
         H           -1.823576043014    -2.530689677908    -0.018382572841     1.007825032230
         H            3.092124956986    -2.000523677908     0.070677427159     1.007825032230
         H            3.671467956986    -0.481437677908     0.503112427159     1.007825032230

  Basis Set: AUG-CC-PVTZ
    Blend: AUG-CC-PVTZ
  Basis Set: (AUG-CC-PVTZ AUX)
    Blend: AUG-CC-PVTZ-JKFIT
	 Reference Energy          =    -539.5519619822637196 [Eh]
	 Singles Energy            =      -0.0000000000000000 [Eh]
	 Same-Spin Energy          =      -0.5758820438546215 [Eh]
	 Opposite-Spin Energy      =      -1.6670447898405361 [Eh]
	 Correlation Energy        =      -2.2429268336951576 [Eh]
	 Total Energy              =    -541.7948888159588705 [Eh]

	 ================> DF-SCS-MP2 Energies <==================
	-----------------------------------------------------------
	 SCS Same-Spin Scale       =       0.3333333333333333 [-]
	 SCS Opposite-Spin Scale   =       1.2000000000000000 [-]
	 SCS Same-Spin Energy      =      -0.1919606812848738 [Eh]
	 SCS Opposite-Spin Energy  =      -2.0004537478086433 [Eh]
	 SCS Correlation Energy    =      -2.1924144290935170 [Eh]
	 SCS Total Energy          =    -541.7443764113572797 [Eh]
	-----------------------------------------------------------

  Dipole Moment: [D]
     X:     2.7288      Y:    -5.2412      Z:     0.8640     Total:     5.9719

*** Psi4 exiting successfully. Buy a developer a beer!
