                               Psi4 1.3.2 release

  ==> Input File <==

--------------------------------------------------------------------------
#psi4
#
memory 32 gb

molecule  {
0 1
  O        0.1763910     2.6970700    -0.0085580
  C        0.1917526     1.4909781     0.0047177
  N        1.4659430     0.7906670    -0.0052000
  C        1.6696020    -0.5667920     0.0018180
  N        0.7040600    -1.4531590     0.0111340
  C       -0.5247500    -0.8567100    -0.0036900
  C       -0.8535700     0.4975280     0.0150930
  N       -2.2178770     0.6874110     0.0132550
  C       -2.7081380    -0.5423290     0.0003530
  N       -1.7302440    -1.5082620    -0.0074590
  N        2.9897270    -0.9822980    -0.0798890
  H        2.2638450     1.4140280    -0.1046570
  H       -3.7608750    -0.7937900    -0.0035550
  H       -1.8528420    -2.5141400    -0.0211820
  H        3.0628590    -1.9839740     0.0678780
  H        3.6422020    -0.4648880     0.5003130
units angstrom
no_reorient  #important for SAPT in psi4, default
symmetry c1  #important for SAPT in psi4, default
}

set PROPERTIES_ORIGIN ["COM"]
properties('MP2/aug-cc-pvtz', properties = ['dipole'])
--------------------------------------------------------------------------

    Molecular point group: c1
  Charge       = 0
  Multiplicity = 1
  Basis Set: AUG-CC-PVTZ
    Blend: AUG-CC-PVTZ
  Basis Set: (AUG-CC-PVTZ AUX)
    Blend: AUG-CC-PVTZ-JKFIT

    Orbital Energies [Eh]
    ---------------------

    Doubly Occupied:

       1A    -20.529631     2A    -15.635859     3A    -15.627550
       4A    -15.610558     5A    -15.571193     6A    -15.564754
       7A    -11.396460     8A    -11.368961     9A    -11.327602
      10A    -11.313553    11A    -11.250808    12A     -1.400298
      13A     -1.364592    14A     -1.335362    15A     -1.217750
      16A     -1.215292    17A     -1.177295    18A     -1.030327
      19A     -0.904939    20A     -0.881125    21A     -0.844737
      22A     -0.796438    23A     -0.736263    24A     -0.729180
      25A     -0.700398    26A     -0.673326    27A     -0.654600
      28A     -0.632461    29A     -0.622626    30A     -0.600904
      31A     -0.595086    32A     -0.552230    33A     -0.498505
      34A     -0.461652    35A     -0.444768    36A     -0.434758
      37A     -0.433544    38A     -0.411656    39A     -0.302462

  @DF-RHF Final Energy:  -539.58795812608128

   => Energetics <=

    Nuclear Repulsion Energy =            593.5224073104168383
    One-Electron Energy =               -1912.5217218073389631
    Two-Electron Energy =                 779.4113563708408492
    Total Energy =                       -539.5879581260812756
  Basis Set: (AUG-CC-PVTZ AUX)
    Blend: AUG-CC-PVTZ-RI
    Molecular point group: c1

    Geometry (in Angstrom), charge = 0, multiplicity = 1:

       Center              X                  Y                   Z               Mass
    ------------   -----------------  -----------------  -----------------  -----------------
         O            0.199775320842     2.667224097793    -0.005713970353    15.994914619570
         C            0.215136920842     1.461132197793     0.007561729647    12.000000000000
         N            1.489327320842     0.760821097793    -0.002355970353    14.003074004430
         C            1.692986320842    -0.596637902207     0.004662029647    12.000000000000
         N            0.727444320842    -1.483004902207     0.013978029647    14.003074004430
         C           -0.501365679158    -0.886555902207    -0.000845970353    12.000000000000
         C           -0.830185679158     0.467682097793     0.017937029647    12.000000000000
         N           -2.194492679158     0.657565097793     0.016099029647    14.003074004430
         C           -2.684753679158    -0.572174902207     0.003197029647    12.000000000000
         N           -1.706859679158    -1.538107902207    -0.004614970353    14.003074004430
         N            3.013111320842    -1.012143902207    -0.077044970353    14.003074004430
         H            2.287229320842     1.384182097793    -0.101812970353     1.007825032230
         H           -3.737490679158    -0.823635902207    -0.000710970353     1.007825032230
         H           -1.829457679158    -2.543985902207    -0.018337970353     1.007825032230
         H            3.086243320842    -2.013819902207     0.070722029647     1.007825032230
         H            3.665586320842    -0.494733902207     0.503157029647     1.007825032230

  Basis Set: AUG-CC-PVTZ
    Blend: AUG-CC-PVTZ
  Basis Set: (AUG-CC-PVTZ AUX)
    Blend: AUG-CC-PVTZ-JKFIT
	 Reference Energy          =    -539.5879581260812756 [Eh]
	 Singles Energy            =      -0.0000000000000000 [Eh]
	 Same-Spin Energy          =      -0.5726987163642632 [Eh]
	 Opposite-Spin Energy      =      -1.6626129578571154 [Eh]
	 Correlation Energy        =      -2.2353116742213786 [Eh]
	 Total Energy              =    -541.8232698003026826 [Eh]

	 ================> DF-SCS-MP2 Energies <==================
	-----------------------------------------------------------
	 SCS Same-Spin Scale       =       0.3333333333333333 [-]
	 SCS Opposite-Spin Scale   =       1.2000000000000000 [-]
	 SCS Same-Spin Energy      =      -0.1908995721214211 [Eh]
	 SCS Opposite-Spin Energy  =      -1.9951355494285383 [Eh]
	 SCS Correlation Energy    =      -2.1860351215499594 [Eh]
	 SCS Total Energy          =    -541.7739932476312106 [Eh]
	-----------------------------------------------------------

  Dipole Moment: [D]
     X:     2.5777      Y:    -5.4279      Z:     0.8431     Total:     6.0677

*** Psi4 exiting successfully. Buy a developer a beer!
