                               Psi4 1.3.2 release

  ==> Input File <==

--------------------------------------------------------------------------
#psi4
#
memory 32 gb

molecule  {
0 1
  O        0.1763910     2.6970700    -0.0085580
  C        0.2089260     1.4725840     0.0042240
  N        1.4423364     0.7869223    -0.0035694
  C        1.6696020    -0.5667920     0.0018180
  N        0.7040600    -1.4531590     0.0111340
  C       -0.5247500    -0.8567100    -0.0036900
  C       -0.8535700     0.4975280     0.0150930
  N       -2.2178770     0.6874110     0.0132550
  C       -2.7081380    -0.5423290     0.0003530
  N       -1.7302440    -1.5082620    -0.0074590
  N        2.9897270    -0.9822980    -0.0798890
  H        2.2638450     1.4140280    -0.1046570
  H       -3.7608750    -0.7937900    -0.0035550
  H       -1.8528420    -2.5141400    -0.0211820
  H        3.0628590    -1.9839740     0.0678780
  H        3.6422020    -0.4648880     0.5003130
units angstrom
no_reorient  #important for SAPT in psi4, default
symmetry c1  #important for SAPT in psi4, default
}

set PROPERTIES_ORIGIN ["COM"]
properties('MP2/aug-cc-pvtz', properties = ['dipole'])
--------------------------------------------------------------------------

    Molecular point group: c1
  Charge       = 0
  Multiplicity = 1
  Basis Set: AUG-CC-PVTZ
    Blend: AUG-CC-PVTZ
  Basis Set: (AUG-CC-PVTZ AUX)
    Blend: AUG-CC-PVTZ-JKFIT

    Orbital Energies [Eh]
    ---------------------

    Doubly Occupied:

       1A    -20.522659     2A    -15.635810     3A    -15.634227
       4A    -15.613934     5A    -15.573601     6A    -15.564700
       7A    -11.398974     8A    -11.366135     9A    -11.326712
      10A    -11.313934    11A    -11.250812    12A     -1.394587
      13A     -1.360447    14A     -1.335909    15A     -1.223534
      16A     -1.217722    17A     -1.177564    18A     -1.031759
      19A     -0.907928    20A     -0.886042    21A     -0.844517
      22A     -0.799593    23A     -0.736024    24A     -0.731226
      25A     -0.701208    26A     -0.673811    27A     -0.657466
      28A     -0.633476    29A     -0.614502    30A     -0.600181
      31A     -0.596731    32A     -0.548655    33A     -0.498999
      34A     -0.463186    35A     -0.442867    36A     -0.432550
      37A     -0.431878    38A     -0.411661    39A     -0.302761

  @DF-RHF Final Energy:  -539.58638153921549

   => Energetics <=

    Nuclear Repulsion Energy =            594.1060640625229325
    One-Electron Energy =               -1913.6683263645181796
    Two-Electron Energy =                 779.9758807627798660
    Total Energy =                       -539.5863815392154947
  Basis Set: (AUG-CC-PVTZ AUX)
    Blend: AUG-CC-PVTZ-RI
    Molecular point group: c1

    Geometry (in Angstrom), charge = 0, multiplicity = 1:

       Center              X                  Y                   Z               Mass
    ------------   -----------------  -----------------  -----------------  -----------------
         O            0.200599449629     2.669032555778    -0.005825913938    15.994914619570
         C            0.233134449629     1.444546555778     0.006956086062    12.000000000000
         N            1.466544849629     0.758884855778    -0.000837313938    14.003074004430
         C            1.693810449629    -0.594829444222     0.004550086062    12.000000000000
         N            0.728268449629    -1.481196444222     0.013866086062    14.003074004430
         C           -0.500541550371    -0.884747444222    -0.000957913938    12.000000000000
         C           -0.829361550371     0.469490555778     0.017825086062    12.000000000000
         N           -2.193668550371     0.659373555778     0.015987086062    14.003074004430
         C           -2.683929550371    -0.570366444222     0.003085086062    12.000000000000
         N           -1.706035550371    -1.536299444222    -0.004726913938    14.003074004430
         N            3.013935449629    -1.010335444222    -0.077156913938    14.003074004430
         H            2.288053449629     1.385990555778    -0.101924913938     1.007825032230
         H           -3.736666550371    -0.821827444222    -0.000822913938     1.007825032230
         H           -1.828633550371    -2.542177444222    -0.018449913938     1.007825032230
         H            3.087067449629    -2.012011444222     0.070610086062     1.007825032230
         H            3.666410449629    -0.492925444222     0.503045086062     1.007825032230

  Basis Set: AUG-CC-PVTZ
    Blend: AUG-CC-PVTZ
  Basis Set: (AUG-CC-PVTZ AUX)
    Blend: AUG-CC-PVTZ-JKFIT
	 Reference Energy          =    -539.5863815392154947 [Eh]
	 Singles Energy            =      -0.0000000000000000 [Eh]
	 Same-Spin Energy          =      -0.5733285731594109 [Eh]
	 Opposite-Spin Energy      =      -1.6634777102441181 [Eh]
	 Correlation Energy        =      -2.2368062834035287 [Eh]
	 Total Energy              =    -541.8231878226190474 [Eh]

	 ================> DF-SCS-MP2 Energies <==================
	-----------------------------------------------------------
	 SCS Same-Spin Scale       =       0.3333333333333333 [-]
	 SCS Opposite-Spin Scale   =       1.2000000000000000 [-]
	 SCS Same-Spin Energy      =      -0.1911095243864703 [Eh]
	 SCS Opposite-Spin Energy  =      -1.9961732522929416 [Eh]
	 SCS Correlation Energy    =      -2.1872827766794121 [Eh]
	 SCS Total Energy          =    -541.7736643158949619 [Eh]
	-----------------------------------------------------------

  Dipole Moment: [D]
     X:     2.7413      Y:    -5.6818      Z:     0.8455     Total:     6.3650

*** Psi4 exiting successfully. Buy a developer a beer!
