                               Psi4 1.4a3.dev225

  ==> Input File <==

--------------------------------------------------------------------------
#psi4
#
memory 32 gb

molecule  {
0 1
  O        0.1763800     2.6970850    -0.0086780
  C        0.2088860     1.4725900     0.0042210
  N        1.4659360     0.7906750    -0.0050880
  C        1.6696170    -0.5667500     0.0018210
  N        0.7040680    -1.4531450     0.0111020
  C       -0.5247290    -0.8567090    -0.0037110
  C       -0.8535850     0.4975420     0.0152200
  N       -2.2178950     0.6873840     0.0133320
  C       -2.7081200    -0.5423560     0.0003580
  N       -1.6946419    -1.5434131    -0.0078118
  N        2.9897250    -0.9823190    -0.0798750
  H        2.2637990     1.4140370    -0.1048620
  H       -3.7608500    -0.7938460    -0.0035590
  H       -1.8527810    -2.5141570    -0.0214260
  H        3.0628080    -1.9839860     0.0679760
  H        3.6422460    -0.4648460     0.5002060
units angstrom
no_reorient  #important for SAPT in psi4, default
symmetry c1  #important for SAPT in psi4, default
}

set PROPERTIES_ORIGIN ["COM"]
properties('MP2/aug-cc-pvtz', properties = ['dipole'])
--------------------------------------------------------------------------

    Molecular point group: c1
  Charge       = 0
  Multiplicity = 1
  Basis Set: AUG-CC-PVTZ
    Blend: AUG-CC-PVTZ
  Basis Set: (AUG-CC-PVTZ AUX)
    Blend: AUG-CC-PVTZ-JKFIT

    Orbital Energies [Eh]
    ---------------------

    Doubly Occupied:

       1A    -20.523917     2A    -15.633001     3A    -15.631603
       4A    -15.612440     5A    -15.572177     6A    -15.571663
       7A    -11.398560     8A    -11.367993     9A    -11.329390
      10A    -11.318409    11A    -11.251354    12A     -1.393003
      13A     -1.357619    14A     -1.333181    15A     -1.220649
      16A     -1.219578    17A     -1.181063    18A     -1.029753
      19A     -0.905445    20A     -0.885695    21A     -0.848386
      22A     -0.799097    23A     -0.738613    24A     -0.730678
      25A     -0.700511    26A     -0.675173    27A     -0.655466
      28A     -0.628778    29A     -0.616820    30A     -0.602151
      31A     -0.593624    32A     -0.548048    33A     -0.501384
      34A     -0.462472    35A     -0.444238    36A     -0.434363
      37A     -0.433337    38A     -0.412473    39A     -0.303706

  @DF-RHF Final Energy:  -539.58502297650637

   => Energetics <=

    Nuclear Repulsion Energy =            593.2450866017047701
    One-Electron Energy =               -1911.9285943652128026
    Two-Electron Energy =                 779.0984847870016665
    Total Energy =                       -539.5850229765063659
  Basis Set: (AUG-CC-PVTZ AUX)
    Blend: AUG-CC-PVTZ-RI
    Molecular point group: c1

    Geometry (in Angstrom), charge = 0, multiplicity = 1:

       Center              X                  Y                   Z               Mass
    ------------   -----------------  -----------------  -----------------  -----------------
         O            0.195102277490     2.671957282908    -0.005770923673    15.994914619570
         C            0.227608277490     1.447462282908     0.007128076327    12.000000000000
         N            1.484658277490     0.765547282908    -0.002180923673    14.003074004430
         C            1.688339277490    -0.591877717092     0.004728076327    12.000000000000
         N            0.722790277490    -1.478272717092     0.014009076327    14.003074004430
         C           -0.506006722510    -0.881836717092    -0.000803923673    12.000000000000
         C           -0.834862722510     0.472414282908     0.018127076327    12.000000000000
         N           -2.199172722510     0.662256282908     0.016239076327    14.003074004430
         C           -2.689397722510    -0.567483717092     0.003265076327    12.000000000000
         N           -1.675919622510    -1.568540817092    -0.004904723673    14.003074004430
         N            3.008447277490    -1.007446717092    -0.076967923673    14.003074004430
         H            2.282521277490     1.388909282908    -0.101954923673     1.007825032230
         H           -3.742127722510    -0.818973717092    -0.000651923673     1.007825032230
         H           -1.834058722510    -2.539284717092    -0.018518923673     1.007825032230
         H            3.081530277490    -2.009113717092     0.070883076327     1.007825032230
         H            3.660968277490    -0.489973717092     0.503113076327     1.007825032230

  Basis Set: AUG-CC-PVTZ
    Blend: AUG-CC-PVTZ
  Basis Set: (AUG-CC-PVTZ AUX)
    Blend: AUG-CC-PVTZ-JKFIT

		-----------------------------------------------------------		 ==================> DF-MP2 Energies <==================== 		-----------------------------------------------------------		 Reference Energy          =    -539.5850229765063659 [Eh]		 Singles Energy            =      -0.0000000000000000 [Eh]		 Same-Spin Energy          =      -0.5725577340715935 [Eh]		 Opposite-Spin Energy      =      -1.6631733871181704 [Eh]		 Correlation Energy        =      -2.2357311211897639 [Eh]		 Total Energy              =    -541.8207540976961809 [Eh]		-----------------------------------------------------------		 ================> DF-SCS-MP2 Energies <================== 		-----------------------------------------------------------		 SCS Same-Spin Scale       =       0.3333333333333333 [-]		 SCS Opposite-Spin Scale   =       1.2000000000000000 [-]		 SCS Same-Spin Energy      =      -0.1908525780238645 [Eh]		 SCS Opposite-Spin Energy  =      -1.9958080645418044 [Eh]		 SCS Correlation Energy    =      -2.1866606425656689 [Eh]		 SCS Total Energy          =    -541.7716836190720642 [Eh]		-----------------------------------------------------------

Properties will be evaluated at  -0.000000,   0.000000,   0.000000 [a0]

Properties computed using the MP2 density matrix
   Nuclear Dipole Moment: [e a0]
     X:     3.2302      Y:    -4.1686      Z:     0.4247

  Electronic Dipole Moment: [e a0]
     X:    -2.1985      Y:     1.9839      Z:    -0.0929

  Dipole Moment: [e a0]
     X:     1.0317      Y:    -2.1847      Z:     0.3317     Total:     2.4387

  Dipole Moment: [D]
     X:     2.6224      Y:    -5.5529      Z:     0.8432     Total:     6.1986

*** tstop() called on c444-063.stampede2.tacc.utexas.edu at Fri Mar 19 06:52:05 2021
Module time:
	user time   =    1701.82 seconds =      28.36 minutes
	system time =      64.47 seconds =       1.07 minutes
	total time  =       1085 seconds =      18.08 minutes
Total time:
	user time   =    2316.51 seconds =      38.61 minutes
	system time =     110.15 seconds =       1.84 minutes
	total time  =       1201 seconds =      20.02 minutes

    Psi4 stopped on: Friday, 19 March 2021 06:52AM
    Psi4 wall time for execution: 0:20:02.05

*** Psi4 exiting successfully. Buy a developer a beer!
