                               Psi4 1.3.2 release

  ==> Input File <==

--------------------------------------------------------------------------
#psi4
#
memory 32 gb

molecule  {
0 1
  O        0.1763910     2.6970700    -0.0085580
  C        0.2089260     1.4725840     0.0042240
  N        1.4659430     0.7906670    -0.0052000
  C        1.6696020    -0.5667920     0.0018180
  N        0.7040600    -1.4531590     0.0111340
  C       -0.5994606    -0.7342745    -0.0027394
  C       -0.8535700     0.4975280     0.0150930
  N       -2.2178770     0.6874110     0.0132550
  C       -2.7081380    -0.5423290     0.0003530
  N       -1.7302440    -1.5082620    -0.0074590
  N        2.9897270    -0.9822980    -0.0798890
  H        2.2638450     1.4140280    -0.1046570
  H       -3.7608750    -0.7937900    -0.0035550
  H       -1.8528420    -2.5141400    -0.0211820
  H        3.0628590    -1.9839740     0.0678780
  H        3.6422020    -0.4648880     0.5003130
units angstrom
no_reorient  #important for SAPT in psi4, default
symmetry c1  #important for SAPT in psi4, default
}

set PROPERTIES_ORIGIN ["COM"]
properties('MP2/aug-cc-pvtz', properties = ['dipole'])
--------------------------------------------------------------------------

    Molecular point group: c1
  Charge       = 0
  Multiplicity = 1
  Basis Set: AUG-CC-PVTZ
    Blend: AUG-CC-PVTZ
  Basis Set: (AUG-CC-PVTZ AUX)
    Blend: AUG-CC-PVTZ-JKFIT

    Orbital Energies [Eh]
    ---------------------

    Doubly Occupied:

       1A    -20.536304     2A    -15.632809     3A    -15.628433
       4A    -15.606404     5A    -15.570782     6A    -15.562088
       7A    -11.388468     8A    -11.377282     9A    -11.317822
      10A    -11.312563    11A    -11.244058    12A     -1.398856
      13A     -1.369153    14A     -1.331687    15A     -1.218842
      16A     -1.195057    17A     -1.173648    18A     -1.053184
      19A     -0.909984    20A     -0.870606    21A     -0.851982
      22A     -0.787581    23A     -0.742073    24A     -0.723438
      25A     -0.714584    26A     -0.680283    27A     -0.656921
      28A     -0.625539    29A     -0.608821    30A     -0.605428
      31A     -0.592304    32A     -0.546380    33A     -0.495443
      34A     -0.453447    35A     -0.447106    36A     -0.437565
      37A     -0.423770    38A     -0.417013    39A     -0.327363

  @DF-RHF Final Energy:  -539.56024763323194

   => Energetics <=

    Nuclear Repulsion Energy =            594.9173963110729346
    One-Electron Energy =               -1915.2851455632071520
    Two-Electron Energy =                 780.8075016189022790
    Total Energy =                       -539.5602476332319384
  Basis Set: (AUG-CC-PVTZ AUX)
    Blend: AUG-CC-PVTZ-RI
    Molecular point group: c1

    Geometry (in Angstrom), charge = 0, multiplicity = 1:

       Center              X                  Y                   Z               Mass
    ------------   -----------------  -----------------  -----------------  -----------------
         O            0.204346317848     2.658958611674    -0.005750268409    15.994914619570
         C            0.236881317848     1.434472611674     0.007031731591    12.000000000000
         N            1.493898317848     0.752555611674    -0.002392268409    14.003074004430
         C            1.697557317848    -0.604903388326     0.004625731591    12.000000000000
         N            0.732015317848    -1.491270388326     0.013941731591    14.003074004430
         C           -0.571505282152    -0.772385888326     0.000068331591    12.000000000000
         C           -0.825614682152     0.459416611674     0.017900731591    12.000000000000
         N           -2.189921682152     0.649299611674     0.016062731591    14.003074004430
         C           -2.680182682152    -0.580440388326     0.003160731591    12.000000000000
         N           -1.702288682152    -1.546373388326    -0.004651268409    14.003074004430
         N            3.017682317848    -1.020409388326    -0.077081268409    14.003074004430
         H            2.291800317848     1.375916611674    -0.101849268409     1.007825032230
         H           -3.732919682152    -0.831901388326    -0.000747268409     1.007825032230
         H           -1.824886682152    -2.552251388326    -0.018374268409     1.007825032230
         H            3.090814317848    -2.022085388326     0.070685731591     1.007825032230
         H            3.670157317848    -0.502999388326     0.503120731591     1.007825032230

  Basis Set: AUG-CC-PVTZ
    Blend: AUG-CC-PVTZ
  Basis Set: (AUG-CC-PVTZ AUX)
    Blend: AUG-CC-PVTZ-JKFIT
	 Reference Energy          =    -539.5602476332319384 [Eh]
	 Singles Energy            =      -0.0000000000000000 [Eh]
	 Same-Spin Energy          =      -0.5707144601736381 [Eh]
	 Opposite-Spin Energy      =      -1.6631679709689184 [Eh]
	 Correlation Energy        =      -2.2338824311425567 [Eh]
	 Total Energy              =    -541.7941300643744853 [Eh]

	 ================> DF-SCS-MP2 Energies <==================
	-----------------------------------------------------------
	 SCS Same-Spin Scale       =       0.3333333333333333 [-]
	 SCS Opposite-Spin Scale   =       1.2000000000000000 [-]
	 SCS Same-Spin Energy      =      -0.1902381533912127 [Eh]
	 SCS Opposite-Spin Energy  =      -1.9958015651627021 [Eh]
	 SCS Correlation Energy    =      -2.1860397185539147 [Eh]
	 SCS Total Energy          =    -541.7462873517858952 [Eh]
	-----------------------------------------------------------

  Dipole Moment: [D]
     X:     2.4514      Y:    -5.2624      Z:     0.8440     Total:     5.8664

*** Psi4 exiting successfully. Buy a developer a beer!
