                               Psi4 1.3.2 release

  ==> Input File <==

--------------------------------------------------------------------------
#psi4
#
memory 32 gb

molecule  {
0 1
  O        0.1763910     2.6970700    -0.0085580
  C        0.2089260     1.4725840     0.0042240
  N        1.4659430     0.7906670    -0.0052000
  C        1.6696020    -0.5667920     0.0018180
  N        0.7040600    -1.4531590     0.0111340
  C       -0.5247500    -0.8567100    -0.0036900
  C       -0.8535700     0.4975280     0.0150930
  N       -2.3048582     0.7186141     0.0134130
  C       -2.7081380    -0.5423290     0.0003530
  N       -1.7302440    -1.5082620    -0.0074590
  N        2.9897270    -0.9822980    -0.0798890
  H        2.2638450     1.4140280    -0.1046570
  H       -3.7608750    -0.7937900    -0.0035550
  H       -1.8528420    -2.5141400    -0.0211820
  H        3.0628590    -1.9839740     0.0678780
  H        3.6422020    -0.4648880     0.5003130
units angstrom
no_reorient  #important for SAPT in psi4, default
symmetry c1  #important for SAPT in psi4, default
}

set PROPERTIES_ORIGIN ["COM"]
properties('MP2/aug-cc-pvtz', properties = ['dipole'])
--------------------------------------------------------------------------

    Molecular point group: c1
  Charge       = 0
  Multiplicity = 1
  Basis Set: AUG-CC-PVTZ
    Blend: AUG-CC-PVTZ
  Basis Set: (AUG-CC-PVTZ AUX)
    Blend: AUG-CC-PVTZ-JKFIT

    Orbital Energies [Eh]
    ---------------------

    Doubly Occupied:

       1A    -20.522766     2A    -15.636491     3A    -15.632791
       4A    -15.614163     5A    -15.576157     6A    -15.575497
       7A    -11.401294     8A    -11.367650     9A    -11.333482
      10A    -11.318094    11A    -11.256253    12A     -1.392463
      13A     -1.357761    14A     -1.334140    15A     -1.222086
      16A     -1.217937    17A     -1.170027    18A     -1.033186
      19A     -0.906593    20A     -0.886489    21A     -0.839307
      22A     -0.800172    23A     -0.738707    24A     -0.728980
      25A     -0.701913    26A     -0.673713    27A     -0.655773
      28A     -0.634039    29A     -0.613119    30A     -0.597092
      31A     -0.580590    32A     -0.547604    33A     -0.502279
      34A     -0.463796    35A     -0.445418    36A     -0.436515
      37A     -0.433641    38A     -0.405589    39A     -0.310031

  @DF-RHF Final Energy:  -539.57947894963263

   => Energetics <=

    Nuclear Repulsion Energy =            591.1230442490351606
    One-Electron Energy =               -1907.6778449457883653
    Two-Electron Energy =                 776.9753217471206881
    Total Energy =                       -539.5794789496326302
  Basis Set: (AUG-CC-PVTZ AUX)
    Blend: AUG-CC-PVTZ-RI
    Molecular point group: c1

    Geometry (in Angstrom), charge = 0, multiplicity = 1:

       Center              X                  Y                   Z               Mass
    ------------   -----------------  -----------------  -----------------  -----------------
         O            0.206474608062     2.665792711078    -0.005689396180    15.994914619570
         C            0.239009608062     1.441306711078     0.007092603820    12.000000000000
         N            1.496026608062     0.759389711078    -0.002331396180    14.003074004430
         C            1.699685608062    -0.598069288922     0.004686603820    12.000000000000
         N            0.734143608062    -1.484436288922     0.014002603820    14.003074004430
         C           -0.494666391938    -0.887987288922    -0.000821396180    12.000000000000
         C           -0.823486391938     0.466250711078     0.017961603820    12.000000000000
         N           -2.274774591938     0.687336811078     0.016281603820    14.003074004430
         C           -2.678054391938    -0.573606288922     0.003221603820    12.000000000000
         N           -1.700160391938    -1.539539288922    -0.004590396180    14.003074004430
         N            3.019810608062    -1.013575288922    -0.077020396180    14.003074004430
         H            2.293928608062     1.382750711078    -0.101788396180     1.007825032230
         H           -3.730791391938    -0.825067288922    -0.000686396180     1.007825032230
         H           -1.822758391938    -2.545417288922    -0.018313396180     1.007825032230
         H            3.092942608062    -2.015251288922     0.070746603820     1.007825032230
         H            3.672285608062    -0.496165288922     0.503181603820     1.007825032230

  Basis Set: AUG-CC-PVTZ
    Blend: AUG-CC-PVTZ
  Basis Set: (AUG-CC-PVTZ AUX)
    Blend: AUG-CC-PVTZ-JKFIT
	 Reference Energy          =    -539.5794789496326302 [Eh]
	 Singles Energy            =      -0.0000000000000000 [Eh]
	 Same-Spin Energy          =      -0.5723506741799611 [Eh]
	 Opposite-Spin Energy      =      -1.6643450852225874 [Eh]
	 Correlation Energy        =      -2.2366957594025485 [Eh]
	 Total Energy              =    -541.8161747090351810 [Eh]

	 ================> DF-SCS-MP2 Energies <==================
	-----------------------------------------------------------
	 SCS Same-Spin Scale       =       0.3333333333333333 [-]
	 SCS Opposite-Spin Scale   =       1.2000000000000000 [-]
	 SCS Same-Spin Energy      =      -0.1907835580599870 [Eh]
	 SCS Opposite-Spin Energy  =      -1.9972141022671048 [Eh]
	 SCS Correlation Energy    =      -2.1879976603270919 [Eh]
	 SCS Total Energy          =    -541.7674766099597718 [Eh]
	-----------------------------------------------------------

  Dipole Moment: [D]
     X:     2.8478      Y:    -5.7057      Z:     0.8424     Total:     6.4323

*** Psi4 exiting successfully. Buy a developer a beer!
