                               Psi4 1.3.2 release

  ==> Input File <==

--------------------------------------------------------------------------
#psi4
#
memory 32 gb

molecule  {
0 1
  O        0.1763910     2.6970700    -0.0085580
  C        0.2089260     1.4725840     0.0042240
  N        1.4659430     0.7906670    -0.0052000
  C        1.6696020    -0.5667920     0.0018180
  N        0.7040600    -1.4531590     0.0111340
  C       -0.5027452    -0.8991768    -0.0040166
  C       -0.8535700     0.4975280     0.0150930
  N       -2.2178770     0.6874110     0.0132550
  C       -2.7081380    -0.5423290     0.0003530
  N       -1.7302440    -1.5082620    -0.0074590
  N        2.9897270    -0.9822980    -0.0798890
  H        2.2638450     1.4140280    -0.1046570
  H       -3.7608750    -0.7937900    -0.0035550
  H       -1.8528420    -2.5141400    -0.0211820
  H        3.0628590    -1.9839740     0.0678780
  H        3.6422020    -0.4648880     0.5003130
units angstrom
no_reorient  #important for SAPT in psi4, default
symmetry c1  #important for SAPT in psi4, default
}

set PROPERTIES_ORIGIN ["COM"]
properties('MP2/aug-cc-pvtz', properties = ['dipole'])
--------------------------------------------------------------------------

    Molecular point group: c1
  Charge       = 0
  Multiplicity = 1
  Basis Set: AUG-CC-PVTZ
    Blend: AUG-CC-PVTZ
  Basis Set: (AUG-CC-PVTZ AUX)
    Blend: AUG-CC-PVTZ-JKFIT

    Orbital Energies [Eh]
    ---------------------

    Doubly Occupied:

       1A    -20.520244     2A    -15.637132     3A    -15.633485
       4A    -15.614702     5A    -15.574466     6A    -15.566314
       7A    -11.402442     8A    -11.364780     9A    -11.332056
      10A    -11.313027    11A    -11.252504    12A     -1.392774
      13A     -1.359400    14A     -1.336722    15A     -1.228137
      16A     -1.221519    17A     -1.179087    18A     -1.024697
      19A     -0.907673    20A     -0.890274    21A     -0.841784
      22A     -0.802607    23A     -0.741796    24A     -0.732889
      25A     -0.698705    26A     -0.668102    27A     -0.657471
      28A     -0.640976    29A     -0.611569    30A     -0.599908
      31A     -0.595959    32A     -0.548468    33A     -0.500656
      34A     -0.467286    35A     -0.441741    36A     -0.434544
      37A     -0.428781    38A     -0.411291    39A     -0.294806

  @DF-RHF Final Energy:  -539.58278337189608

   => Energetics <=

    Nuclear Repulsion Energy =            593.2881634843715801
    One-Electron Energy =               -1912.0003416756735533
    Two-Electron Energy =                 779.1293948194058885
    Total Energy =                       -539.5827833718960846
  Basis Set: (AUG-CC-PVTZ AUX)
    Blend: AUG-CC-PVTZ-RI
    Molecular point group: c1

    Geometry (in Angstrom), charge = 0, multiplicity = 1:

       Center              X                  Y                   Z               Mass
    ------------   -----------------  -----------------  -----------------  -----------------
         O            0.196662839962     2.672059143497    -0.005648802273    15.994914619570
         C            0.229197839962     1.447573143497     0.007133197727    12.000000000000
         N            1.486214839962     0.765656143497    -0.002290802273    14.003074004430
         C            1.689873839962    -0.591802856503     0.004727197727    12.000000000000
         N            0.724331839962    -1.478169856503     0.014043197727    14.003074004430
         C           -0.482473360038    -0.924187656503    -0.001107402273    12.000000000000
         C           -0.833298160038     0.472517143497     0.018002197727    12.000000000000
         N           -2.197605160038     0.662400143497     0.016164197727    14.003074004430
         C           -2.687866160038    -0.567339856503     0.003262197727    12.000000000000
         N           -1.709972160038    -1.533272856503    -0.004549802273    14.003074004430
         N            3.009998839962    -1.007308856503    -0.076979802273    14.003074004430
         H            2.284116839962     1.389017143497    -0.101747802273     1.007825032230
         H           -3.740603160038    -0.818800856503    -0.000645802273     1.007825032230
         H           -1.832570160038    -2.539150856503    -0.018272802273     1.007825032230
         H            3.083130839962    -2.008984856503     0.070787197727     1.007825032230
         H            3.662473839962    -0.489898856503     0.503222197727     1.007825032230

  Basis Set: AUG-CC-PVTZ
    Blend: AUG-CC-PVTZ
  Basis Set: (AUG-CC-PVTZ AUX)
    Blend: AUG-CC-PVTZ-JKFIT
	 Reference Energy          =    -539.5827833718960846 [Eh]
	 Singles Energy            =      -0.0000000000000000 [Eh]
	 Same-Spin Energy          =      -0.5741107413510296 [Eh]
	 Opposite-Spin Energy      =      -1.6638162490080841 [Eh]
	 Correlation Energy        =      -2.2379269903591137 [Eh]
	 Total Energy              =    -541.8207103622552268 [Eh]

	 ================> DF-SCS-MP2 Energies <==================
	-----------------------------------------------------------
	 SCS Same-Spin Scale       =       0.3333333333333333 [-]
	 SCS Opposite-Spin Scale   =       1.2000000000000000 [-]
	 SCS Same-Spin Energy      =      -0.1913702471170098 [Eh]
	 SCS Opposite-Spin Energy  =      -1.9965794988097008 [Eh]
	 SCS Correlation Energy    =      -2.1879497459267108 [Eh]
	 SCS Total Energy          =    -541.7707331178228287 [Eh]
	-----------------------------------------------------------

  Dipole Moment: [D]
     X:     2.7375      Y:    -5.7568      Z:     0.8440     Total:     6.4301

*** Psi4 exiting successfully. Buy a developer a beer!
