                               Psi4 1.3.2 release

  ==> Input File <==

--------------------------------------------------------------------------
#psi4
#
memory 32 gb

molecule  {
0 1
  O        0.1763910     2.6970700    -0.0085580
  C        0.2089260     1.4725840     0.0042240
  N        1.4659430     0.7906670    -0.0052000
  C        1.6696020    -0.5667920     0.0018180
  N        0.6934725    -1.4745106     0.0105018
  C       -0.5247500    -0.8567100    -0.0036900
  C       -0.8535700     0.4975280     0.0150930
  N       -2.2178770     0.6874110     0.0132550
  C       -2.7081380    -0.5423290     0.0003530
  N       -1.7302440    -1.5082620    -0.0074590
  N        2.9897270    -0.9822980    -0.0798890
  H        2.2638450     1.4140280    -0.1046570
  H       -3.7608750    -0.7937900    -0.0035550
  H       -1.8528420    -2.5141400    -0.0211820
  H        3.0628590    -1.9839740     0.0678780
  H        3.6422020    -0.4648880     0.5003130
units angstrom
no_reorient  #important for SAPT in psi4, default
symmetry c1  #important for SAPT in psi4, default
}

set PROPERTIES_ORIGIN ["COM"]
properties('MP2/aug-cc-pvtz', properties = ['dipole'])
--------------------------------------------------------------------------

    Molecular point group: c1
  Charge       = 0
  Multiplicity = 1
  Basis Set: AUG-CC-PVTZ
    Blend: AUG-CC-PVTZ
  Basis Set: (AUG-CC-PVTZ AUX)
    Blend: AUG-CC-PVTZ-JKFIT

    Orbital Energies [Eh]
    ---------------------

    Doubly Occupied:

       1A    -20.524704     2A    -15.634581     3A    -15.634537
       4A    -15.614597     5A    -15.576062     6A    -15.564632
       7A    -11.403079     8A    -11.368280     9A    -11.326877
      10A    -11.313492    11A    -11.250817    12A     -1.393234
      13A     -1.360220    14A     -1.334379    15A     -1.222224
      16A     -1.216862    17A     -1.176616    18A     -1.029751
      19A     -0.906099    20A     -0.886326    21A     -0.844192
      22A     -0.797196    23A     -0.741092    24A     -0.729757
      25A     -0.701408    26A     -0.673384    27A     -0.655388
      28A     -0.630805    29A     -0.614594    30A     -0.601103
      31A     -0.595981    32A     -0.547462    33A     -0.501191
      34A     -0.462691    35A     -0.443981    36A     -0.433660
      37A     -0.433094    38A     -0.411414    39A     -0.301285

  @DF-RHF Final Energy:  -539.58550766304188

   => Energetics <=

    Nuclear Repulsion Energy =            593.1162392094258848
    One-Electron Energy =               -1911.6893971846893692
    Two-Electron Energy =                 778.9876503122216036
    Total Energy =                       -539.5855076630418807
  Basis Set: (AUG-CC-PVTZ AUX)
    Blend: AUG-CC-PVTZ-RI
    Molecular point group: c1

    Geometry (in Angstrom), charge = 0, multiplicity = 1:

       Center              X                  Y                   Z               Mass
    ------------   -----------------  -----------------  -----------------  -----------------
         O            0.199392510647     2.670664807926    -0.005616140487    15.994914619570
         C            0.231927510647     1.446178807926     0.007165859513    12.000000000000
         N            1.488944510647     0.764261807926    -0.002258140487    14.003074004430
         C            1.692603510647    -0.593197192074     0.004759859513    12.000000000000
         N            0.716474010647    -1.500915792074     0.013443659513    14.003074004430
         C           -0.501748489353    -0.883115192074    -0.000748140487    12.000000000000
         C           -0.830568489353     0.471122807926     0.018034859513    12.000000000000
         N           -2.194875489353     0.661005807926     0.016196859513    14.003074004430
         C           -2.685136489353    -0.568734192074     0.003294859513    12.000000000000
         N           -1.707242489353    -1.534667192074    -0.004517140487    14.003074004430
         N            3.012728510647    -1.008703192074    -0.076947140487    14.003074004430
         H            2.286846510647     1.387622807926    -0.101715140487     1.007825032230
         H           -3.737873489353    -0.820195192074    -0.000613140487     1.007825032230
         H           -1.829840489353    -2.540545192074    -0.018240140487     1.007825032230
         H            3.085860510647    -2.010379192074     0.070819859513     1.007825032230
         H            3.665203510647    -0.491293192074     0.503254859513     1.007825032230

  Basis Set: AUG-CC-PVTZ
    Blend: AUG-CC-PVTZ
  Basis Set: (AUG-CC-PVTZ AUX)
    Blend: AUG-CC-PVTZ-JKFIT
	 Reference Energy          =    -539.5855076630418807 [Eh]
	 Singles Energy            =      -0.0000000000000000 [Eh]
	 Same-Spin Energy          =      -0.5733006687048804 [Eh]
	 Opposite-Spin Energy      =      -1.6639179922741729 [Eh]
	 Correlation Energy        =      -2.2372186609790532 [Eh]
	 Total Energy              =    -541.8227263240208913 [Eh]

	 ================> DF-SCS-MP2 Energies <==================
	-----------------------------------------------------------
	 SCS Same-Spin Scale       =       0.3333333333333333 [-]
	 SCS Opposite-Spin Scale   =       1.2000000000000000 [-]
	 SCS Same-Spin Energy      =      -0.1911002229016268 [Eh]
	 SCS Opposite-Spin Energy  =      -1.9967015907290073 [Eh]
	 SCS Correlation Energy    =      -2.1878018136306343 [Eh]
	 SCS Total Energy          =    -541.7733094766724662 [Eh]
	-----------------------------------------------------------

  Dipole Moment: [D]
     X:     2.7617      Y:    -5.5846      Z:     0.8424     Total:     6.2869

*** Psi4 exiting successfully. Buy a developer a beer!
