                               Psi4 1.4a3.dev225

  ==> Input File <==

--------------------------------------------------------------------------
#psi4
#
memory 32 gb

molecule  {
0 1
  O        0.1763800     2.6970850    -0.0086780
  C        0.2088860     1.4725900     0.0042210
  N        1.4659360     0.7906750    -0.0050880
  C        1.6696170    -0.5667500     0.0018210
  N        0.7040680    -1.4531450     0.0111020
  C       -0.5247290    -0.8567090    -0.0037110
  C       -0.8535850     0.4975420     0.0152200
  N       -2.2377041     0.6901404     0.0133046
  C       -2.7081200    -0.5423560     0.0003580
  N       -1.7302140    -1.5082770    -0.0075250
  N        2.9897250    -0.9823190    -0.0798750
  H        2.2637990     1.4140370    -0.1048620
  H       -3.7608500    -0.7938460    -0.0035590
  H       -1.8527810    -2.5141570    -0.0214260
  H        3.0628080    -1.9839860     0.0679760
  H        3.6422460    -0.4648460     0.5002060
units angstrom
no_reorient  #important for SAPT in psi4, default
symmetry c1  #important for SAPT in psi4, default
}

set PROPERTIES_ORIGIN ["COM"]
properties('MP2/aug-cc-pvtz', properties = ['dipole'])
--------------------------------------------------------------------------

    Molecular point group: c1
  Charge       = 0
  Multiplicity = 1
  Basis Set: AUG-CC-PVTZ
    Blend: AUG-CC-PVTZ
  Basis Set: (AUG-CC-PVTZ AUX)
    Blend: AUG-CC-PVTZ-JKFIT

    Orbital Energies [Eh]
    ---------------------

    Doubly Occupied:

       1A    -20.523973     2A    -15.635767     3A    -15.632216
       4A    -15.612838     5A    -15.574169     6A    -15.566919
       7A    -11.399295     8A    -11.368021     9A    -11.329010
      10A    -11.314475    11A    -11.252531    12A     -1.393292
      13A     -1.360312    14A     -1.335692    15A     -1.221129
      16A     -1.218404    17A     -1.176583    18A     -1.032185
      19A     -0.906706    20A     -0.885644    21A     -0.843050
      22A     -0.799502    23A     -0.740156    24A     -0.730303
      25A     -0.700960    26A     -0.673217    27A     -0.656242
      28A     -0.633921    29A     -0.614235    30A     -0.599259
      31A     -0.595461    32A     -0.547858    33A     -0.500122
      34A     -0.462969    35A     -0.443041    36A     -0.434423
      37A     -0.433023    38A     -0.410626    39A     -0.304980

  @DF-RHF Final Energy:  -539.58741865054708

   => Energetics <=

    Nuclear Repulsion Energy =            593.1611274339229567
    One-Electron Energy =               -1911.7720726272430056
    Two-Electron Energy =                 779.0235265427729701
    Total Energy =                       -539.5874186505470789
  Basis Set: (AUG-CC-PVTZ AUX)
    Blend: AUG-CC-PVTZ-RI
    Molecular point group: c1

    Geometry (in Angstrom), charge = 0, multiplicity = 1:

       Center              X                  Y                   Z               Mass
    ------------   -----------------  -----------------  -----------------  -----------------
         O            0.200236405741     2.668444449045    -0.005794971416    15.994914619570
         C            0.232742405741     1.443949449045     0.007104028584    12.000000000000
         N            1.489792405741     0.762034449045    -0.002204971416    14.003074004430
         C            1.693473405741    -0.595390550955     0.004704028584    12.000000000000
         N            0.727924405741    -1.481785550955     0.013985028584    14.003074004430
         C           -0.500872594259    -0.885349550955    -0.000827971416    12.000000000000
         C           -0.829728594259     0.468901449045     0.018103028584    12.000000000000
         N           -2.213847694259     0.661499849045     0.016187628584    14.003074004430
         C           -2.684263594259    -0.570996550955     0.003241028584    12.000000000000
         N           -1.706357594259    -1.536917550955    -0.004641971416    14.003074004430
         N            3.013581405741    -1.010959550955    -0.076991971416    14.003074004430
         H            2.287655405741     1.385396449045    -0.101978971416     1.007825032230
         H           -3.736993594259    -0.822486550955    -0.000675971416     1.007825032230
         H           -1.828924594259    -2.542797550955    -0.018542971416     1.007825032230
         H            3.086664405741    -2.012626550955     0.070859028584     1.007825032230
         H            3.666102405741    -0.493486550955     0.503089028584     1.007825032230

  Basis Set: AUG-CC-PVTZ
    Blend: AUG-CC-PVTZ
  Basis Set: (AUG-CC-PVTZ AUX)
    Blend: AUG-CC-PVTZ-JKFIT
	 Reference Energy          =    -539.5874186505470789 [Eh]
	 Singles Energy            =      -0.0000000000000000 [Eh]
	 Same-Spin Energy          =      -0.5726977094944885 [Eh]
	 Opposite-Spin Energy      =      -1.6630696292689313 [Eh]
	 Correlation Energy        =      -2.2357673387634200 [Eh]
	 Total Energy              =    -541.8231859893104456 [Eh]

	 ================> DF-SCS-MP2 Energies <==================
	-----------------------------------------------------------
	 SCS Same-Spin Scale       =       0.3333333333333333 [-]
	 SCS Opposite-Spin Scale   =       1.2000000000000000 [-]
	 SCS Same-Spin Energy      =      -0.1908992364981628 [Eh]
	 SCS Opposite-Spin Energy  =      -1.9956835551227174 [Eh]
	 SCS Correlation Energy    =      -2.1865827916208804 [Eh]
	 SCS Total Energy          =    -541.7740014421680144 [Eh]
	-----------------------------------------------------------

  Dipole Moment: [D]
     X:     2.7104      Y:    -5.6448      Z:     0.8431     Total:     6.3183

*** Psi4 exiting successfully. Buy a developer a beer!
