                               Psi4 1.3.2 release

  ==> Input File <==

--------------------------------------------------------------------------
#psi4
#
memory 32 gb

molecule  {
0 1
  O        0.1763910     2.6970700    -0.0085580
  C        0.2089260     1.4725840     0.0042240
  N        1.4659430     0.7906670    -0.0052000
  C        1.6696020    -0.5667920     0.0018180
  N        0.7040600    -1.4531590     0.0111340
  C       -0.5247500    -0.8567100    -0.0036900
  C       -0.8535700     0.4975280     0.0150930
  N       -2.2178770     0.6874110     0.0132550
  C       -2.7081380    -0.5423290     0.0003530
  N       -1.7302440    -1.5082620    -0.0074590
  N        2.9897270    -0.9822980    -0.0798890
  H        2.2638450     1.4140280    -0.1046570
  H       -3.9554012    -0.8402553    -0.0042771
  H       -1.8528420    -2.5141400    -0.0211820
  H        3.0628590    -1.9839740     0.0678780
  H        3.6422020    -0.4648880     0.5003130
units angstrom
no_reorient  #important for SAPT in psi4, default
symmetry c1  #important for SAPT in psi4, default
}

set PROPERTIES_ORIGIN ["COM"]
properties('MP2/aug-cc-pvtz', properties = ['dipole'])
--------------------------------------------------------------------------

    Molecular point group: c1
  Charge       = 0
  Multiplicity = 1
  Basis Set: AUG-CC-PVTZ
    Blend: AUG-CC-PVTZ
  Basis Set: (AUG-CC-PVTZ AUX)
    Blend: AUG-CC-PVTZ-JKFIT

    Orbital Energies [Eh]
    ---------------------

    Doubly Occupied:

       1A    -20.524739     2A    -15.638067     3A    -15.632420
       4A    -15.612661     5A    -15.574125     6A    -15.566631
       7A    -11.399008     8A    -11.368559     9A    -11.333902
      10A    -11.328431    11A    -11.252665    12A     -1.394047
      13A     -1.361740    14A     -1.336356    15A     -1.221120
      16A     -1.218803    17A     -1.179460    18A     -1.028639
      19A     -0.903456    20A     -0.884157    21A     -0.840346
      22A     -0.793199    23A     -0.740027    24A     -0.723940
      25A     -0.696588    26A     -0.673579    27A     -0.655705
      28A     -0.630697    29A     -0.614414    30A     -0.598927
      31A     -0.571050    32A     -0.548284    33A     -0.499677
      34A     -0.462997    35A     -0.442752    36A     -0.433423
      37A     -0.433089    38A     -0.413321    39A     -0.303394

  @DF-RHF Final Energy:  -539.56439917979446

   => Energetics <=

    Nuclear Repulsion Energy =            592.6647613991684693
    One-Electron Energy =               -1910.7895299680783410
    Two-Electron Energy =                 778.5603693891155217
    Total Energy =                       -539.5643991797944636
  Basis Set: (AUG-CC-PVTZ AUX)
    Blend: AUG-CC-PVTZ-RI
    Molecular point group: c1

    Geometry (in Angstrom), charge = 0, multiplicity = 1:

       Center              X                  Y                   Z               Mass
    ------------   -----------------  -----------------  -----------------  -----------------
         O            0.199708902667     2.668995426081    -0.005669930786    15.994914619570
         C            0.232243902667     1.444509426081     0.007112069214    12.000000000000
         N            1.489260902667     0.762592426081    -0.002311930786    14.003074004430
         C            1.692919902667    -0.594866573919     0.004706069214    12.000000000000
         N            0.727377902667    -1.481233573919     0.014022069214    14.003074004430
         C           -0.501432097333    -0.884784573919    -0.000801930786    12.000000000000
         C           -0.830252097333     0.469453426081     0.017981069214    12.000000000000
         N           -2.194559097333     0.659336426081     0.016143069214    14.003074004430
         C           -2.684820097333    -0.570403573919     0.003241069214    12.000000000000
         N           -1.706926097333    -1.536336573919    -0.004570930786    14.003074004430
         N            3.013044902667    -1.010372573919    -0.077000930786    14.003074004430
         H            2.287162902667     1.385953426081    -0.101768930786     1.007825032230
         H           -3.932083297333    -0.868329873919    -0.001389030786     1.007825032230
         H           -1.829524097333    -2.542214573919    -0.018293930786     1.007825032230
         H            3.086176902667    -2.012048573919     0.070766069214     1.007825032230
         H            3.665519902667    -0.492962573919     0.503201069214     1.007825032230

  Basis Set: AUG-CC-PVTZ
    Blend: AUG-CC-PVTZ
  Basis Set: (AUG-CC-PVTZ AUX)
    Blend: AUG-CC-PVTZ-JKFIT
	 Reference Energy          =    -539.5643991797944636 [Eh]
	 Singles Energy            =      -0.0000000000000000 [Eh]
	 Same-Spin Energy          =      -0.5736468063342346 [Eh]
	 Opposite-Spin Energy      =      -1.6653407127614603 [Eh]
	 Correlation Energy        =      -2.2389875190956952 [Eh]
	 Total Energy              =    -541.8033866988901082 [Eh]

	 ================> DF-SCS-MP2 Energies <==================
	-----------------------------------------------------------
	 SCS Same-Spin Scale       =       0.3333333333333333 [-]
	 SCS Opposite-Spin Scale   =       1.2000000000000000 [-]
	 SCS Same-Spin Energy      =      -0.1912156021114115 [Eh]
	 SCS Opposite-Spin Energy  =      -1.9984088553137522 [Eh]
	 SCS Correlation Energy    =      -2.1896244574251638 [Eh]
	 SCS Total Energy          =    -541.7540236372195750 [Eh]
	-----------------------------------------------------------

  Dipole Moment: [D]
     X:     2.6777      Y:    -5.6108      Z:     0.8441     Total:     6.2741

*** Psi4 exiting successfully. Buy a developer a beer!
