                               Psi4 1.3.2 release

  ==> Input File <==

--------------------------------------------------------------------------
#psi4
#
memory 32 gb

molecule  {
0 1
  O        0.1763910     2.6970700    -0.0085580
  C        0.2089260     1.4725840     0.0042240
  N        1.4659430     0.7906670    -0.0052000
  C        1.6696020    -0.5667920     0.0018180
  N        0.7040600    -1.4531590     0.0111340
  C       -0.5247500    -0.8567100    -0.0036900
  C       -0.8535700     0.4975280     0.0150930
  N       -2.3169222     0.7011960     0.0131216
  C       -2.7081380    -0.5423290     0.0003530
  N       -1.7302440    -1.5082620    -0.0074590
  N        2.9897270    -0.9822980    -0.0798890
  H        2.2638450     1.4140280    -0.1046570
  H       -3.7608750    -0.7937900    -0.0035550
  H       -1.8528420    -2.5141400    -0.0211820
  H        3.0628590    -1.9839740     0.0678780
  H        3.6422020    -0.4648880     0.5003130
units angstrom
no_reorient  #important for SAPT in psi4, default
symmetry c1  #important for SAPT in psi4, default
}

set PROPERTIES_ORIGIN ["COM"]
properties('MP2/aug-cc-pvtz', properties = ['dipole'])
--------------------------------------------------------------------------

    Molecular point group: c1
  Charge       = 0
  Multiplicity = 1
  Basis Set: AUG-CC-PVTZ
    Blend: AUG-CC-PVTZ
  Basis Set: (AUG-CC-PVTZ AUX)
    Blend: AUG-CC-PVTZ-JKFIT

    Orbital Energies [Eh]
    ---------------------

    Doubly Occupied:

       1A    -20.522546     2A    -15.634384     3A    -15.633077
       4A    -15.614543     5A    -15.576343     6A    -15.573259
       7A    -11.401856     8A    -11.368008     9A    -11.334249
      10A    -11.315060    11A    -11.256355    12A     -1.392582
      13A     -1.358327    14A     -1.334881    15A     -1.222500
      16A     -1.219033    17A     -1.171682    18A     -1.034623
      19A     -0.906319    20A     -0.887392    21A     -0.836249
      22A     -0.800570    23A     -0.739174    24A     -0.729707
      25A     -0.701997    26A     -0.673522    27A     -0.655985
      28A     -0.634342    29A     -0.612971    30A     -0.597733
      31A     -0.582552    32A     -0.547682    33A     -0.501546
      34A     -0.464661    35A     -0.444076    36A     -0.436609
      37A     -0.434538    38A     -0.405406    39A     -0.312218

  @DF-RHF Final Energy:  -539.58069862834930

   => Energetics <=

    Nuclear Repulsion Energy =            591.2368352221793657
    One-Electron Energy =               -1907.8979537153381898
    Two-Electron Energy =                 777.0804198648096417
    Total Energy =                       -539.5806986283492961
  Basis Set: (AUG-CC-PVTZ AUX)
    Blend: AUG-CC-PVTZ-RI
    Molecular point group: c1

    Geometry (in Angstrom), charge = 0, multiplicity = 1:

       Center              X                  Y                   Z               Mass
    ------------   -----------------  -----------------  -----------------  -----------------
         O            0.207593004254     2.667407460475    -0.005662381868    15.994914619570
         C            0.240128004254     1.442921460475     0.007119618132    12.000000000000
         N            1.497145004254     0.761004460475    -0.002304381868    14.003074004430
         C            1.700804004254    -0.596454539525     0.004713618132    12.000000000000
         N            0.735262004254    -1.482821539525     0.014029618132    14.003074004430
         C           -0.493547995746    -0.886372539525    -0.000794381868    12.000000000000
         C           -0.822367995746     0.467865460475     0.017988618132    12.000000000000
         N           -2.285720195746     0.671533460475     0.016017218132    14.003074004430
         C           -2.676935995746    -0.571991539525     0.003248618132    12.000000000000
         N           -1.699041995746    -1.537924539525    -0.004563381868    14.003074004430
         N            3.020929004254    -1.011960539525    -0.076993381868    14.003074004430
         H            2.295047004254     1.384365460475    -0.101761381868     1.007825032230
         H           -3.729672995746    -0.823452539525    -0.000659381868     1.007825032230
         H           -1.821639995746    -2.543802539525    -0.018286381868     1.007825032230
         H            3.094061004254    -2.013636539525     0.070773618132     1.007825032230
         H            3.673404004254    -0.494550539525     0.503208618132     1.007825032230

  Basis Set: AUG-CC-PVTZ
    Blend: AUG-CC-PVTZ
  Basis Set: (AUG-CC-PVTZ AUX)
    Blend: AUG-CC-PVTZ-JKFIT
	 Reference Energy          =    -539.5806986283492961 [Eh]
	 Singles Energy            =      -0.0000000000000000 [Eh]
	 Same-Spin Energy          =      -0.5716464883638460 [Eh]
	 Opposite-Spin Energy      =      -1.6631302135175676 [Eh]
	 Correlation Energy        =      -2.2347767018814135 [Eh]
	 Total Energy              =    -541.8154753302306972 [Eh]

	 ================> DF-SCS-MP2 Energies <==================
	-----------------------------------------------------------
	 SCS Same-Spin Scale       =       0.3333333333333333 [-]
	 SCS Opposite-Spin Scale   =       1.2000000000000000 [-]
	 SCS Same-Spin Energy      =      -0.1905488294546153 [Eh]
	 SCS Opposite-Spin Energy  =      -1.9957562562210811 [Eh]
	 SCS Correlation Energy    =      -2.1863050856756963 [Eh]
	 SCS Total Energy          =    -541.7670037140250088 [Eh]
	-----------------------------------------------------------

  Dipole Moment: [D]
     X:     2.8694      Y:    -5.6787      Z:     0.8426     Total:     6.4180

*** Psi4 exiting successfully. Buy a developer a beer!
