                               Psi4 1.4a3.dev225

  ==> Input File <==

--------------------------------------------------------------------------
#psi4
#
memory 32 gb

molecule  {
0 1
  O        0.1763800     2.6970850    -0.0086780
  C        0.2088860     1.4725900     0.0042210
  N        1.4659360     0.7906750    -0.0050880
  C        1.6696170    -0.5667500     0.0018210
  N        0.7188008    -1.4396200     0.0109604
  C       -0.5247290    -0.8567090    -0.0037110
  C       -0.8535850     0.4975420     0.0152200
  N       -2.2178950     0.6873840     0.0133320
  C       -2.7081200    -0.5423560     0.0003580
  N       -1.7302140    -1.5082770    -0.0075250
  N        2.9897250    -0.9823190    -0.0798750
  H        2.2637990     1.4140370    -0.1048620
  H       -3.7608500    -0.7938460    -0.0035590
  H       -1.8527810    -2.5141570    -0.0214260
  H        3.0628080    -1.9839860     0.0679760
  H        3.6422460    -0.4648460     0.5002060
units angstrom
no_reorient  #important for SAPT in psi4, default
symmetry c1  #important for SAPT in psi4, default
}

set PROPERTIES_ORIGIN ["COM"]
properties('MP2/aug-cc-pvtz', properties = ['dipole'])
--------------------------------------------------------------------------

    Molecular point group: c1
  Charge       = 0
  Multiplicity = 1
  Basis Set: AUG-CC-PVTZ
    Blend: AUG-CC-PVTZ
  Basis Set: (AUG-CC-PVTZ AUX)
    Blend: AUG-CC-PVTZ-JKFIT

    Orbital Energies [Eh]
    ---------------------

    Doubly Occupied:

       1A    -20.524628     2A    -15.638144     3A    -15.629672
       4A    -15.609778     5A    -15.572011     6A    -15.566228
       7A    -11.394077     8A    -11.368139     9A    -11.328836
      10A    -11.315302    11A    -11.252601    12A     -1.393976
      13A     -1.361676    14A     -1.337378    15A     -1.219385
      16A     -1.218338    17A     -1.179823    18A     -1.033091
      19A     -0.907593    20A     -0.883396    21A     -0.845931
      22A     -0.800533    23A     -0.739801    24A     -0.730256
      25A     -0.699888    26A     -0.672904    27A     -0.656995
      28A     -0.635386    29A     -0.614899    30A     -0.602022
      31A     -0.597426    32A     -0.548385    33A     -0.499009
      34A     -0.461709    35A     -0.442929    36A     -0.433484
      37A     -0.431802    38A     -0.413132    39A     -0.305168

  @DF-RHF Final Energy:  -539.58824428393325

   => Energetics <=

    Nuclear Repulsion Energy =            593.9610328982370220
    One-Electron Energy =               -1913.3670947570578846
    Two-Electron Energy =                 779.8178175748877266
    Total Energy =                       -539.5882442839332498
  Basis Set: (AUG-CC-PVTZ AUX)
    Blend: AUG-CC-PVTZ-RI
    Molecular point group: c1

    Geometry (in Angstrom), charge = 0, multiplicity = 1:

       Center              X                  Y                   Z               Mass
    ------------   -----------------  -----------------  -----------------  -----------------
         O            0.197034190104     2.667446143239    -0.005784384476    15.994914619570
         C            0.229540190104     1.442951143239     0.007114615524    12.000000000000
         N            1.486590190104     0.761036143239    -0.002194384476    14.003074004430
         C            1.690271190104    -0.596388856761     0.004714615524    12.000000000000
         N            0.739454990104    -1.469258856761     0.013854015524    14.003074004430
         C           -0.504074809896    -0.886347856761    -0.000817384476    12.000000000000
         C           -0.832930809896     0.467903143239     0.018113615524    12.000000000000
         N           -2.197240809896     0.657745143239     0.016225615524    14.003074004430
         C           -2.687465809896    -0.571994856761     0.003251615524    12.000000000000
         N           -1.709559809896    -1.537915856761    -0.004631384476    14.003074004430
         N            3.010379190104    -1.011957856761    -0.076981384476    14.003074004430
         H            2.284453190104     1.384398143239    -0.101968384476     1.007825032230
         H           -3.740195809896    -0.823484856761    -0.000665384476     1.007825032230
         H           -1.832126809896    -2.543795856761    -0.018532384476     1.007825032230
         H            3.083462190104    -2.013624856761     0.070869615524     1.007825032230
         H            3.662900190104    -0.494484856761     0.503099615524     1.007825032230

  Basis Set: AUG-CC-PVTZ
    Blend: AUG-CC-PVTZ
  Basis Set: (AUG-CC-PVTZ AUX)
    Blend: AUG-CC-PVTZ-JKFIT
	 Reference Energy          =    -539.5882442839332498 [Eh]
	 Singles Energy            =      -0.0000000000000000 [Eh]
	 Same-Spin Energy          =      -0.5727537012408805 [Eh]
	 Opposite-Spin Energy      =      -1.6626961061832368 [Eh]
	 Correlation Energy        =      -2.2354498074241174 [Eh]
	 Total Energy              =    -541.8236940913573108 [Eh]

	 ================> DF-SCS-MP2 Energies <==================
	-----------------------------------------------------------
	 SCS Same-Spin Scale       =       0.3333333333333333 [-]
	 SCS Opposite-Spin Scale   =       1.2000000000000000 [-]
	 SCS Same-Spin Energy      =      -0.1909179004136268 [Eh]
	 SCS Opposite-Spin Energy  =      -1.9952353274198842 [Eh]
	 SCS Correlation Energy    =      -2.1861532278335112 [Eh]
	 SCS Total Energy          =    -541.7743975117667787 [Eh]
	-----------------------------------------------------------

  Dipole Moment: [D]
     X:     2.5573      Y:    -5.6593      Z:     0.8457     Total:     6.2676

*** Psi4 exiting successfully. Buy a developer a beer!
