                               Psi4 1.3.2 release

  ==> Input File <==

--------------------------------------------------------------------------
#psi4
#
memory 32 gb

molecule  {
0 1
  O        0.1763910     2.6970700    -0.0085580
  C        0.2866193     1.5995857    -0.0113282
  N        1.4659430     0.7906670    -0.0052000
  C        1.6696020    -0.5667920     0.0018180
  N        0.7040600    -1.4531590     0.0111340
  C       -0.5247500    -0.8567100    -0.0036900
  C       -0.8535700     0.4975280     0.0150930
  N       -2.2178770     0.6874110     0.0132550
  C       -2.7081380    -0.5423290     0.0003530
  N       -1.7302440    -1.5082620    -0.0074590
  N        2.9897270    -0.9822980    -0.0798890
  H        2.2638450     1.4140280    -0.1046570
  H       -3.7608750    -0.7937900    -0.0035550
  H       -1.8528420    -2.5141400    -0.0211820
  H        3.0628590    -1.9839740     0.0678780
  H        3.6422020    -0.4648880     0.5003130
units angstrom
no_reorient  #important for SAPT in psi4, default
symmetry c1  #important for SAPT in psi4, default
}

set PROPERTIES_ORIGIN ["COM"]
properties('MP2/aug-cc-pvtz', properties = ['dipole'])
--------------------------------------------------------------------------

    Molecular point group: c1
  Charge       = 0
  Multiplicity = 1
  Basis Set: AUG-CC-PVTZ
    Blend: AUG-CC-PVTZ
  Basis Set: (AUG-CC-PVTZ AUX)
    Blend: AUG-CC-PVTZ-JKFIT

    Orbital Energies [Eh]
    ---------------------

    Doubly Occupied:

       1A    -20.554060     2A    -15.625795     3A    -15.625079
       4A    -15.607872     5A    -15.564509     6A    -15.554983
       7A    -11.393670     8A    -11.371125     9A    -11.308489
      10A    -11.301781    11A    -11.245216    12A     -1.481372
      13A     -1.361444    14A     -1.331960    15A     -1.222001
      16A     -1.210291    17A     -1.166298    18A     -1.005614
      19A     -0.894683    20A     -0.872690    21A     -0.832946
      22A     -0.794011    23A     -0.726841    24A     -0.725025
      25A     -0.703239    26A     -0.680114    27A     -0.656318
      28A     -0.653358    29A     -0.627858    30A     -0.601820
      31A     -0.594939    32A     -0.576744    33A     -0.491128
      34A     -0.461999    35A     -0.446917    36A     -0.438629
      37A     -0.420150    38A     -0.401530    39A     -0.289366

  @DF-RHF Final Energy:  -539.55725338272873

   => Energetics <=

    Nuclear Repulsion Energy =            592.9877029100061918
    One-Electron Energy =               -1911.4461821881930064
    Two-Electron Energy =                 778.9012258954580830
    Total Energy =                       -539.5572533827287316
  Basis Set: (AUG-CC-PVTZ AUX)
    Blend: AUG-CC-PVTZ-RI
    Molecular point group: c1

    Geometry (in Angstrom), charge = 0, multiplicity = 1:

       Center              X                  Y                   Z               Mass
    ------------   -----------------  -----------------  -----------------  -----------------
         O            0.192238711454     2.658595853554    -0.004439216613    15.994914619570
         C            0.302467011454     1.561111553554    -0.007209416613    12.000000000000
         N            1.481790711454     0.752192853554    -0.001081216613    14.003074004430
         C            1.685449711454    -0.605266146446     0.005936783387    12.000000000000
         N            0.719907711454    -1.491633146446     0.015252783387    14.003074004430
         C           -0.508902288546    -0.895184146446     0.000428783387    12.000000000000
         C           -0.837722288546     0.459053853554     0.019211783387    12.000000000000
         N           -2.202029288546     0.648936853554     0.017373783387    14.003074004430
         C           -2.692290288546    -0.580803146446     0.004471783387    12.000000000000
         N           -1.714396288546    -1.546736146446    -0.003340216613    14.003074004430
         N            3.005574711454    -1.020772146446    -0.075770216613    14.003074004430
         H            2.279692711454     1.375553853554    -0.100538216613     1.007825032230
         H           -3.745027288546    -0.832264146446     0.000563783387     1.007825032230
         H           -1.836994288546    -2.552614146446    -0.017063216613     1.007825032230
         H            3.078706711454    -2.022448146446     0.071996783387     1.007825032230
         H            3.658049711454    -0.503362146446     0.504431783387     1.007825032230

  Basis Set: AUG-CC-PVTZ
    Blend: AUG-CC-PVTZ
  Basis Set: (AUG-CC-PVTZ AUX)
    Blend: AUG-CC-PVTZ-JKFIT
	 Reference Energy          =    -539.5572533827287316 [Eh]
	 Singles Energy            =      -0.0000000000000000 [Eh]
	 Same-Spin Energy          =      -0.5708905554743333 [Eh]
	 Opposite-Spin Energy      =      -1.6594757602892805 [Eh]
	 Correlation Energy        =      -2.2303663157636135 [Eh]
	 Total Energy              =    -541.7876196984923354 [Eh]

	 ================> DF-SCS-MP2 Energies <==================
	-----------------------------------------------------------
	 SCS Same-Spin Scale       =       0.3333333333333333 [-]
	 SCS Opposite-Spin Scale   =       1.2000000000000000 [-]
	 SCS Same-Spin Energy      =      -0.1902968518247778 [Eh]
	 SCS Opposite-Spin Energy  =      -1.9913709123471364 [Eh]
	 SCS Correlation Energy    =      -2.1816677641719142 [Eh]
	 SCS Total Energy          =    -541.7389211469006796 [Eh]
	-----------------------------------------------------------

  Dipole Moment: [D]
     X:     3.0297      Y:    -4.3038      Z:     0.8166     Total:     5.3262

*** Psi4 exiting successfully. Buy a developer a beer!
