                               Psi4 1.3.2 release

  ==> Input File <==

--------------------------------------------------------------------------
#psi4
#
memory 32 gb

molecule  {
0 1
  O        0.1763910     2.6970700    -0.0085580
  C        0.2333325     1.5158186    -0.0009570
  N        1.4659430     0.7906670    -0.0052000
  C        1.6696020    -0.5667920     0.0018180
  N        0.7040600    -1.4531590     0.0111340
  C       -0.5247500    -0.8567100    -0.0036900
  C       -0.8535700     0.4975280     0.0150930
  N       -2.2178770     0.6874110     0.0132550
  C       -2.7081380    -0.5423290     0.0003530
  N       -1.7302440    -1.5082620    -0.0074590
  N        2.9897270    -0.9822980    -0.0798890
  H        2.2638450     1.4140280    -0.1046570
  H       -3.7608750    -0.7937900    -0.0035550
  H       -1.8528420    -2.5141400    -0.0211820
  H        3.0628590    -1.9839740     0.0678780
  H        3.6422020    -0.4648880     0.5003130
units angstrom
no_reorient  #important for SAPT in psi4, default
symmetry c1  #important for SAPT in psi4, default
}

set PROPERTIES_ORIGIN ["COM"]
properties('MP2/aug-cc-pvtz', properties = ['dipole'])
--------------------------------------------------------------------------

    Molecular point group: c1
  Charge       = 0
  Multiplicity = 1
  Basis Set: AUG-CC-PVTZ
    Blend: AUG-CC-PVTZ
  Basis Set: (AUG-CC-PVTZ AUX)
    Blend: AUG-CC-PVTZ-JKFIT

    Orbital Energies [Eh]
    ---------------------

    Doubly Occupied:

       1A    -20.534854     2A    -15.632432     3A    -15.629571
       4A    -15.610768     5A    -15.570267     6A    -15.561956
       7A    -11.396771     8A    -11.369503     9A    -11.320990
      10A    -11.309954    11A    -11.250395    12A     -1.415964
      13A     -1.364959    14A     -1.336158    15A     -1.221463
      16A     -1.215769    17A     -1.174194    18A     -1.021949
      19A     -0.899604    20A     -0.883879    21A     -0.840915
      22A     -0.797301    23A     -0.735304    24A     -0.727611
      25A     -0.700349    26A     -0.673044    27A     -0.654490
      28A     -0.635349    29A     -0.626875    30A     -0.599054
      31A     -0.595059    32A     -0.558759    33A     -0.496793
      34A     -0.461659    35A     -0.447462    36A     -0.436527
      37A     -0.430740    38A     -0.408882    39A     -0.298473

  @DF-RHF Final Energy:  -539.58651932931912

   => Energetics <=

    Nuclear Repulsion Energy =            593.3710746954093338
    One-Electron Energy =               -1912.2231020582660221
    Two-Electron Energy =                 779.2655080335375715
    Total Energy =                       -539.5865193293191169
  Basis Set: (AUG-CC-PVTZ AUX)
    Blend: AUG-CC-PVTZ-RI
    Molecular point group: c1

    Geometry (in Angstrom), charge = 0, multiplicity = 1:

       Center              X                  Y                   Z               Mass
    ------------   -----------------  -----------------  -----------------  -----------------
         O            0.196472038819     2.665250664064    -0.005263148333    15.994914619570
         C            0.253413538819     1.483999264064     0.002337851667    12.000000000000
         N            1.486024038819     0.758847664064    -0.001905148333    14.003074004430
         C            1.689683038819    -0.598611335936     0.005112851667    12.000000000000
         N            0.724141038819    -1.484978335936     0.014428851667    14.003074004430
         C           -0.504668961181    -0.888529335936    -0.000395148333    12.000000000000
         C           -0.833488961181     0.465708664064     0.018387851667    12.000000000000
         N           -2.197795961181     0.655591664064     0.016549851667    14.003074004430
         C           -2.688056961181    -0.574148335936     0.003647851667    12.000000000000
         N           -1.710162961181    -1.540081335936    -0.004164148333    14.003074004430
         N            3.009808038819    -1.014117335936    -0.076594148333    14.003074004430
         H            2.283926038819     1.382208664064    -0.101362148333     1.007825032230
         H           -3.740793961181    -0.825609335936    -0.000260148333     1.007825032230
         H           -1.832760961181    -2.545959335936    -0.017887148333     1.007825032230
         H            3.082940038819    -2.015793335936     0.071172851667     1.007825032230
         H            3.662283038819    -0.496707335936     0.503607851667     1.007825032230

  Basis Set: AUG-CC-PVTZ
    Blend: AUG-CC-PVTZ
  Basis Set: (AUG-CC-PVTZ AUX)
    Blend: AUG-CC-PVTZ-JKFIT
	 Reference Energy          =    -539.5865193293191169 [Eh]
	 Singles Energy            =      -0.0000000000000000 [Eh]
	 Same-Spin Energy          =      -0.5721525127332423 [Eh]
	 Opposite-Spin Energy      =      -1.6616329358708959 [Eh]
	 Correlation Energy        =      -2.2337854486041380 [Eh]
	 Total Energy              =    -541.8203047779232975 [Eh]

	 ================> DF-SCS-MP2 Energies <==================
	-----------------------------------------------------------
	 SCS Same-Spin Scale       =       0.3333333333333333 [-]
	 SCS Opposite-Spin Scale   =       1.2000000000000000 [-]
	 SCS Same-Spin Energy      =      -0.1907175042444141 [Eh]
	 SCS Opposite-Spin Energy  =      -1.9939595230450751 [Eh]
	 SCS Correlation Energy    =      -2.1846770272894891 [Eh]
	 SCS Total Energy          =    -541.7711963566085842 [Eh]
	-----------------------------------------------------------

  Dipole Moment: [D]
     X:     2.7756      Y:    -5.1952      Z:     0.8366     Total:     5.9493

*** Psi4 exiting successfully. Buy a developer a beer!
