                               Psi4 1.3.2 release

  ==> Input File <==

--------------------------------------------------------------------------
#psi4
#
memory 32 gb

molecule  {
0 1
  O        0.1763910     2.6970700    -0.0085580
  C        0.2089260     1.4725840     0.0042240
  N        1.4659430     0.7906670    -0.0052000
  C        1.6696020    -0.5667920     0.0018180
  N        0.7040600    -1.4531590     0.0111340
  C       -0.5247500    -0.8567100    -0.0036900
  C       -0.8298831     0.5030612     0.0150731
  N       -2.2178770     0.6874110     0.0132550
  C       -2.7081380    -0.5423290     0.0003530
  N       -1.7302440    -1.5082620    -0.0074590
  N        2.9897270    -0.9822980    -0.0798890
  H        2.2638450     1.4140280    -0.1046570
  H       -3.7608750    -0.7937900    -0.0035550
  H       -1.8528420    -2.5141400    -0.0211820
  H        3.0628590    -1.9839740     0.0678780
  H        3.6422020    -0.4648880     0.5003130
units angstrom
no_reorient  #important for SAPT in psi4, default
symmetry c1  #important for SAPT in psi4, default
}

set PROPERTIES_ORIGIN ["COM"]
properties('MP2/aug-cc-pvtz', properties = ['dipole'])
--------------------------------------------------------------------------

    Molecular point group: c1
  Charge       = 0
  Multiplicity = 1
  Basis Set: AUG-CC-PVTZ
    Blend: AUG-CC-PVTZ
  Basis Set: (AUG-CC-PVTZ AUX)
    Blend: AUG-CC-PVTZ-JKFIT

    Orbital Energies [Eh]
    ---------------------

    Doubly Occupied:

       1A    -20.522737     2A    -15.636575     3A    -15.631557
       4A    -15.612656     5A    -15.573928     6A    -15.566224
       7A    -11.399112     8A    -11.365998     9A    -11.330619
      10A    -11.315282    11A    -11.250644    12A     -1.393343
      13A     -1.359701    14A     -1.335186    15A     -1.221279
      16A     -1.217673    17A     -1.174967    18A     -1.034385
      19A     -0.910341    20A     -0.885259    21A     -0.842901
      22A     -0.799508    23A     -0.740176    24A     -0.730309
      25A     -0.701707    26A     -0.674721    27A     -0.656750
      28A     -0.633633    29A     -0.614741    30A     -0.600512
      31A     -0.595995    32A     -0.548330    33A     -0.498891
      34A     -0.462531    35A     -0.440936    36A     -0.433856
      37A     -0.432362    38A     -0.410065    39A     -0.305562

  @DF-RHF Final Energy:  -539.58685832636638

   => Energetics <=

    Nuclear Repulsion Energy =            593.7042481420495506
    One-Electron Energy =               -1912.8603088190009203
    Two-Electron Energy =                 779.5692023505848738
    Total Energy =                       -539.5868583263663822
  Basis Set: (AUG-CC-PVTZ AUX)
    Blend: AUG-CC-PVTZ-RI
    Molecular point group: c1

    Geometry (in Angstrom), charge = 0, multiplicity = 1:

       Center              X                  Y                   Z               Mass
    ------------   -----------------  -----------------  -----------------  -----------------
         O            0.196529206868     2.668245821746    -0.005673167810    15.994914619570
         C            0.229064206868     1.443759821746     0.007108832190    12.000000000000
         N            1.486081206868     0.761842821746    -0.002315167810    14.003074004430
         C            1.689740206868    -0.595616178254     0.004702832190    12.000000000000
         N            0.724198206868    -1.481983178254     0.014018832190    14.003074004430
         C           -0.504611793132    -0.885534178254    -0.000805167810    12.000000000000
         C           -0.809744893132     0.474237021746     0.017957932190    12.000000000000
         N           -2.197738793132     0.658586821746     0.016139832190    14.003074004430
         C           -2.687999793132    -0.571153178254     0.003237832190    12.000000000000
         N           -1.710105793132    -1.537086178254    -0.004574167810    14.003074004430
         N            3.009865206868    -1.011122178254    -0.077004167810    14.003074004430
         H            2.283983206868     1.385203821746    -0.101772167810     1.007825032230
         H           -3.740736793132    -0.822614178254    -0.000670167810     1.007825032230
         H           -1.832703793132    -2.542964178254    -0.018297167810     1.007825032230
         H            3.082997206868    -2.012798178254     0.070762832190     1.007825032230
         H            3.662340206868    -0.493712178254     0.503197832190     1.007825032230

  Basis Set: AUG-CC-PVTZ
    Blend: AUG-CC-PVTZ
  Basis Set: (AUG-CC-PVTZ AUX)
    Blend: AUG-CC-PVTZ-JKFIT
	 Reference Energy          =    -539.5868583263663822 [Eh]
	 Singles Energy            =      -0.0000000000000000 [Eh]
	 Same-Spin Energy          =      -0.5728917872228573 [Eh]
	 Opposite-Spin Energy      =      -1.6632567469042772 [Eh]
	 Correlation Energy        =      -2.2361485341271345 [Eh]
	 Total Energy              =    -541.8230068604934786 [Eh]

	 ================> DF-SCS-MP2 Energies <==================
	-----------------------------------------------------------
	 SCS Same-Spin Scale       =       0.3333333333333333 [-]
	 SCS Opposite-Spin Scale   =       1.2000000000000000 [-]
	 SCS Same-Spin Energy      =      -0.1909639290742857 [Eh]
	 SCS Opposite-Spin Energy  =      -1.9959080962851325 [Eh]
	 SCS Correlation Energy    =      -2.1868720253594183 [Eh]
	 SCS Total Energy          =    -541.7737303517258169 [Eh]
	-----------------------------------------------------------

  Dipole Moment: [D]
     X:     2.6629      Y:    -5.6937      Z:     0.8437     Total:     6.3420

*** Psi4 exiting successfully. Buy a developer a beer!
