                               Psi4 1.3.2 release

  ==> Input File <==

--------------------------------------------------------------------------
#psi4
#
memory 32 gb

molecule  {
0 1
  O        0.0485686     2.6869623    -0.0083712
  C        0.2089260     1.4725840     0.0042240
  N        1.4659430     0.7906670    -0.0052000
  C        1.6696020    -0.5667920     0.0018180
  N        0.7040600    -1.4531590     0.0111340
  C       -0.5247500    -0.8567100    -0.0036900
  C       -0.8535700     0.4975280     0.0150930
  N       -2.2178770     0.6874110     0.0132550
  C       -2.7081380    -0.5423290     0.0003530
  N       -1.7302440    -1.5082620    -0.0074590
  N        2.9897270    -0.9822980    -0.0798890
  H        2.2638450     1.4140280    -0.1046570
  H       -3.7608750    -0.7937900    -0.0035550
  H       -1.8528420    -2.5141400    -0.0211820
  H        3.0628590    -1.9839740     0.0678780
  H        3.6422020    -0.4648880     0.5003130
units angstrom
no_reorient  #important for SAPT in psi4, default
symmetry c1  #important for SAPT in psi4, default
}

set PROPERTIES_ORIGIN ["COM"]
properties('MP2/aug-cc-pvtz', properties = ['dipole'])
--------------------------------------------------------------------------

    Molecular point group: c1
  Charge       = 0
  Multiplicity = 1
  Basis Set: AUG-CC-PVTZ
    Blend: AUG-CC-PVTZ
  Basis Set: (AUG-CC-PVTZ AUX)
    Blend: AUG-CC-PVTZ-JKFIT

    Orbital Energies [Eh]
    ---------------------

    Doubly Occupied:

       1A    -20.525212     2A    -15.637361     3A    -15.633947
       4A    -15.613553     5A    -15.574321     6A    -15.562801
       7A    -11.400325     8A    -11.367770     9A    -11.323704
      10A    -11.312185    11A    -11.247194    12A     -1.392289
      13A     -1.358780    14A     -1.337443    15A     -1.224337
      16A     -1.218677    17A     -1.176251    18A     -1.028764
      19A     -0.905776    20A     -0.886944    21A     -0.842584
      22A     -0.799657    23A     -0.741723    24A     -0.730261
      25A     -0.700568    26A     -0.672700    27A     -0.656357
      28A     -0.634004    29A     -0.614310    30A     -0.599218
      31A     -0.595581    32A     -0.548057    33A     -0.499141
      34A     -0.463103    35A     -0.442918    36A     -0.435113
      37A     -0.429188    38A     -0.409579    39A     -0.300502

  @DF-RHF Final Energy:  -539.58400791761267

   => Energetics <=

    Nuclear Repulsion Energy =            593.8930399031540901
    One-Electron Energy =               -1913.2696967333779412
    Two-Electron Energy =                 779.7926489126112983
    Total Energy =                       -539.5840079176126665
  Basis Set: (AUG-CC-PVTZ AUX)
    Blend: AUG-CC-PVTZ-RI
    Molecular point group: c1

    Geometry (in Angstrom), charge = 0, multiplicity = 1:

       Center              X                  Y                   Z               Mass
    ------------   -----------------  -----------------  -----------------  -----------------
         O            0.084123955319     2.659648026344    -0.005507729363    15.994914619570
         C            0.244481355319     1.445269726344     0.007087470637    12.000000000000
         N            1.501498355319     0.763352726344    -0.002336529363    14.003074004430
         C            1.705157355319    -0.594106273656     0.004681470637    12.000000000000
         N            0.739615355319    -1.480473273656     0.013997470637    14.003074004430
         C           -0.489194644681    -0.884024273656    -0.000826529363    12.000000000000
         C           -0.818014644681     0.470213726344     0.017956470637    12.000000000000
         N           -2.182321644681     0.660096726344     0.016118470637    14.003074004430
         C           -2.672582644681    -0.569643273656     0.003216470637    12.000000000000
         N           -1.694688644681    -1.535576273656    -0.004595529363    14.003074004430
         N            3.025282355319    -1.009612273656    -0.077025529363    14.003074004430
         H            2.299400355319     1.386713726344    -0.101793529363     1.007825032230
         H           -3.725319644681    -0.821104273656    -0.000691529363     1.007825032230
         H           -1.817286644681    -2.541454273656    -0.018318529363     1.007825032230
         H            3.098414355319    -2.011288273656     0.070741470637     1.007825032230
         H            3.677757355319    -0.492202273656     0.503176470637     1.007825032230

  Basis Set: AUG-CC-PVTZ
    Blend: AUG-CC-PVTZ
  Basis Set: (AUG-CC-PVTZ AUX)
    Blend: AUG-CC-PVTZ-JKFIT
	 Reference Energy          =    -539.5840079176126665 [Eh]
	 Singles Energy            =      -0.0000000000000000 [Eh]
	 Same-Spin Energy          =      -0.5733826708653180 [Eh]
	 Opposite-Spin Energy      =      -1.6639335617049498 [Eh]
	 Correlation Energy        =      -2.2373162325702678 [Eh]
	 Total Energy              =    -541.8213241501829316 [Eh]

	 ================> DF-SCS-MP2 Energies <==================
	-----------------------------------------------------------
	 SCS Same-Spin Scale       =       0.3333333333333333 [-]
	 SCS Opposite-Spin Scale   =       1.2000000000000000 [-]
	 SCS Same-Spin Energy      =      -0.1911275569551060 [Eh]
	 SCS Opposite-Spin Energy  =      -1.9967202740459395 [Eh]
	 SCS Correlation Energy    =      -2.1878478310010454 [Eh]
	 SCS Total Energy          =    -541.7718557486136888 [Eh]
	-----------------------------------------------------------

  Dipole Moment: [D]
     X:     2.9469      Y:    -5.5535      Z:     0.8436     Total:     6.3433

*** Psi4 exiting successfully. Buy a developer a beer!
