                               Psi4 1.4a3.dev225

  ==> Input File <==

--------------------------------------------------------------------------
#psi4
#
memory 32 gb

molecule  {
0 1
  O        0.1763800     2.6970850    -0.0086780
  C        0.2088860     1.4725900     0.0042210
  N        1.4659360     0.7906750    -0.0050880
  C        1.6696170    -0.5667500     0.0018210
  N        0.7040680    -1.4531450     0.0111020
  C       -0.5247290    -0.8567090    -0.0037110
  C       -0.8535850     0.4975420     0.0152200
  N       -2.2178950     0.6873840     0.0133320
  C       -2.7081200    -0.5423560     0.0003580
  N       -1.7657861    -1.4731409    -0.0072382
  N        2.9897250    -0.9823190    -0.0798750
  H        2.2637990     1.4140370    -0.1048620
  H       -3.7608500    -0.7938460    -0.0035590
  H       -1.8527810    -2.5141570    -0.0214260
  H        3.0628080    -1.9839860     0.0679760
  H        3.6422460    -0.4648460     0.5002060
units angstrom
no_reorient  #important for SAPT in psi4, default
symmetry c1  #important for SAPT in psi4, default
}

set PROPERTIES_ORIGIN ["COM"]
properties('MP2/aug-cc-pvtz', properties = ['dipole'])
--------------------------------------------------------------------------

    Molecular point group: c1
  Charge       = 0
  Multiplicity = 1
  Basis Set: AUG-CC-PVTZ
    Blend: AUG-CC-PVTZ
  Basis Set: (AUG-CC-PVTZ AUX)
    Blend: AUG-CC-PVTZ-JKFIT

    Orbital Energies [Eh]
    ---------------------

    Doubly Occupied:

       1A    -20.525000     2A    -15.639420     3A    -15.632362
       4A    -15.612234     5A    -15.574977     6A    -15.558605
       7A    -11.398490     8A    -11.368127     9A    -11.325985
      10A    -11.309935    11A    -11.251811    12A     -1.394462
      13A     -1.366003    14A     -1.338155    15A     -1.220993
      16A     -1.217547    17A     -1.175266    18A     -1.033420
      19A     -0.910106    20A     -0.884890    21A     -0.840409
      22A     -0.799205    23A     -0.742792    24A     -0.730668
      25A     -0.700650    26A     -0.672657    27A     -0.656943
      28A     -0.636734    29A     -0.612654    30A     -0.603007
      31A     -0.596113    32A     -0.547831    33A     -0.497725
      34A     -0.462979    35A     -0.442417    36A     -0.432892
      37A     -0.431422    38A     -0.411218    39A     -0.301829

  @DF-RHF Final Energy:  -539.58311875541585

   => Energetics <=

    Nuclear Repulsion Energy =            594.0959969980809774
    One-Electron Energy =               -1913.6423628524216838
    Two-Electron Energy =                 779.9632470989249668
    Total Energy =                       -539.5831187554158532
  Basis Set: (AUG-CC-PVTZ AUX)
    Blend: AUG-CC-PVTZ-RI
    Molecular point group: c1

    Geometry (in Angstrom), charge = 0, multiplicity = 1:

       Center              X                  Y                   Z               Mass
    ------------   -----------------  -----------------  -----------------  -----------------
         O            0.201697718670     2.665442680710    -0.005824099407    15.994914619570
         C            0.234203718670     1.440947680710     0.007074900593    12.000000000000
         N            1.491253718670     0.759032680710    -0.002234099407    14.003074004430
         C            1.694934718670    -0.598392319290     0.004674900593    12.000000000000
         N            0.729385718670    -1.484787319290     0.013955900593    14.003074004430
         C           -0.499411281330    -0.888351319290    -0.000857099407    12.000000000000
         C           -0.828267281330     0.465899680710     0.018073900593    12.000000000000
         N           -2.192577281330     0.655741680710     0.016185900593    14.003074004430
         C           -2.682802281330    -0.573998319290     0.003211900593    12.000000000000
         N           -1.740468381330    -1.504783219290    -0.004384299407    14.003074004430
         N            3.015042718670    -1.013961319290    -0.077021099407    14.003074004430
         H            2.289116718670     1.382394680710    -0.102008099407     1.007825032230
         H           -3.735532281330    -0.825488319290    -0.000705099407     1.007825032230
         H           -1.827463281330    -2.545799319290    -0.018572099407     1.007825032230
         H            3.088125718670    -2.015628319290     0.070829900593     1.007825032230
         H            3.667563718670    -0.496488319290     0.503059900593     1.007825032230

  Basis Set: AUG-CC-PVTZ
    Blend: AUG-CC-PVTZ
  Basis Set: (AUG-CC-PVTZ AUX)
    Blend: AUG-CC-PVTZ-JKFIT
	 Reference Energy          =    -539.5831187554158532 [Eh]
	 Singles Energy            =      -0.0000000000000000 [Eh]
	 Same-Spin Energy          =      -0.5736836901511582 [Eh]
	 Opposite-Spin Energy      =      -1.6636247831909783 [Eh]
	 Correlation Energy        =      -2.2373084733421367 [Eh]
	 Total Energy              =    -541.8204272287580352 [Eh]

	 ================> DF-SCS-MP2 Energies <==================
	-----------------------------------------------------------
	 SCS Same-Spin Scale       =       0.3333333333333333 [-]
	 SCS Opposite-Spin Scale   =       1.2000000000000000 [-]
	 SCS Same-Spin Energy      =      -0.1912278967170527 [Eh]
	 SCS Opposite-Spin Energy  =      -1.9963497398291739 [Eh]
	 SCS Correlation Energy    =      -2.1875776365462265 [Eh]
	 SCS Total Energy          =    -541.7706963919621330 [Eh]
	-----------------------------------------------------------

  Dipole Moment: [D]
     X:     2.7044      Y:    -5.7163      Z:     0.8437     Total:     6.3798

*** Psi4 exiting successfully. Buy a developer a beer!
