                               Psi4 1.3.2 release

  ==> Input File <==

--------------------------------------------------------------------------
#psi4
#
memory 32 gb

molecule  {
0 1
  O        0.1763910     2.6970700    -0.0085580
  C        0.2089260     1.4725840     0.0042240
  N        1.4659430     0.7906670    -0.0052000
  C        1.6696020    -0.5667920     0.0018180
  N        0.7241303    -1.4099097     0.0109145
  C       -0.5247500    -0.8567100    -0.0036900
  C       -0.8535700     0.4975280     0.0150930
  N       -2.2178770     0.6874110     0.0132550
  C       -2.7081380    -0.5423290     0.0003530
  N       -1.7302440    -1.5082620    -0.0074590
  N        2.9897270    -0.9822980    -0.0798890
  H        2.2638450     1.4140280    -0.1046570
  H       -3.7608750    -0.7937900    -0.0035550
  H       -1.8528420    -2.5141400    -0.0211820
  H        3.0628590    -1.9839740     0.0678780
  H        3.6422020    -0.4648880     0.5003130
units angstrom
no_reorient  #important for SAPT in psi4, default
symmetry c1  #important for SAPT in psi4, default
}

set PROPERTIES_ORIGIN ["COM"]
properties('MP2/aug-cc-pvtz', properties = ['dipole'])
--------------------------------------------------------------------------

    Molecular point group: c1
  Charge       = 0
  Multiplicity = 1
  Basis Set: AUG-CC-PVTZ
    Blend: AUG-CC-PVTZ
  Basis Set: (AUG-CC-PVTZ AUX)
    Blend: AUG-CC-PVTZ-JKFIT

    Orbital Energies [Eh]
    ---------------------

    Doubly Occupied:

       1A    -20.523821     2A    -15.639628     3A    -15.626597
       4A    -15.607910     5A    -15.568440     6A    -15.566663
       7A    -11.389217     8A    -11.367470     9A    -11.329149
      10A    -11.316004    11A    -11.252817    12A     -1.394733
      13A     -1.362449    14A     -1.339571    15A     -1.221022
      16A     -1.217808    17A     -1.181271    18A     -1.034837
      19A     -0.908550    20A     -0.883263    21A     -0.846526
      22A     -0.803215    23A     -0.738911    24A     -0.731575
      25A     -0.699204    26A     -0.672837    27A     -0.658478
      28A     -0.639430    29A     -0.614696    30A     -0.602145
      31A     -0.598139    32A     -0.548936    33A     -0.497050
      34A     -0.462327    35A     -0.441385    36A     -0.432590
      37A     -0.430885    38A     -0.413876    39A     -0.306289

  @DF-RHF Final Energy:  -539.58812665750486

   => Energetics <=

    Nuclear Repulsion Energy =            594.7706458906864100
    One-Electron Energy =               -1914.9781171437248304
    Two-Electron Energy =                 780.6193445955335619
    Total Energy =                       -539.5881266575048585
  Basis Set: (AUG-CC-PVTZ AUX)
    Blend: AUG-CC-PVTZ-RI
    Molecular point group: c1

    Geometry (in Angstrom), charge = 0, multiplicity = 1:

       Center              X                  Y                   Z               Mass
    ------------   -----------------  -----------------  -----------------  -----------------
         O            0.196550371491     2.664675965039    -0.005654399946    15.994914619570
         C            0.229085371491     1.440189965039     0.007127600054    12.000000000000
         N            1.486102371491     0.758272965039    -0.002296399946    14.003074004430
         C            1.689761371491    -0.599186034961     0.004721600054    12.000000000000
         N            0.744289671491    -1.442303734961     0.013818100054    14.003074004430
         C           -0.504590628509    -0.889104034961    -0.000786399946    12.000000000000
         C           -0.833410628509     0.465133965039     0.017996600054    12.000000000000
         N           -2.197717628509     0.655016965039     0.016158600054    14.003074004430
         C           -2.687978628509    -0.574723034961     0.003256600054    12.000000000000
         N           -1.710084628509    -1.540656034961    -0.004555399946    14.003074004430
         N            3.009886371491    -1.014692034961    -0.076985399946    14.003074004430
         H            2.284004371491     1.381633965039    -0.101753399946     1.007825032230
         H           -3.740715628509    -0.826184034961    -0.000651399946     1.007825032230
         H           -1.832682628509    -2.546534034961    -0.018278399946     1.007825032230
         H            3.083018371491    -2.016368034961     0.070781600054     1.007825032230
         H            3.662361371491    -0.497282034961     0.503216600054     1.007825032230

  Basis Set: AUG-CC-PVTZ
    Blend: AUG-CC-PVTZ
  Basis Set: (AUG-CC-PVTZ AUX)
    Blend: AUG-CC-PVTZ-JKFIT
	 Reference Energy          =    -539.5881266575048585 [Eh]
	 Singles Energy            =      -0.0000000000000000 [Eh]
	 Same-Spin Energy          =      -0.5725549418925348 [Eh]
	 Opposite-Spin Energy      =      -1.6619006763309490 [Eh]
	 Correlation Energy        =      -2.2344556182234836 [Eh]
	 Total Energy              =    -541.8225822757283368 [Eh]

	 ================> DF-SCS-MP2 Energies <==================
	-----------------------------------------------------------
	 SCS Same-Spin Scale       =       0.3333333333333333 [-]
	 SCS Opposite-Spin Scale   =       1.2000000000000000 [-]
	 SCS Same-Spin Energy      =      -0.1908516472975116 [Eh]
	 SCS Opposite-Spin Energy  =      -1.9942808115971387 [Eh]
	 SCS Correlation Energy    =      -2.1851324588946501 [Eh]
	 SCS Total Energy          =    -541.7732591163994584 [Eh]
	-----------------------------------------------------------

  Dipole Moment: [D]
     X:     2.4792      Y:    -5.7444      Z:     0.8491     Total:     6.3139

*** Psi4 exiting successfully. Buy a developer a beer!
