                               Psi4 1.3.2 release

  ==> Input File <==

--------------------------------------------------------------------------
#psi4
#
memory 32 gb

molecule  {
0 1
  O        0.1763910     2.6970700    -0.0085580
  C        0.2089260     1.4725840     0.0042240
  N        1.4659430     0.7906670    -0.0052000
  C        1.6696020    -0.5667920     0.0018180
  N        0.7040600    -1.4531590     0.0111340
  C       -0.5247500    -0.8567100    -0.0036900
  C       -0.8535700     0.4975280     0.0150930
  N       -2.2178770     0.6874110     0.0132550
  C       -2.7081380    -0.5423290     0.0003530
  N       -1.7302440    -1.5082620    -0.0074590
  N        2.9897270    -0.9822980    -0.0798890
  H        2.2638450     1.4140280    -0.1046570
  H       -3.7608750    -0.7937900    -0.0035550
  H       -1.8770370    -2.7126526    -0.0238903
  H        3.0628590    -1.9839740     0.0678780
  H        3.6422020    -0.4648880     0.5003130
units angstrom
no_reorient  #important for SAPT in psi4, default
symmetry c1  #important for SAPT in psi4, default
}

set PROPERTIES_ORIGIN ["COM"]
properties('MP2/aug-cc-pvtz', properties = ['dipole'])
--------------------------------------------------------------------------

    Molecular point group: c1
  Charge       = 0
  Multiplicity = 1
  Basis Set: AUG-CC-PVTZ
    Blend: AUG-CC-PVTZ
  Basis Set: (AUG-CC-PVTZ AUX)
    Blend: AUG-CC-PVTZ-JKFIT

    Orbital Energies [Eh]
    ---------------------

    Doubly Occupied:

       1A    -20.523331     2A    -15.649014     3A    -15.630850
       4A    -15.611531     5A    -15.572401     6A    -15.563698
       7A    -11.397362     8A    -11.366960     9A    -11.326186
      10A    -11.312832    11A    -11.250380    12A     -1.391942
      13A     -1.355990    14A     -1.333070    15A     -1.219724
      16A     -1.216624    17A     -1.164432    18A     -1.029486
      19A     -0.902840    20A     -0.883713    21A     -0.817382
      22A     -0.787977    23A     -0.738660    24A     -0.728727
      25A     -0.694434    26A     -0.657173    27A     -0.653284
      28A     -0.632154    29A     -0.609274    30A     -0.598395
      31A     -0.593575    32A     -0.546848    33A     -0.497265
      34A     -0.461494    35A     -0.441586    36A     -0.431676
      37A     -0.431347    38A     -0.408565    39A     -0.301590

  @DF-RHF Final Energy:  -539.55678309730035

   => Energetics <=

    Nuclear Repulsion Energy =            592.5278386124147119
    One-Electron Energy =               -1910.7017013067716107
    Two-Electron Energy =                 778.6170795970566587
    Total Energy =                       -539.5567830973003538
  Basis Set: (AUG-CC-PVTZ AUX)
    Blend: AUG-CC-PVTZ-RI
    Molecular point group: c1

    Geometry (in Angstrom), charge = 0, multiplicity = 1:

       Center              X                  Y                   Z               Mass
    ------------   -----------------  -----------------  -----------------  -----------------
         O            0.198572426547     2.670009909191    -0.005656678553    15.994914619570
         C            0.231107426547     1.445523909191     0.007125321447    12.000000000000
         N            1.488124426547     0.763606909191    -0.002298678553    14.003074004430
         C            1.691783426547    -0.593852090809     0.004719321447    12.000000000000
         N            0.726241426547    -1.480219090809     0.014035321447    14.003074004430
         C           -0.502568573453    -0.883770090809    -0.000788678553    12.000000000000
         C           -0.831388573453     0.470467909191     0.017994321447    12.000000000000
         N           -2.195695573453     0.660350909191     0.016156321447    14.003074004430
         C           -2.685956573453    -0.569389090809     0.003254321447    12.000000000000
         N           -1.708062573453    -1.535322090809    -0.004557678553    14.003074004430
         N            3.011908426547    -1.009358090809    -0.076987678553    14.003074004430
         H            2.286026426547     1.386967909191    -0.101755678553     1.007825032230
         H           -3.738693573453    -0.820850090809    -0.000653678553     1.007825032230
         H           -1.854855573453    -2.739712690809    -0.020988978553     1.007825032230
         H            3.085040426547    -2.011034090809     0.070779321447     1.007825032230
         H            3.664383426547    -0.491948090809     0.503214321447     1.007825032230

  Basis Set: AUG-CC-PVTZ
    Blend: AUG-CC-PVTZ
  Basis Set: (AUG-CC-PVTZ AUX)
    Blend: AUG-CC-PVTZ-JKFIT
	 Reference Energy          =    -539.5567830973003538 [Eh]
	 Singles Energy            =      -0.0000000000000000 [Eh]
	 Same-Spin Energy          =      -0.5748917703027843 [Eh]
	 Opposite-Spin Energy      =      -1.6676284757518622 [Eh]
	 Correlation Energy        =      -2.2425202460546467 [Eh]
	 Total Energy              =    -541.7993033433549499 [Eh]

	 ================> DF-SCS-MP2 Energies <==================
	-----------------------------------------------------------
	 SCS Same-Spin Scale       =       0.3333333333333333 [-]
	 SCS Opposite-Spin Scale   =       1.2000000000000000 [-]
	 SCS Same-Spin Energy      =      -0.1916305901009281 [Eh]
	 SCS Opposite-Spin Energy  =      -2.0011541709022347 [Eh]
	 SCS Correlation Energy    =      -2.1927847610031628 [Eh]
	 SCS Total Energy          =    -541.7495678583035215 [Eh]
	-----------------------------------------------------------

  Dipole Moment: [D]
     X:     2.6023      Y:    -5.8975      Z:     0.8404     Total:     6.5006

*** Psi4 exiting successfully. Buy a developer a beer!
