                               Psi4 1.3.2 release

  ==> Input File <==

--------------------------------------------------------------------------
#psi4
#
memory 32 gb

molecule  {
0 1
  O        0.1763910     2.6970700    -0.0085580
  C        0.2089260     1.4725840     0.0042240
  N        1.5134419     0.7969464    -0.0054412
  C        1.6696020    -0.5667920     0.0018180
  N        0.7040600    -1.4531590     0.0111340
  C       -0.5247500    -0.8567100    -0.0036900
  C       -0.8535700     0.4975280     0.0150930
  N       -2.2178770     0.6874110     0.0132550
  C       -2.7081380    -0.5423290     0.0003530
  N       -1.7302440    -1.5082620    -0.0074590
  N        2.9897270    -0.9822980    -0.0798890
  H        2.2638450     1.4140280    -0.1046570
  H       -3.7608750    -0.7937900    -0.0035550
  H       -1.8528420    -2.5141400    -0.0211820
  H        3.0628590    -1.9839740     0.0678780
  H        3.6422020    -0.4648880     0.5003130
units angstrom
no_reorient  #important for SAPT in psi4, default
symmetry c1  #important for SAPT in psi4, default
}

set PROPERTIES_ORIGIN ["COM"]
properties('MP2/aug-cc-pvtz', properties = ['dipole'])
--------------------------------------------------------------------------

    Molecular point group: c1
  Charge       = 0
  Multiplicity = 1
  Basis Set: AUG-CC-PVTZ
    Blend: AUG-CC-PVTZ
  Basis Set: (AUG-CC-PVTZ AUX)
    Blend: AUG-CC-PVTZ-JKFIT

    Orbital Energies [Eh]
    ---------------------

    Doubly Occupied:

       1A    -20.527976     2A    -15.637157     3A    -15.627355
       4A    -15.609273     5A    -15.573828     6A    -15.566592
       7A    -11.398192     8A    -11.371783     9A    -11.329382
      10A    -11.315160    11A    -11.252924    12A     -1.391963
      13A     -1.362085    14A     -1.335862    15A     -1.219872
      16A     -1.215648    17A     -1.179781    18A     -1.030878
      19A     -0.906906    20A     -0.882609    21A     -0.846064
      22A     -0.799365    23A     -0.747686    24A     -0.728735
      25A     -0.699841    26A     -0.671587    27A     -0.654414
      28A     -0.634184    29A     -0.614694    30A     -0.603973
      31A     -0.595978    32A     -0.546728    33A     -0.501341
      34A     -0.461361    35A     -0.443813    36A     -0.434325
      37A     -0.433896    38A     -0.413440    39A     -0.303366

  @DF-RHF Final Energy:  -539.58502571312943

   => Energetics <=

    Nuclear Repulsion Energy =            592.7754924922970758
    One-Electron Energy =               -1910.9810070809176068
    Two-Electron Energy =                 778.6204888754912190
    Total Energy =                       -539.5850257131294256
  Basis Set: (AUG-CC-PVTZ AUX)
    Blend: AUG-CC-PVTZ-RI
    Molecular point group: c1

    Geometry (in Angstrom), charge = 0, multiplicity = 1:

       Center              X                  Y                   Z               Mass
    ------------   -----------------  -----------------  -----------------  -----------------
         O            0.194007596142     2.668103269034    -0.005652388242    15.994914619570
         C            0.226542596142     1.443617269034     0.007129611758    12.000000000000
         N            1.531058496142     0.767979669034    -0.002535588242    14.003074004430
         C            1.687218596142    -0.595758730966     0.004723611758    12.000000000000
         N            0.721676596142    -1.482125730966     0.014039611758    14.003074004430
         C           -0.507133403858    -0.885676730966    -0.000784388242    12.000000000000
         C           -0.835953403858     0.468561269034     0.017998611758    12.000000000000
         N           -2.200260403858     0.658444269034     0.016160611758    14.003074004430
         C           -2.690521403858    -0.571295730966     0.003258611758    12.000000000000
         N           -1.712627403858    -1.537228730966    -0.004553388242    14.003074004430
         N            3.007343596142    -1.011264730966    -0.076983388242    14.003074004430
         H            2.281461596142     1.385061269034    -0.101751388242     1.007825032230
         H           -3.743258403858    -0.822756730966    -0.000649388242     1.007825032230
         H           -1.835225403858    -2.543106730966    -0.018276388242     1.007825032230
         H            3.080475596142    -2.012940730966     0.070783611758     1.007825032230
         H            3.659818596142    -0.493854730966     0.503218611758     1.007825032230

  Basis Set: AUG-CC-PVTZ
    Blend: AUG-CC-PVTZ
  Basis Set: (AUG-CC-PVTZ AUX)
    Blend: AUG-CC-PVTZ-JKFIT
	 Reference Energy          =    -539.5850257131294256 [Eh]
	 Singles Energy            =      -0.0000000000000000 [Eh]
	 Same-Spin Energy          =      -0.5726075314635652 [Eh]
	 Opposite-Spin Energy      =      -1.6630329283038092 [Eh]
	 Correlation Energy        =      -2.2356404597673745 [Eh]
	 Total Energy              =    -541.8206661728968356 [Eh]

	 ================> DF-SCS-MP2 Energies <==================
	-----------------------------------------------------------
	 SCS Same-Spin Scale       =       0.3333333333333333 [-]
	 SCS Opposite-Spin Scale   =       1.2000000000000000 [-]
	 SCS Same-Spin Energy      =      -0.1908691771545217 [Eh]
	 SCS Opposite-Spin Energy  =      -1.9956395139645711 [Eh]
	 SCS Correlation Energy    =      -2.1865086911190930 [Eh]
	 SCS Total Energy          =    -541.7715344042485413 [Eh]
	-----------------------------------------------------------

  Dipole Moment: [D]
     X:     2.5130      Y:    -5.5435      Z:     0.8373     Total:     6.1438

*** Psi4 exiting successfully. Buy a developer a beer!
