                               Psi4 1.3.2 release

  ==> Input File <==

--------------------------------------------------------------------------
#psi4
#
memory 32 gb

molecule  {
0 1
  O        0.2618831     2.6963445    -0.0096917
  C        0.2089260     1.4725840     0.0042240
  N        1.4659430     0.7906670    -0.0052000
  C        1.6696020    -0.5667920     0.0018180
  N        0.7040600    -1.4531590     0.0111340
  C       -0.5247500    -0.8567100    -0.0036900
  C       -0.8535700     0.4975280     0.0150930
  N       -2.2178770     0.6874110     0.0132550
  C       -2.7081380    -0.5423290     0.0003530
  N       -1.7302440    -1.5082620    -0.0074590
  N        2.9897270    -0.9822980    -0.0798890
  H        2.2638450     1.4140280    -0.1046570
  H       -3.7608750    -0.7937900    -0.0035550
  H       -1.8528420    -2.5141400    -0.0211820
  H        3.0628590    -1.9839740     0.0678780
  H        3.6422020    -0.4648880     0.5003130
units angstrom
no_reorient  #important for SAPT in psi4, default
symmetry c1  #important for SAPT in psi4, default
}

set PROPERTIES_ORIGIN ["COM"]
properties('MP2/aug-cc-pvtz', properties = ['dipole'])
--------------------------------------------------------------------------

    Molecular point group: c1
  Charge       = 0
  Multiplicity = 1
  Basis Set: AUG-CC-PVTZ
    Blend: AUG-CC-PVTZ
  Basis Set: (AUG-CC-PVTZ AUX)
    Blend: AUG-CC-PVTZ-JKFIT

    Orbital Energies [Eh]
    ---------------------

    Doubly Occupied:

       1A    -20.523668     2A    -15.637614     3A    -15.628185
       4A    -15.611437     5A    -15.572947     6A    -15.566844
       7A    -11.397135     8A    -11.368369     9A    -11.329973
      10A    -11.315644    11A    -11.254252    12A     -1.394854
      13A     -1.362555    14A     -1.334581    15A     -1.219227
      16A     -1.216820    17A     -1.179325    18A     -1.032931
      19A     -0.907618    20A     -0.883851    21A     -0.846453
      22A     -0.798673    23A     -0.739404    24A     -0.730111
      25A     -0.700764    26A     -0.673443    27A     -0.656353
      28A     -0.633603    29A     -0.614694    30A     -0.602814
      31A     -0.597063    32A     -0.547953    33A     -0.500229
      34A     -0.462179    35A     -0.442702    36A     -0.435168
      37A     -0.430823    38A     -0.413738    39A     -0.304351

  @DF-RHF Final Energy:  -539.58690525033887

   => Energetics <=

    Nuclear Repulsion Energy =            593.6365398842251579
    One-Electron Energy =               -1912.7101951442145946
    Two-Electron Energy =                 779.4867500096505637
    Total Energy =                       -539.5869052503388730
  Basis Set: (AUG-CC-PVTZ AUX)
    Blend: AUG-CC-PVTZ-RI
    Molecular point group: c1

    Geometry (in Angstrom), charge = 0, multiplicity = 1:

       Center              X                  Y                   Z               Mass
    ------------   -----------------  -----------------  -----------------  -----------------
         O            0.274850169678     2.668036727011    -0.006688399060    15.994914619570
         C            0.221893069678     1.444276227011     0.007227300940    12.000000000000
         N            1.478910069678     0.762359227011    -0.002196699060    14.003074004430
         C            1.682569069678    -0.595099772989     0.004821300940    12.000000000000
         N            0.717027069678    -1.481466772989     0.014137300940    14.003074004430
         C           -0.511782930322    -0.885017772989    -0.000686699060    12.000000000000
         C           -0.840602930322     0.469220227011     0.018096300940    12.000000000000
         N           -2.204909930322     0.659103227011     0.016258300940    14.003074004430
         C           -2.695170930322    -0.570636772989     0.003356300940    12.000000000000
         N           -1.717276930322    -1.536569772989    -0.004455699060    14.003074004430
         N            3.002694069678    -1.010605772989    -0.076885699060    14.003074004430
         H            2.276812069678     1.385720227011    -0.101653699060     1.007825032230
         H           -3.747907930322    -0.822097772989    -0.000551699060     1.007825032230
         H           -1.839874930322    -2.542447772989    -0.018178699060     1.007825032230
         H            3.075826069678    -2.012281772989     0.070881300940     1.007825032230
         H            3.655169069678    -0.493195772989     0.503316300940     1.007825032230

  Basis Set: AUG-CC-PVTZ
    Blend: AUG-CC-PVTZ
  Basis Set: (AUG-CC-PVTZ AUX)
    Blend: AUG-CC-PVTZ-JKFIT
	 Reference Energy          =    -539.5869052503388730 [Eh]
	 Singles Energy            =      -0.0000000000000000 [Eh]
	 Same-Spin Energy          =      -0.5729214442589420 [Eh]
	 Opposite-Spin Energy      =      -1.6629150607098180 [Eh]
	 Correlation Energy        =      -2.2358365049687601 [Eh]
	 Total Energy              =    -541.8227417553076748 [Eh]

	 ================> DF-SCS-MP2 Energies <==================
	-----------------------------------------------------------
	 SCS Same-Spin Scale       =       0.3333333333333333 [-]
	 SCS Opposite-Spin Scale   =       1.2000000000000000 [-]
	 SCS Same-Spin Energy      =      -0.1909738147529806 [Eh]
	 SCS Opposite-Spin Energy  =      -1.9954980728517815 [Eh]
	 SCS Correlation Energy    =      -2.1864718876047622 [Eh]
	 SCS Total Energy          =    -541.7733771379436121 [Eh]
	-----------------------------------------------------------

  Dipole Moment: [D]
     X:     2.4790      Y:    -5.6650      Z:     0.8460     Total:     6.2413

*** Psi4 exiting successfully. Buy a developer a beer!
