                               Psi4 1.3.2 release

  ==> Input File <==

--------------------------------------------------------------------------
#psi4
#
memory 32 gb

molecule  {
0 1
  O        0.1763910     2.6970700    -0.0085580
  C        0.2089260     1.4725840     0.0042240
  N        1.4659430     0.7906670    -0.0052000
  C        1.6696020    -0.5667920     0.0018180
  N        0.7040600    -1.4531590     0.0111340
  C       -0.4822359    -0.9423857    -0.0043473
  C       -0.8535700     0.4975280     0.0150930
  N       -2.2178770     0.6874110     0.0132550
  C       -2.7081380    -0.5423290     0.0003530
  N       -1.7302440    -1.5082620    -0.0074590
  N        2.9897270    -0.9822980    -0.0798890
  H        2.2638450     1.4140280    -0.1046570
  H       -3.7608750    -0.7937900    -0.0035550
  H       -1.8528420    -2.5141400    -0.0211820
  H        3.0628590    -1.9839740     0.0678780
  H        3.6422020    -0.4648880     0.5003130
units angstrom
no_reorient  #important for SAPT in psi4, default
symmetry c1  #important for SAPT in psi4, default
}

set PROPERTIES_ORIGIN ["COM"]
properties('MP2/aug-cc-pvtz', properties = ['dipole'])
--------------------------------------------------------------------------

    Molecular point group: c1
  Charge       = 0
  Multiplicity = 1
  Basis Set: AUG-CC-PVTZ
    Blend: AUG-CC-PVTZ
  Basis Set: (AUG-CC-PVTZ AUX)
    Blend: AUG-CC-PVTZ-JKFIT

    Orbital Energies [Eh]
    ---------------------

    Doubly Occupied:

       1A    -20.516064     2A    -15.637861     3A    -15.635125
       4A    -15.617160     5A    -15.575352     6A    -15.567150
       7A    -11.406458     8A    -11.361493     9A    -11.336073
      10A    -11.311675    11A    -11.252731    12A     -1.392804
      13A     -1.358380    14A     -1.337016    15A     -1.237936
      16A     -1.222477    17A     -1.179753    18A     -1.018635
      19A     -0.910453    20A     -0.894092    21A     -0.838317
      22A     -0.805617    23A     -0.743654    24A     -0.735497
      25A     -0.698437    26A     -0.664709    27A     -0.657950
      28A     -0.645504    29A     -0.608595    30A     -0.598270
      31A     -0.595040    32A     -0.549055    33A     -0.501016
      34A     -0.472580    35A     -0.439665    36A     -0.435847
      37A     -0.423512    38A     -0.410475    39A     -0.286977

  @DF-RHF Final Energy:  -539.57192890342947

   => Energetics <=

    Nuclear Repulsion Energy =            592.9412739439679854
    One-Electron Energy =               -1911.2675993449495309
    Two-Electron Energy =                 778.7543964975521931
    Total Energy =                       -539.5719289034294661
  Basis Set: (AUG-CC-PVTZ AUX)
    Blend: AUG-CC-PVTZ-RI
    Molecular point group: c1

    Geometry (in Angstrom), charge = 0, multiplicity = 1:

       Center              X                  Y                   Z               Mass
    ------------   -----------------  -----------------  -----------------  -----------------
         O            0.195033494966     2.675491840127    -0.005622530075    15.994914619570
         C            0.227568494966     1.451005840127     0.007159469925    12.000000000000
         N            1.484585494966     0.769088840127    -0.002264530075    14.003074004430
         C            1.688244494966    -0.588370159873     0.004753469925    12.000000000000
         N            0.722702494966    -1.474737159873     0.014069469925    14.003074004430
         C           -0.463593405034    -0.963963859873    -0.001411830075    12.000000000000
         C           -0.834927505034     0.475949840127     0.018028469925    12.000000000000
         N           -2.199234505034     0.665832840127     0.016190469925    14.003074004430
         C           -2.689495505034    -0.563907159873     0.003288469925    12.000000000000
         N           -1.711601505034    -1.529840159873    -0.004523530075    14.003074004430
         N            3.008369494966    -1.003876159873    -0.076953530075    14.003074004430
         H            2.282487494966     1.392449840127    -0.101721530075     1.007825032230
         H           -3.742232505034    -0.815368159873    -0.000619530075     1.007825032230
         H           -1.834199505034    -2.535718159873    -0.018246530075     1.007825032230
         H            3.081501494966    -2.005552159873     0.070813469925     1.007825032230
         H            3.660844494966    -0.486466159873     0.503248469925     1.007825032230

  Basis Set: AUG-CC-PVTZ
    Blend: AUG-CC-PVTZ
  Basis Set: (AUG-CC-PVTZ AUX)
    Blend: AUG-CC-PVTZ-JKFIT
	 Reference Energy          =    -539.5719289034294661 [Eh]
	 Singles Energy            =      -0.0000000000000000 [Eh]
	 Same-Spin Energy          =      -0.5752796975222284 [Eh]
	 Opposite-Spin Energy      =      -1.6647243460671122 [Eh]
	 Correlation Energy        =      -2.2400040435893405 [Eh]
	 Total Energy              =    -541.8119329470188177 [Eh]

	 ================> DF-SCS-MP2 Energies <==================
	-----------------------------------------------------------
	 SCS Same-Spin Scale       =       0.3333333333333333 [-]
	 SCS Opposite-Spin Scale   =       1.2000000000000000 [-]
	 SCS Same-Spin Energy      =      -0.1917598991740761 [Eh]
	 SCS Opposite-Spin Energy  =      -1.9976692152805344 [Eh]
	 SCS Correlation Energy    =      -2.1894291144546107 [Eh]
	 SCS Total Energy          =    -541.7613580178840493 [Eh]
	-----------------------------------------------------------

  Dipole Moment: [D]
     X:     2.8040      Y:    -5.8789      Z:     0.8440     Total:     6.5679

*** Psi4 exiting successfully. Buy a developer a beer!
