                               Psi4 1.3.2 release

  ==> Input File <==

--------------------------------------------------------------------------
#psi4
#
memory 32 gb

molecule  {
0 1
  O        0.1763910     2.6970700    -0.0085580
  C        0.1972952     1.4506518     0.0068106
  N        1.4659430     0.7906670    -0.0052000
  C        1.6696020    -0.5667920     0.0018180
  N        0.7040600    -1.4531590     0.0111340
  C       -0.5247500    -0.8567100    -0.0036900
  C       -0.8535700     0.4975280     0.0150930
  N       -2.2178770     0.6874110     0.0132550
  C       -2.7081380    -0.5423290     0.0003530
  N       -1.7302440    -1.5082620    -0.0074590
  N        2.9897270    -0.9822980    -0.0798890
  H        2.2638450     1.4140280    -0.1046570
  H       -3.7608750    -0.7937900    -0.0035550
  H       -1.8528420    -2.5141400    -0.0211820
  H        3.0628590    -1.9839740     0.0678780
  H        3.6422020    -0.4648880     0.5003130
units angstrom
no_reorient  #important for SAPT in psi4, default
symmetry c1  #important for SAPT in psi4, default
}

set PROPERTIES_ORIGIN ["COM"]
properties('MP2/aug-cc-pvtz', properties = ['dipole'])
--------------------------------------------------------------------------

    Molecular point group: c1
  Charge       = 0
  Multiplicity = 1
  Basis Set: AUG-CC-PVTZ
    Blend: AUG-CC-PVTZ
  Basis Set: (AUG-CC-PVTZ AUX)
    Blend: AUG-CC-PVTZ-JKFIT

    Orbital Energies [Eh]
    ---------------------

    Doubly Occupied:

       1A    -20.518890     2A    -15.638204     3A    -15.633265
       4A    -15.613232     5A    -15.575401     6A    -15.566997
       7A    -11.399589     8A    -11.366900     9A    -11.331027
      10A    -11.316610    11A    -11.251725    12A     -1.388727
      13A     -1.356409    14A     -1.332892    15A     -1.221197
      16A     -1.218501    17A     -1.180366    18A     -1.036414
      19A     -0.911038    20A     -0.885473    21A     -0.847079
      22A     -0.800151    23A     -0.743028    24A     -0.731814
      25A     -0.701132    26A     -0.673904    27A     -0.657678
      28A     -0.635231    29A     -0.606697    30A     -0.602160
      31A     -0.597690    32A     -0.543242    33A     -0.501342
      34A     -0.463341    35A     -0.441655    36A     -0.432139
      37A     -0.430131    38A     -0.413709    39A     -0.305123

  @DF-RHF Final Energy:  -539.58498970686537

   => Energetics <=

    Nuclear Repulsion Energy =            593.8215133114995297
    One-Electron Energy =               -1913.0727977128369730
    Two-Electron Energy =                 779.6662946944720716
    Total Energy =                       -539.5849897068653718
  Basis Set: (AUG-CC-PVTZ AUX)
    Blend: AUG-CC-PVTZ-RI
    Molecular point group: c1

    Geometry (in Angstrom), charge = 0, multiplicity = 1:

       Center              X                  Y                   Z               Mass
    ------------   -----------------  -----------------  -----------------  -----------------
         O            0.199334993402     2.670427788563    -0.005880239125    15.994914619570
         C            0.220239193402     1.424009588563     0.009488360875    12.000000000000
         N            1.488886993402     0.764024788563    -0.002522239125    14.003074004430
         C            1.692545993402    -0.593434211437     0.004495760875    12.000000000000
         N            0.727003993402    -1.479801211437     0.013811760875    14.003074004430
         C           -0.501806006598    -0.883352211437    -0.001012239125    12.000000000000
         C           -0.830626006598     0.470885788563     0.017770760875    12.000000000000
         N           -2.194933006598     0.660768788563     0.015932760875    14.003074004430
         C           -2.685194006598    -0.568971211437     0.003030760875    12.000000000000
         N           -1.707300006598    -1.534904211437    -0.004781239125    14.003074004430
         N            3.012670993402    -1.008940211437    -0.077211239125    14.003074004430
         H            2.286788993402     1.387385788563    -0.101979239125     1.007825032230
         H           -3.737931006598    -0.820432211437    -0.000877239125     1.007825032230
         H           -1.829898006598    -2.540782211437    -0.018504239125     1.007825032230
         H            3.085802993402    -2.010616211437     0.070555760875     1.007825032230
         H            3.665145993402    -0.491530211437     0.502990760875     1.007825032230

  Basis Set: AUG-CC-PVTZ
    Blend: AUG-CC-PVTZ
  Basis Set: (AUG-CC-PVTZ AUX)
    Blend: AUG-CC-PVTZ-JKFIT
	 Reference Energy          =    -539.5849897068653718 [Eh]
	 Singles Energy            =      -0.0000000000000000 [Eh]
	 Same-Spin Energy          =      -0.5735051777063895 [Eh]
	 Opposite-Spin Energy      =      -1.6640597273281077 [Eh]
	 Correlation Energy        =      -2.2375649050344970 [Eh]
	 Total Energy              =    -541.8225546118998182 [Eh]

	 ================> DF-SCS-MP2 Energies <==================
	-----------------------------------------------------------
	 SCS Same-Spin Scale       =       0.3333333333333333 [-]
	 SCS Opposite-Spin Scale   =       1.2000000000000000 [-]
	 SCS Same-Spin Energy      =      -0.1911683925687965 [Eh]
	 SCS Opposite-Spin Energy  =      -1.9968716727937292 [Eh]
	 SCS Correlation Energy    =      -2.1880400653625256 [Eh]
	 SCS Total Energy          =    -541.7730297722279147 [Eh]
	-----------------------------------------------------------

  Dipole Moment: [D]
     X:     2.6190      Y:    -5.8521      Z:     0.8470     Total:     6.4672

*** Psi4 exiting successfully. Buy a developer a beer!
