                               Psi4 1.3.2 release

  ==> Input File <==

--------------------------------------------------------------------------
#psi4
#
memory 32 gb

molecule  {
0 1
  O        0.1763910     2.6970700    -0.0085580
  C        0.2089260     1.4725840     0.0042240
  N        1.4659430     0.7906670    -0.0052000
  C        1.6696020    -0.5667920     0.0018180
  N        0.7040600    -1.4531590     0.0111340
  C       -0.5247500    -0.8567100    -0.0036900
  C       -0.8535700     0.4975280     0.0150930
  N       -2.2394147     0.6957799     0.0133004
  C       -2.7081380    -0.5423290     0.0003530
  N       -1.7302440    -1.5082620    -0.0074590
  N        2.9897270    -0.9822980    -0.0798890
  H        2.2638450     1.4140280    -0.1046570
  H       -3.7608750    -0.7937900    -0.0035550
  H       -1.8528420    -2.5141400    -0.0211820
  H        3.0628590    -1.9839740     0.0678780
  H        3.6422020    -0.4648880     0.5003130
units angstrom
no_reorient  #important for SAPT in psi4, default
symmetry c1  #important for SAPT in psi4, default
}

set PROPERTIES_ORIGIN ["COM"]
properties('MP2/aug-cc-pvtz', properties = ['dipole'])
--------------------------------------------------------------------------

    Molecular point group: c1
  Charge       = 0
  Multiplicity = 1
  Basis Set: AUG-CC-PVTZ
    Blend: AUG-CC-PVTZ
  Basis Set: (AUG-CC-PVTZ AUX)
    Blend: AUG-CC-PVTZ-JKFIT

    Orbital Energies [Eh]
    ---------------------

    Doubly Occupied:

       1A    -20.523953     2A    -15.636293     3A    -15.632188
       4A    -15.612838     5A    -15.574267     6A    -15.567947
       7A    -11.399295     8A    -11.367921     9A    -11.329122
      10A    -11.315307    11A    -11.252760    12A     -1.393206
      13A     -1.359954    14A     -1.335449    15A     -1.221115
      16A     -1.218127    17A     -1.176101    18A     -1.031859
      19A     -0.906749    20A     -0.885465    21A     -0.843466
      22A     -0.799452    23A     -0.739879    24A     -0.730069
      25A     -0.701005    26A     -0.673310    27A     -0.656155
      28A     -0.633856    29A     -0.614198    30A     -0.598612
      31A     -0.594492    32A     -0.547834    33A     -0.500414
      34A     -0.462848    35A     -0.443299    36A     -0.434778
      37A     -0.432862    38A     -0.410462    39A     -0.304798

  @DF-RHF Final Energy:  -539.58673044991860

   => Energetics <=

    Nuclear Repulsion Energy =            593.0053919158900726
    One-Electron Energy =               -1911.4608323872098481
    Two-Electron Energy =                 778.8687100214012844
    Total Energy =                       -539.5867304499186048
  Basis Set: (AUG-CC-PVTZ AUX)
    Blend: AUG-CC-PVTZ-RI
    Molecular point group: c1

    Geometry (in Angstrom), charge = 0, multiplicity = 1:

       Center              X                  Y                   Z               Mass
    ------------   -----------------  -----------------  -----------------  -----------------
         O            0.200407651727     2.667909561405    -0.005678957568    15.994914619570
         C            0.232942651727     1.443423561405     0.007103042432    12.000000000000
         N            1.489959651727     0.761506561405    -0.002320957568    14.003074004430
         C            1.693618651727    -0.595952438595     0.004697042432    12.000000000000
         N            0.728076651727    -1.482319438595     0.014013042432    14.003074004430
         C           -0.500733348273    -0.885870438595    -0.000810957568    12.000000000000
         C           -0.829553348273     0.468367561405     0.017972042432    12.000000000000
         N           -2.215398048273     0.666619461405     0.016179442432    14.003074004430
         C           -2.684121348273    -0.571489438595     0.003232042432    12.000000000000
         N           -1.706227348273    -1.537422438595    -0.004579957568    14.003074004430
         N            3.013743651727    -1.011458438595    -0.077009957568    14.003074004430
         H            2.287861651727     1.384867561405    -0.101777957568     1.007825032230
         H           -3.736858348273    -0.822950438595    -0.000675957568     1.007825032230
         H           -1.828825348273    -2.543300438595    -0.018302957568     1.007825032230
         H            3.086875651727    -2.013134438595     0.070757042432     1.007825032230
         H            3.666218651727    -0.494048438595     0.503192042432     1.007825032230

  Basis Set: AUG-CC-PVTZ
    Blend: AUG-CC-PVTZ
  Basis Set: (AUG-CC-PVTZ AUX)
    Blend: AUG-CC-PVTZ-JKFIT
	 Reference Energy          =    -539.5867304499186048 [Eh]
	 Singles Energy            =      -0.0000000000000000 [Eh]
	 Same-Spin Energy          =      -0.5728158183114453 [Eh]
	 Opposite-Spin Energy      =      -1.6633944949856563 [Eh]
	 Correlation Energy        =      -2.2362103132971018 [Eh]
	 Total Energy              =    -541.8229407632156835 [Eh]

	 ================> DF-SCS-MP2 Energies <==================
	-----------------------------------------------------------
	 SCS Same-Spin Scale       =       0.3333333333333333 [-]
	 SCS Opposite-Spin Scale   =       1.2000000000000000 [-]
	 SCS Same-Spin Energy      =      -0.1909386061038151 [Eh]
	 SCS Opposite-Spin Energy  =      -1.9960733939827875 [Eh]
	 SCS Correlation Energy    =      -2.1870120000866025 [Eh]
	 SCS Total Energy          =    -541.7737424500052157 [Eh]
	-----------------------------------------------------------

  Dipole Moment: [D]
     X:     2.7150      Y:    -5.6554      Z:     0.8436     Total:     6.3298

*** Psi4 exiting successfully. Buy a developer a beer!
