                               Psi4 1.4a3.dev225

  ==> Input File <==

--------------------------------------------------------------------------
#psi4
#
memory 32 gb

molecule  {
0 1
  O        0.1763800     2.6970850    -0.0086780
  C        0.2088860     1.4725900     0.0042210
  N        1.4659360     0.7906750    -0.0050880
  C        1.6696170    -0.5667500     0.0018210
  N        0.7040680    -1.4531450     0.0111020
  C       -0.5247290    -0.8567090    -0.0037110
  C       -0.8535850     0.4975420     0.0152200
  N       -2.2178950     0.6873840     0.0133320
  C       -2.7081200    -0.5423560     0.0003580
  N       -1.7302140    -1.5082770    -0.0075250
  N        2.9897250    -0.9823190    -0.0798750
  H        2.2637990     1.4140370    -0.1048620
  H       -3.7608500    -0.7938460    -0.0035590
  H       -1.8588282    -2.5637852    -0.0221118
  H        3.0628080    -1.9839860     0.0679760
  H        3.6422460    -0.4648460     0.5002060
units angstrom
no_reorient  #important for SAPT in psi4, default
symmetry c1  #important for SAPT in psi4, default
}

set PROPERTIES_ORIGIN ["COM"]
properties('MP2/aug-cc-pvtz', properties = ['dipole'])
--------------------------------------------------------------------------

    Molecular point group: c1
  Charge       = 0
  Multiplicity = 1
  Basis Set: AUG-CC-PVTZ
    Blend: AUG-CC-PVTZ
  Basis Set: (AUG-CC-PVTZ AUX)
    Blend: AUG-CC-PVTZ-JKFIT

    Orbital Energies [Eh]
    ---------------------

    Doubly Occupied:

       1A    -20.524140     2A    -15.640083     3A    -15.631710
       4A    -15.612176     5A    -15.573306     6A    -15.564887
       7A    -11.398298     8A    -11.367757     9A    -11.327222
      10A    -11.313929    11A    -11.251184    12A     -1.393105
      13A     -1.359404    14A     -1.335107    15A     -1.220519
      16A     -1.217868    17A     -1.174058    18A     -1.030867
      19A     -0.905567    20A     -0.884827    21A     -0.835673
      22A     -0.797275    23A     -0.739923    24A     -0.729911
      25A     -0.698806    26A     -0.669661    27A     -0.655882
      28A     -0.633380    29A     -0.613569    30A     -0.600822
      31A     -0.595984    32A     -0.547661    33A     -0.499245
      34A     -0.462303    35A     -0.442830    36A     -0.432771
      37A     -0.432316    38A     -0.411268    39A     -0.302584

  @DF-RHF Final Energy:  -539.58365457334912

   => Energetics <=

    Nuclear Repulsion Energy =            593.3473432257278546
    One-Electron Energy =               -1912.2062390958067226
    Two-Electron Energy =                 779.2752412967297460
    Total Energy =                       -539.5836545733491221
  Basis Set: (AUG-CC-PVTZ AUX)
    Blend: AUG-CC-PVTZ-RI
    Molecular point group: c1

    Geometry (in Angstrom), charge = 0, multiplicity = 1:

       Center              X                  Y                   Z               Mass
    ------------   -----------------  -----------------  -----------------  -----------------
         O            0.198440345934     2.669031108838    -0.005792935776    15.994914619570
         C            0.230946345934     1.444536108838     0.007106064224    12.000000000000
         N            1.487996345934     0.762621108838    -0.002202935776    14.003074004430
         C            1.691677345934    -0.594803891162     0.004706064224    12.000000000000
         N            0.726128345934    -1.481198891162     0.013987064224    14.003074004430
         C           -0.502668654066    -0.884762891162    -0.000825935776    12.000000000000
         C           -0.831524654066     0.469488108838     0.018105064224    12.000000000000
         N           -2.195834654066     0.659330108838     0.016217064224    14.003074004430
         C           -2.686059654066    -0.570409891162     0.003243064224    12.000000000000
         N           -1.708153654066    -1.536330891162    -0.004639935776    14.003074004430
         N            3.011785345934    -1.010372891162    -0.076989935776    14.003074004430
         H            2.285859345934     1.385983108838    -0.101976935776     1.007825032230
         H           -3.738789654066    -0.821899891162    -0.000673935776     1.007825032230
         H           -1.836767854066    -2.591839091162    -0.019226735776     1.007825032230
         H            3.084868345934    -2.012039891162     0.070861064224     1.007825032230
         H            3.664306345934    -0.492899891162     0.503091064224     1.007825032230

  Basis Set: AUG-CC-PVTZ
    Blend: AUG-CC-PVTZ
  Basis Set: (AUG-CC-PVTZ AUX)
    Blend: AUG-CC-PVTZ-JKFIT
	 Reference Energy          =    -539.5836545733491221 [Eh]
	 Singles Energy            =      -0.0000000000000000 [Eh]
	 Same-Spin Energy          =      -0.5734767220187005 [Eh]
	 Opposite-Spin Energy      =      -1.6641781084577731 [Eh]
	 Correlation Energy        =      -2.2376548304764734 [Eh]
	 Total Energy              =    -541.8213094038255804 [Eh]

	 ================> DF-SCS-MP2 Energies <==================
	-----------------------------------------------------------
	 SCS Same-Spin Scale       =       0.3333333333333333 [-]
	 SCS Opposite-Spin Scale   =       1.2000000000000000 [-]
	 SCS Same-Spin Energy      =      -0.1911589073395668 [Eh]
	 SCS Opposite-Spin Energy  =      -1.9970137301493276 [Eh]
	 SCS Correlation Energy    =      -2.1881726374888943 [Eh]
	 SCS Total Energy          =    -541.7718272108380688 [Eh]
	-----------------------------------------------------------

  Dipole Moment: [D]
     X:     2.6514      Y:    -5.7017      Z:     0.8425     Total:     6.3442

*** Psi4 exiting successfully. Buy a developer a beer!
