                               Psi4 1.3.2 release

  ==> Input File <==

--------------------------------------------------------------------------
#psi4
#
memory 32 gb

molecule  {
0 1
  O        0.1763910     2.6970700    -0.0085580
  C        0.2089260     1.4725840     0.0042240
  N        1.5133351     0.7969148    -0.0084544
  C        1.6696020    -0.5667920     0.0018180
  N        0.7040600    -1.4531590     0.0111340
  C       -0.5247500    -0.8567100    -0.0036900
  C       -0.8535700     0.4975280     0.0150930
  N       -2.2178770     0.6874110     0.0132550
  C       -2.7081380    -0.5423290     0.0003530
  N       -1.7302440    -1.5082620    -0.0074590
  N        2.9897270    -0.9822980    -0.0798890
  H        2.2638450     1.4140280    -0.1046570
  H       -3.7608750    -0.7937900    -0.0035550
  H       -1.8528420    -2.5141400    -0.0211820
  H        3.0628590    -1.9839740     0.0678780
  H        3.6422020    -0.4648880     0.5003130
units angstrom
no_reorient  #important for SAPT in psi4, default
symmetry c1  #important for SAPT in psi4, default
}

set PROPERTIES_ORIGIN ["COM"]
properties('MP2/aug-cc-pvtz', properties = ['dipole'])
--------------------------------------------------------------------------

    Molecular point group: c1
  Charge       = 0
  Multiplicity = 1
  Basis Set: AUG-CC-PVTZ
    Blend: AUG-CC-PVTZ
  Basis Set: (AUG-CC-PVTZ AUX)
    Blend: AUG-CC-PVTZ-JKFIT

    Orbital Energies [Eh]
    ---------------------

    Doubly Occupied:

       1A    -20.527960     2A    -15.637153     3A    -15.627342
       4A    -15.609272     5A    -15.573832     6A    -15.566589
       7A    -11.398186     8A    -11.371773     9A    -11.329374
      10A    -11.315159    11A    -11.252925    12A     -1.391962
      13A     -1.362081    14A     -1.335861    15A     -1.219875
      16A     -1.215661    17A     -1.179781    18A     -1.030879
      19A     -0.906922    20A     -0.882631    21A     -0.846063
      22A     -0.799367    23A     -0.747736    24A     -0.728713
      25A     -0.699854    26A     -0.671630    27A     -0.654402
      28A     -0.634168    29A     -0.614691    30A     -0.603959
      31A     -0.595980    32A     -0.546717    33A     -0.501356
      34A     -0.461360    35A     -0.443808    36A     -0.434235
      37A     -0.433955    38A     -0.413433    39A     -0.303365

  @DF-RHF Final Energy:  -539.58501295655219

   => Energetics <=

    Nuclear Repulsion Energy =            592.7782146383999589
    One-Electron Energy =               -1910.9864355574150068
    Two-Electron Energy =                 778.6232079624628568
    Total Energy =                       -539.5850129565521911
  Basis Set: (AUG-CC-PVTZ AUX)
    Blend: AUG-CC-PVTZ-RI
    Molecular point group: c1

    Geometry (in Angstrom), charge = 0, multiplicity = 1:

       Center              X                  Y                   Z               Mass
    ------------   -----------------  -----------------  -----------------  -----------------
         O            0.194017497063     2.668106198520    -0.005373048769    15.994914619570
         C            0.226552497063     1.443620198520     0.007408951231    12.000000000000
         N            1.530961597063     0.767950998520    -0.005269448769    14.003074004430
         C            1.687228497063    -0.595755801480     0.005002951231    12.000000000000
         N            0.721686497063    -1.482122801480     0.014318951231    14.003074004430
         C           -0.507123502937    -0.885673801480    -0.000505048769    12.000000000000
         C           -0.835943502937     0.468564198520     0.018277951231    12.000000000000
         N           -2.200250502937     0.658447198520     0.016439951231    14.003074004430
         C           -2.690511502937    -0.571292801480     0.003537951231    12.000000000000
         N           -1.712617502937    -1.537225801480    -0.004274048769    14.003074004430
         N            3.007353497063    -1.011261801480    -0.076704048769    14.003074004430
         H            2.281471497063     1.385064198520    -0.101472048769     1.007825032230
         H           -3.743248502937    -0.822753801480    -0.000370048769     1.007825032230
         H           -1.835215502937    -2.543103801480    -0.017997048769     1.007825032230
         H            3.080485497063    -2.012937801480     0.071062951231     1.007825032230
         H            3.659828497063    -0.493851801480     0.503497951231     1.007825032230

  Basis Set: AUG-CC-PVTZ
    Blend: AUG-CC-PVTZ
  Basis Set: (AUG-CC-PVTZ AUX)
    Blend: AUG-CC-PVTZ-JKFIT
	 Reference Energy          =    -539.5850129565521911 [Eh]
	 Singles Energy            =      -0.0000000000000000 [Eh]
	 Same-Spin Energy          =      -0.5726086171317473 [Eh]
	 Opposite-Spin Energy      =      -1.6630337732226450 [Eh]
	 Correlation Energy        =      -2.2356423903543923 [Eh]
	 Total Energy              =    -541.8206553469066193 [Eh]

	 ================> DF-SCS-MP2 Energies <==================
	-----------------------------------------------------------
	 SCS Same-Spin Scale       =       0.3333333333333333 [-]
	 SCS Opposite-Spin Scale   =       1.2000000000000000 [-]
	 SCS Same-Spin Energy      =      -0.1908695390439157 [Eh]
	 SCS Opposite-Spin Energy  =      -1.9956405278671738 [Eh]
	 SCS Correlation Energy    =      -2.1865100669110897 [Eh]
	 SCS Total Energy          =    -541.7715230234632600 [Eh]
	-----------------------------------------------------------

  Dipole Moment: [D]
     X:     2.5135      Y:    -5.5434      Z:     0.8411     Total:     6.1445

*** Psi4 exiting successfully. Buy a developer a beer!
