                               Psi4 1.4a3.dev225

  ==> Input File <==

--------------------------------------------------------------------------
#psi4
#
memory 32 gb

molecule  {
0 1
  O        0.1763800     2.6970850    -0.0086780
  C        0.2088860     1.4725900     0.0042210
  N        1.4659360     0.7906750    -0.0050880
  C        1.6696170    -0.5667500     0.0018210
  N        0.7040680    -1.4531450     0.0111020
  C       -0.5247290    -0.8567090    -0.0037110
  C       -0.8653826     0.5461255     0.0158991
  N       -2.2178950     0.6873840     0.0133320
  C       -2.7081200    -0.5423560     0.0003580
  N       -1.7302140    -1.5082770    -0.0075250
  N        2.9897250    -0.9823190    -0.0798750
  H        2.2637990     1.4140370    -0.1048620
  H       -3.7608500    -0.7938460    -0.0035590
  H       -1.8527810    -2.5141570    -0.0214260
  H        3.0628080    -1.9839860     0.0679760
  H        3.6422460    -0.4648460     0.5002060
units angstrom
no_reorient  #important for SAPT in psi4, default
symmetry c1  #important for SAPT in psi4, default
}

set PROPERTIES_ORIGIN ["COM"]
properties('MP2/aug-cc-pvtz', properties = ['dipole'])
--------------------------------------------------------------------------

    Molecular point group: c1
  Charge       = 0
  Multiplicity = 1
  Basis Set: AUG-CC-PVTZ
    Blend: AUG-CC-PVTZ
  Basis Set: (AUG-CC-PVTZ AUX)
    Blend: AUG-CC-PVTZ-JKFIT

    Orbital Energies [Eh]
    ---------------------

    Doubly Occupied:

       1A    -20.518982     2A    -15.639628     3A    -15.632734
       4A    -15.613213     5A    -15.575380     6A    -15.565842
       7A    -11.399660     8A    -11.363948     9A    -11.334166
      10A    -11.313964    11A    -11.253928    12A     -1.392159
      13A     -1.359259    14A     -1.336010    15A     -1.220855
      16A     -1.219740    17A     -1.182223    18A     -1.028343
      19A     -0.909373    20A     -0.886282    21A     -0.844230
      22A     -0.799638    23A     -0.742407    24A     -0.733088
      25A     -0.698471    26A     -0.669724    27A     -0.656187
      28A     -0.636537    29A     -0.610654    30A     -0.607453
      31A     -0.597015    32A     -0.548455    33A     -0.500925
      34A     -0.463584    35A     -0.442048    36A     -0.432495
      37A     -0.427109    38A     -0.414349    39A     -0.297049

  @DF-RHF Final Energy:  -539.58317038823498

   => Energetics <=

    Nuclear Repulsion Energy =            593.2165875427582478
    One-Electron Energy =               -1911.8653025675737354
    Two-Electron Energy =                 779.0655446365803982
    Total Energy =                       -539.5831703882349757
  Basis Set: (AUG-CC-PVTZ AUX)
    Blend: AUG-CC-PVTZ-RI
    Molecular point group: c1

    Geometry (in Angstrom), charge = 0, multiplicity = 1:

       Center              X                  Y                   Z               Mass
    ------------   -----------------  -----------------  -----------------  -----------------
         O            0.199337249011     2.664840304365    -0.005851462098    15.994914619570
         C            0.231843249011     1.440345304365     0.007047537902    12.000000000000
         N            1.488893249011     0.758430304365    -0.002261462098    14.003074004430
         C            1.692574249011    -0.598994695635     0.004647537902    12.000000000000
         N            0.727025249011    -1.485389695635     0.013928537902    14.003074004430
         C           -0.501771750989    -0.888953695635    -0.000884462098    12.000000000000
         C           -0.842425350989     0.513880804365     0.018725637902    12.000000000000
         N           -2.194937750989     0.655139304365     0.016158537902    14.003074004430
         C           -2.685162750989    -0.574600695635     0.003184537902    12.000000000000
         N           -1.707256750989    -1.540521695635    -0.004698462098    14.003074004430
         N            3.012682249011    -1.014563695635    -0.077048462098    14.003074004430
         H            2.286756249011     1.381792304365    -0.102035462098     1.007825032230
         H           -3.737892750989    -0.826090695635    -0.000732462098     1.007825032230
         H           -1.829823750989    -2.546401695635    -0.018599462098     1.007825032230
         H            3.085765249011    -2.016230695635     0.070802537902     1.007825032230
         H            3.665203249011    -0.497090695635     0.503032537902     1.007825032230

  Basis Set: AUG-CC-PVTZ
    Blend: AUG-CC-PVTZ
  Basis Set: (AUG-CC-PVTZ AUX)
    Blend: AUG-CC-PVTZ-JKFIT
	 Reference Energy          =    -539.5831703882349757 [Eh]
	 Singles Energy            =      -0.0000000000000000 [Eh]
	 Same-Spin Energy          =      -0.5739271462047674 [Eh]
	 Opposite-Spin Energy      =      -1.6639611467351454 [Eh]
	 Correlation Energy        =      -2.2378882929399126 [Eh]
	 Total Energy              =    -541.8210586811749181 [Eh]

	 ================> DF-SCS-MP2 Energies <==================
	-----------------------------------------------------------
	 SCS Same-Spin Scale       =       0.3333333333333333 [-]
	 SCS Opposite-Spin Scale   =       1.2000000000000000 [-]
	 SCS Same-Spin Energy      =      -0.1913090487349224 [Eh]
	 SCS Opposite-Spin Energy  =      -1.9967533760821743 [Eh]
	 SCS Correlation Energy    =      -2.1880624248170966 [Eh]
	 SCS Total Energy          =    -541.7712328130520518 [Eh]
	-----------------------------------------------------------

  Dipole Moment: [D]
     X:     2.6203      Y:    -5.7460      Z:     0.8441     Total:     6.3714

*** Psi4 exiting successfully. Buy a developer a beer!
