                               Psi4 1.3.2 release

  ==> Input File <==

--------------------------------------------------------------------------
#psi4
#
memory 32 gb

molecule  {
0 1
  O        0.1763910     2.6970700    -0.0085580
  C        0.2089260     1.4725840     0.0042240
  N        1.4659430     0.7906670    -0.0052000
  C        1.6696020    -0.5667920     0.0018180
  N        0.7040600    -1.4531590     0.0111340
  C       -0.5247500    -0.8567100    -0.0036900
  C       -0.8535700     0.4975280     0.0150930
  N       -2.2610953     0.7037715     0.0133603
  C       -2.7081380    -0.5423290     0.0003530
  N       -1.7302440    -1.5082620    -0.0074590
  N        2.9897270    -0.9822980    -0.0798890
  H        2.2638450     1.4140280    -0.1046570
  H       -3.7608750    -0.7937900    -0.0035550
  H       -1.8528420    -2.5141400    -0.0211820
  H        3.0628590    -1.9839740     0.0678780
  H        3.6422020    -0.4648880     0.5003130
units angstrom
no_reorient  #important for SAPT in psi4, default
symmetry c1  #important for SAPT in psi4, default
}

set PROPERTIES_ORIGIN ["COM"]
properties('MP2/aug-cc-pvtz', properties = ['dipole'])
--------------------------------------------------------------------------

    Molecular point group: c1
  Charge       = 0
  Multiplicity = 1
  Basis Set: AUG-CC-PVTZ
    Blend: AUG-CC-PVTZ
  Basis Set: (AUG-CC-PVTZ AUX)
    Blend: AUG-CC-PVTZ-JKFIT

    Orbital Energies [Eh]
    ---------------------

    Doubly Occupied:

       1A    -20.523525     2A    -15.636351     3A    -15.632385
       4A    -15.613284     5A    -15.574908     6A    -15.570519
       7A    -11.399973     8A    -11.367822     9A    -11.330614
      10A    -11.316261    11A    -11.253985    12A     -1.392908
      13A     -1.359089    14A     -1.335012    15A     -1.221434
      16A     -1.217999    17A     -1.173988    18A     -1.032322
      19A     -0.906661    20A     -0.885750    21A     -0.841998
      22A     -0.799709    23A     -0.739437    24A     -0.729764
      25A     -0.701311    26A     -0.673435    27A     -0.655990
      28A     -0.633912    29A     -0.613790    30A     -0.597695
      31A     -0.590284    32A     -0.547744    33A     -0.501040
      34A     -0.463147    35A     -0.443719    36A     -0.435861
      37A     -0.433104    38A     -0.408747    39A     -0.306607

  @DF-RHF Final Energy:  -539.58504009435205

   => Energetics <=

    Nuclear Repulsion Energy =            592.3670607079602632
    One-Electron Energy =               -1910.1800323361853771
    Two-Electron Energy =                 778.2279315338730612
    Total Energy =                       -539.5850400943520526
  Basis Set: (AUG-CC-PVTZ AUX)
    Blend: AUG-CC-PVTZ-RI
    Molecular point group: c1

    Geometry (in Angstrom), charge = 0, multiplicity = 1:

       Center              X                  Y                   Z               Mass
    ------------   -----------------  -----------------  -----------------  -----------------
         O            0.202417557272     2.667168698091    -0.005684510613    15.994914619570
         C            0.234952557272     1.442682698091     0.007097489387    12.000000000000
         N            1.491969557272     0.760765698091    -0.002326510613    14.003074004430
         C            1.695628557272    -0.596693301909     0.004691489387    12.000000000000
         N            0.730086557272    -1.483060301909     0.014007489387    14.003074004430
         C           -0.498723442728    -0.886611301909    -0.000816510613    12.000000000000
         C           -0.827543442728     0.467626698091     0.017966489387    12.000000000000
         N           -2.235068742728     0.673870198091     0.016233789387    14.003074004430
         C           -2.682111442728    -0.572230301909     0.003226489387    12.000000000000
         N           -1.704217442728    -1.538163301909    -0.004585510613    14.003074004430
         N            3.015753557272    -1.012199301909    -0.077015510613    14.003074004430
         H            2.289871557272     1.384126698091    -0.101783510613     1.007825032230
         H           -3.734848442728    -0.823691301909    -0.000681510613     1.007825032230
         H           -1.826815442728    -2.544041301909    -0.018308510613     1.007825032230
         H            3.088885557272    -2.013875301909     0.070751489387     1.007825032230
         H            3.668228557272    -0.494789301909     0.503186489387     1.007825032230

  Basis Set: AUG-CC-PVTZ
    Blend: AUG-CC-PVTZ
  Basis Set: (AUG-CC-PVTZ AUX)
    Blend: AUG-CC-PVTZ-JKFIT
	 Reference Energy          =    -539.5850400943520526 [Eh]
	 Singles Energy            =      -0.0000000000000000 [Eh]
	 Same-Spin Energy          =      -0.5726287250936418 [Eh]
	 Opposite-Spin Energy      =      -1.6636502676710117 [Eh]
	 Correlation Energy        =      -2.2362789927646536 [Eh]
	 Total Energy              =    -541.8213190871167626 [Eh]

	 ================> DF-SCS-MP2 Energies <==================
	-----------------------------------------------------------
	 SCS Same-Spin Scale       =       0.3333333333333333 [-]
	 SCS Opposite-Spin Scale   =       1.2000000000000000 [-]
	 SCS Same-Spin Energy      =      -0.1908762416978806 [Eh]
	 SCS Opposite-Spin Energy  =      -1.9963803212052138 [Eh]
	 SCS Correlation Energy    =      -2.1872565629030944 [Eh]
	 SCS Total Energy          =    -541.7722966572551968 [Eh]
	-----------------------------------------------------------

  Dipole Moment: [D]
     X:     2.7604      Y:    -5.6742      Z:     0.8432     Total:     6.3661

*** Psi4 exiting successfully. Buy a developer a beer!
