                               Psi4 1.3.2 release

  ==> Input File <==

--------------------------------------------------------------------------
#psi4
#
memory 32 gb

molecule  {
0 1
  O        0.1763910     2.6970700    -0.0085580
  C        0.2089260     1.4725840     0.0042240
  N        1.4659430     0.7906670    -0.0052000
  C        1.6696020    -0.5667920     0.0018180
  N        0.7142839    -1.4316219     0.0110265
  C       -0.5247500    -0.8567100    -0.0036900
  C       -0.8535700     0.4975280     0.0150930
  N       -2.2178770     0.6874110     0.0132550
  C       -2.7081380    -0.5423290     0.0003530
  N       -1.7302440    -1.5082620    -0.0074590
  N        2.9897270    -0.9822980    -0.0798890
  H        2.2638450     1.4140280    -0.1046570
  H       -3.7608750    -0.7937900    -0.0035550
  H       -1.8528420    -2.5141400    -0.0211820
  H        3.0628590    -1.9839740     0.0678780
  H        3.6422020    -0.4648880     0.5003130
units angstrom
no_reorient  #important for SAPT in psi4, default
symmetry c1  #important for SAPT in psi4, default
}

set PROPERTIES_ORIGIN ["COM"]
properties('MP2/aug-cc-pvtz', properties = ['dipole'])
--------------------------------------------------------------------------

    Molecular point group: c1
  Charge       = 0
  Multiplicity = 1
  Basis Set: AUG-CC-PVTZ
    Blend: AUG-CC-PVTZ
  Basis Set: (AUG-CC-PVTZ AUX)
    Blend: AUG-CC-PVTZ-JKFIT

    Orbital Energies [Eh]
    ---------------------

    Doubly Occupied:

       1A    -20.524123     2A    -15.637938     3A    -15.629333
       4A    -15.610158     5A    -15.571071     6A    -15.565994
       7A    -11.393978     8A    -11.367758     9A    -11.328353
      10A    -11.315160    11A    -11.252145    12A     -1.394056
      13A     -1.361719    14A     -1.337612    15A     -1.219919
      16A     -1.219147    17A     -1.179822    18A     -1.033071
      19A     -0.907700    20A     -0.884225    21A     -0.845777
      22A     -0.801198    23A     -0.739630    24A     -0.730924
      25A     -0.699958    26A     -0.673007    27A     -0.657402
      28A     -0.636693    29A     -0.614702    30A     -0.601804
      31A     -0.597396    32A     -0.548434    33A     -0.498418
      34A     -0.462453    35A     -0.442373    36A     -0.432885
      37A     -0.431805    38A     -0.413068    39A     -0.304598

  @DF-RHF Final Energy:  -539.58849743046267

   => Energetics <=

    Nuclear Repulsion Energy =            594.2063458423953080
    One-Electron Energy =               -1913.8580790112766863
    Two-Electron Energy =                 780.0632357384188253
    Total Energy =                       -539.5884974304626667
  Basis Set: (AUG-CC-PVTZ AUX)
    Blend: AUG-CC-PVTZ-RI
    Molecular point group: c1

    Geometry (in Angstrom), charge = 0, multiplicity = 1:

       Center              X                  Y                   Z               Mass
    ------------   -----------------  -----------------  -----------------  -----------------
         O            0.197463184510     2.666688800070    -0.005664782935    15.994914619570
         C            0.229998184510     1.442202800070     0.007117217065    12.000000000000
         N            1.487015184510     0.760285800070    -0.002306782935    14.003074004430
         C            1.690674184510    -0.597173199930     0.004711217065    12.000000000000
         N            0.735356084510    -1.462003099930     0.013919717065    14.003074004430
         C           -0.503677815490    -0.887091199930    -0.000796782935    12.000000000000
         C           -0.832497815490     0.467146800070     0.017986217065    12.000000000000
         N           -2.196804815490     0.657029800070     0.016148217065    14.003074004430
         C           -2.687065815490    -0.572710199930     0.003246217065    12.000000000000
         N           -1.709171815490    -1.538643199930    -0.004565782935    14.003074004430
         N            3.010799184510    -1.012679199930    -0.076995782935    14.003074004430
         H            2.284917184510     1.383646800070    -0.101763782935     1.007825032230
         H           -3.739802815490    -0.824171199930    -0.000661782935     1.007825032230
         H           -1.831769815490    -2.544521199930    -0.018288782935     1.007825032230
         H            3.083931184510    -2.014355199930     0.070771217065     1.007825032230
         H            3.663274184510    -0.495269199930     0.503206217065     1.007825032230

  Basis Set: AUG-CC-PVTZ
    Blend: AUG-CC-PVTZ
  Basis Set: (AUG-CC-PVTZ AUX)
    Blend: AUG-CC-PVTZ-JKFIT
	 Reference Energy          =    -539.5884974304626667 [Eh]
	 Singles Energy            =      -0.0000000000000000 [Eh]
	 Same-Spin Energy          =      -0.5727840202919372 [Eh]
	 Opposite-Spin Energy      =      -1.6625265058522625 [Eh]
	 Correlation Energy        =      -2.2353105261441995 [Eh]
	 Total Energy              =    -541.8238079566068564 [Eh]

	 ================> DF-SCS-MP2 Energies <==================
	-----------------------------------------------------------
	 SCS Same-Spin Scale       =       0.3333333333333333 [-]
	 SCS Opposite-Spin Scale   =       1.2000000000000000 [-]
	 SCS Same-Spin Energy      =      -0.1909280067639791 [Eh]
	 SCS Opposite-Spin Energy  =      -1.9950318070227149 [Eh]
	 SCS Correlation Energy    =      -2.1859598137866940 [Eh]
	 SCS Total Energy          =    -541.7744572442493336 [Eh]
	-----------------------------------------------------------

  Dipole Moment: [D]
     X:     2.5744      Y:    -5.6878      Z:     0.8465     Total:     6.3004

*** Psi4 exiting successfully. Buy a developer a beer!
