                               Psi4 1.3.2 release

  ==> Input File <==

--------------------------------------------------------------------------
#psi4
#
memory 32 gb

molecule  {
0 1
  O        0.2191433     2.6974534    -0.0091330
  C        0.2089260     1.4725840     0.0042240
  N        1.4659430     0.7906670    -0.0052000
  C        1.6696020    -0.5667920     0.0018180
  N        0.7040600    -1.4531590     0.0111340
  C       -0.5247500    -0.8567100    -0.0036900
  C       -0.8535700     0.4975280     0.0150930
  N       -2.2178770     0.6874110     0.0132550
  C       -2.7081380    -0.5423290     0.0003530
  N       -1.7302440    -1.5082620    -0.0074590
  N        2.9897270    -0.9822980    -0.0798890
  H        2.2638450     1.4140280    -0.1046570
  H       -3.7608750    -0.7937900    -0.0035550
  H       -1.8528420    -2.5141400    -0.0211820
  H        3.0628590    -1.9839740     0.0678780
  H        3.6422020    -0.4648880     0.5003130
units angstrom
no_reorient  #important for SAPT in psi4, default
symmetry c1  #important for SAPT in psi4, default
}

set PROPERTIES_ORIGIN ["COM"]
properties('MP2/aug-cc-pvtz', properties = ['dipole'])
--------------------------------------------------------------------------

    Molecular point group: c1
  Charge       = 0
  Multiplicity = 1
  Basis Set: AUG-CC-PVTZ
    Blend: AUG-CC-PVTZ
  Basis Set: (AUG-CC-PVTZ AUX)
    Blend: AUG-CC-PVTZ-JKFIT

    Orbital Energies [Eh]
    ---------------------

    Doubly Occupied:

       1A    -20.524066     2A    -15.636942     3A    -15.630114
       4A    -15.611930     5A    -15.573301     6A    -15.566095
       7A    -11.397905     8A    -11.368181     9A    -11.328805
      10A    -11.314994    11A    -11.252875    12A     -1.394163
      13A     -1.361756    14A     -1.335252    15A     -1.219830
      16A     -1.217815    17A     -1.178831    18A     -1.032172
      19A     -0.907249    20A     -0.884580    21A     -0.845739
      22A     -0.798946    23A     -0.739880    24A     -0.730247
      25A     -0.700731    26A     -0.673328    27A     -0.656361
      28A     -0.633714    29A     -0.614708    30A     -0.602157
      31A     -0.596897    32A     -0.547937    33A     -0.500017
      34A     -0.462382    35A     -0.443043    36A     -0.434188
      37A     -0.431774    38A     -0.413026    39A     -0.303660

  @DF-RHF Final Energy:  -539.58755879372245

   => Energetics <=

    Nuclear Repulsion Energy =            593.6315650558024117
    One-Electron Energy =               -1912.7070677899939710
    Two-Electron Energy =                 779.4879439404691084
    Total Energy =                       -539.5875587937224509
  Basis Set: (AUG-CC-PVTZ AUX)
    Blend: AUG-CC-PVTZ-RI
    Molecular point group: c1

    Geometry (in Angstrom), charge = 0, multiplicity = 1:

       Center              X                  Y                   Z               Mass
    ------------   -----------------  -----------------  -----------------  -----------------
         O            0.236636169896     2.669028203442    -0.006188860886    15.994914619570
         C            0.226418869896     1.444158803442     0.007168139114    12.000000000000
         N            1.483435869896     0.762241803442    -0.002255860886    14.003074004430
         C            1.687094869896    -0.595217196558     0.004762139114    12.000000000000
         N            0.721552869896    -1.481584196558     0.014078139114    14.003074004430
         C           -0.507257130104    -0.885135196558    -0.000745860886    12.000000000000
         C           -0.836077130104     0.469102803442     0.018037139114    12.000000000000
         N           -2.200384130104     0.658985803442     0.016199139114    14.003074004430
         C           -2.690645130104    -0.570754196558     0.003297139114    12.000000000000
         N           -1.712751130104    -1.536687196558    -0.004514860886    14.003074004430
         N            3.007219869896    -1.010723196558    -0.076944860886    14.003074004430
         H            2.281337869896     1.385602803442    -0.101712860886     1.007825032230
         H           -3.743382130104    -0.822215196558    -0.000610860886     1.007825032230
         H           -1.835349130104    -2.542565196558    -0.018237860886     1.007825032230
         H            3.080351869896    -2.012399196558     0.070822139114     1.007825032230
         H            3.659694869896    -0.493313196558     0.503257139114     1.007825032230

  Basis Set: AUG-CC-PVTZ
    Blend: AUG-CC-PVTZ
  Basis Set: (AUG-CC-PVTZ AUX)
    Blend: AUG-CC-PVTZ-JKFIT
	 Reference Energy          =    -539.5875587937224509 [Eh]
	 Singles Energy            =      -0.0000000000000000 [Eh]
	 Same-Spin Energy          =      -0.5729655556294491 [Eh]
	 Opposite-Spin Energy      =      -1.6630371641064305 [Eh]
	 Correlation Energy        =      -2.2360027197358798 [Eh]
	 Total Energy              =    -541.8235615134583441 [Eh]

	 ================> DF-SCS-MP2 Energies <==================
	-----------------------------------------------------------
	 SCS Same-Spin Scale       =       0.3333333333333333 [-]
	 SCS Opposite-Spin Scale   =       1.2000000000000000 [-]
	 SCS Same-Spin Energy      =      -0.1909885185431497 [Eh]
	 SCS Opposite-Spin Energy  =      -1.9956445969277166 [Eh]
	 SCS Correlation Energy    =      -2.1866331154708663 [Eh]
	 SCS Total Energy          =    -541.7741919091932914 [Eh]
	-----------------------------------------------------------

  Dipole Moment: [D]
     X:     2.5740      Y:    -5.6522      Z:     0.8450     Total:     6.2679

*** Psi4 exiting successfully. Buy a developer a beer!
