                               Psi4 1.3.2 release

  ==> Input File <==

--------------------------------------------------------------------------
#psi4
#
memory 32 gb

molecule  {
0 1
  O        0.1763910     2.6970700    -0.0085580
  C        0.2089260     1.4725840     0.0042240
  N        1.4659430     0.7906670    -0.0052000
  C        1.6982059    -0.4996840     0.0653977
  N        0.7040600    -1.4531590     0.0111340
  C       -0.5247500    -0.8567100    -0.0036900
  C       -0.8535700     0.4975280     0.0150930
  N       -2.2178770     0.6874110     0.0132550
  C       -2.7081380    -0.5423290     0.0003530
  N       -1.7302440    -1.5082620    -0.0074590
  N        2.9897270    -0.9822980    -0.0798890
  H        2.2638450     1.4140280    -0.1046570
  H       -3.7608750    -0.7937900    -0.0035550
  H       -1.8528420    -2.5141400    -0.0211820
  H        3.0628590    -1.9839740     0.0678780
  H        3.6422020    -0.4648880     0.5003130
units angstrom
no_reorient  #important for SAPT in psi4, default
symmetry c1  #important for SAPT in psi4, default
}

set PROPERTIES_ORIGIN ["COM"]
properties('MP2/aug-cc-pvtz', properties = ['dipole'])
--------------------------------------------------------------------------

    Molecular point group: c1
  Charge       = 0
  Multiplicity = 1
  Basis Set: AUG-CC-PVTZ
    Blend: AUG-CC-PVTZ
  Basis Set: (AUG-CC-PVTZ AUX)
    Blend: AUG-CC-PVTZ-JKFIT

    Orbital Energies [Eh]
    ---------------------

    Doubly Occupied:

       1A    -20.526802     2A    -15.642430     3A    -15.632091
       4A    -15.616694     5A    -15.570018     6A    -15.562866
       7A    -11.401744     8A    -11.371253     9A    -11.324740
      10A    -11.312442    11A    -11.247870    12A     -1.399700
      13A     -1.358424    14A     -1.340741    15A     -1.231610
      16A     -1.207423    17A     -1.173052    18A     -1.028283
      19A     -0.911716    20A     -0.890927    21A     -0.842150
      22A     -0.795764    23A     -0.751384    24A     -0.727349
      25A     -0.702919    26A     -0.677297    27A     -0.658489
      28A     -0.620522    29A     -0.614982    30A     -0.602280
      31A     -0.597734    32A     -0.545236    33A     -0.495753
      34A     -0.463543    35A     -0.446124    36A     -0.436261
      37A     -0.430093    38A     -0.409825    39A     -0.295499

  @DF-RHF Final Energy:  -539.57662239141928

   => Energetics <=

    Nuclear Repulsion Energy =            593.5396216045422761
    One-Electron Energy =               -1912.5044256495141326
    Two-Electron Energy =                 779.3881816535526923
    Total Energy =                       -539.5766223914192778
  Basis Set: (AUG-CC-PVTZ AUX)
    Blend: AUG-CC-PVTZ-RI
    Molecular point group: c1

    Geometry (in Angstrom), charge = 0, multiplicity = 1:

       Center              X                  Y                   Z               Mass
    ------------   -----------------  -----------------  -----------------  -----------------
         O            0.196138579721     2.663354060825    -0.010725787353    15.994914619570
         C            0.228673579721     1.438868060825     0.002056212647    12.000000000000
         N            1.485690579721     0.756951060825    -0.007367787353    14.003074004430
         C            1.717953479721    -0.533399939175     0.063229912647    12.000000000000
         N            0.723807579721    -1.486874939175     0.008966212647    14.003074004430
         C           -0.505002420279    -0.890425939175    -0.005857787353    12.000000000000
         C           -0.833822420279     0.463812060825     0.012925212647    12.000000000000
         N           -2.198129420279     0.653695060825     0.011087212647    14.003074004430
         C           -2.688390420279    -0.576044939175    -0.001814787353    12.000000000000
         N           -1.710496420279    -1.541977939175    -0.009626787353    14.003074004430
         N            3.009474579721    -1.016013939175    -0.082056787353    14.003074004430
         H            2.283592579721     1.380312060825    -0.106824787353     1.007825032230
         H           -3.741127420279    -0.827505939175    -0.005722787353     1.007825032230
         H           -1.833094420279    -2.547855939175    -0.023349787353     1.007825032230
         H            3.082606579721    -2.017689939175     0.065710212647     1.007825032230
         H            3.661949579721    -0.498603939175     0.498145212647     1.007825032230

  Basis Set: AUG-CC-PVTZ
    Blend: AUG-CC-PVTZ
  Basis Set: (AUG-CC-PVTZ AUX)
    Blend: AUG-CC-PVTZ-JKFIT
	 Reference Energy          =    -539.5766223914192778 [Eh]
	 Singles Energy            =      -0.0000000000000000 [Eh]
	 Same-Spin Energy          =      -0.5738921549693279 [Eh]
	 Opposite-Spin Energy      =      -1.6645643614416401 [Eh]
	 Correlation Energy        =      -2.2384565164109680 [Eh]
	 Total Energy              =    -541.8150789078302978 [Eh]

	 ================> DF-SCS-MP2 Energies <==================
	-----------------------------------------------------------
	 SCS Same-Spin Scale       =       0.3333333333333333 [-]
	 SCS Opposite-Spin Scale   =       1.2000000000000000 [-]
	 SCS Same-Spin Energy      =      -0.1912973849897759 [Eh]
	 SCS Opposite-Spin Energy  =      -1.9974772337299680 [Eh]
	 SCS Correlation Energy    =      -2.1887746187197439 [Eh]
	 SCS Total Energy          =    -541.7653970101390541 [Eh]
	-----------------------------------------------------------

  Dipole Moment: [D]
     X:     2.8980      Y:    -5.3731      Z:     0.8853     Total:     6.1686

*** Psi4 exiting successfully. Buy a developer a beer!
