                               Psi4 1.4a3.dev225

  ==> Input File <==

--------------------------------------------------------------------------
#psi4
#
memory 32 gb

molecule  {
0 1
  O        0.1763800     2.6970850    -0.0086780
  C        0.2088860     1.4725900     0.0042210
  N        1.4659360     0.7906750    -0.0050880
  C        1.6696170    -0.5667500     0.0018210
  N        0.7040680    -1.4531450     0.0111020
  C       -0.5247290    -0.8567090    -0.0037110
  C       -0.8535850     0.4975420     0.0152200
  N       -2.2178950     0.6873840     0.0133320
  C       -2.7266342    -0.5887993    -0.0001320
  N       -1.7302140    -1.5082770    -0.0075250
  N        2.9897250    -0.9823190    -0.0798750
  H        2.2637990     1.4140370    -0.1048620
  H       -3.7608500    -0.7938460    -0.0035590
  H       -1.8527810    -2.5141570    -0.0214260
  H        3.0628080    -1.9839860     0.0679760
  H        3.6422460    -0.4648460     0.5002060
units angstrom
no_reorient  #important for SAPT in psi4, default
symmetry c1  #important for SAPT in psi4, default
}

set PROPERTIES_ORIGIN ["COM"]
properties('MP2/aug-cc-pvtz', properties = ['dipole'])
--------------------------------------------------------------------------

    Molecular point group: c1
  Charge       = 0
  Multiplicity = 1
  Basis Set: AUG-CC-PVTZ
    Blend: AUG-CC-PVTZ
  Basis Set: (AUG-CC-PVTZ AUX)
    Blend: AUG-CC-PVTZ-JKFIT

    Orbital Energies [Eh]
    ---------------------

    Doubly Occupied:

       1A    -20.525922     2A    -15.641244     3A    -15.632321
       4A    -15.611908     5A    -15.573689     6A    -15.566952
       7A    -11.397818     8A    -11.369172     9A    -11.326218
      10A    -11.315399    11A    -11.252812    12A     -1.393936
      13A     -1.361007    14A     -1.335284    15A     -1.220850
      16A     -1.215324    17A     -1.172024    18A     -1.030042
      19A     -0.911357    20A     -0.883825    21A     -0.847385
      22A     -0.800528    23A     -0.739111    24A     -0.732245
      25A     -0.702782    26A     -0.673794    27A     -0.656972
      28A     -0.637882    29A     -0.615148    30A     -0.599201
      31A     -0.596159    32A     -0.548269    33A     -0.498192
      34A     -0.460955    35A     -0.443221    36A     -0.432169
      37A     -0.431289    38A     -0.410558    39A     -0.298633

  @DF-RHF Final Energy:  -539.58034755135441

   => Energetics <=

    Nuclear Repulsion Energy =            592.9519445486407676
    One-Electron Energy =               -1911.3413925061736336
    Two-Electron Energy =                 778.8091004061784588
    Total Energy =                       -539.5803475513544072
  Basis Set: (AUG-CC-PVTZ AUX)
    Blend: AUG-CC-PVTZ-RI
    Molecular point group: c1

    Geometry (in Angstrom), charge = 0, multiplicity = 1:

       Center              X                  Y                   Z               Mass
    ------------   -----------------  -----------------  -----------------  -----------------
         O            0.199870843946     2.672389632770    -0.005758583880    15.994914619570
         C            0.232376843946     1.447894632770     0.007140416120    12.000000000000
         N            1.489426843946     0.765979632770    -0.002168583880    14.003074004430
         C            1.693107843946    -0.591445367230     0.004740416120    12.000000000000
         N            0.727558843946    -1.477840367230     0.014021416120    14.003074004430
         C           -0.501238156054    -0.881404367230    -0.000791583880    12.000000000000
         C           -0.830094156054     0.472846632770     0.018139416120    12.000000000000
         N           -2.194404156054     0.662688632770     0.016251416120    14.003074004430
         C           -2.703143356054    -0.613494667230     0.002787416120    12.000000000000
         N           -1.706723156054    -1.532972367230    -0.004605583880    14.003074004430
         N            3.013215843946    -1.007014367230    -0.076955583880    14.003074004430
         H            2.287289843946     1.389341632770    -0.101942583880     1.007825032230
         H           -3.737359156054    -0.818541367230    -0.000639583880     1.007825032230
         H           -1.829290156054    -2.538852367230    -0.018506583880     1.007825032230
         H            3.086298843946    -2.008681367230     0.070895416120     1.007825032230
         H            3.665736843946    -0.489541367230     0.503125416120     1.007825032230

  Basis Set: AUG-CC-PVTZ
    Blend: AUG-CC-PVTZ
  Basis Set: (AUG-CC-PVTZ AUX)
    Blend: AUG-CC-PVTZ-JKFIT
	 Reference Energy          =    -539.5803475513544072 [Eh]
	 Singles Energy            =      -0.0000000000000000 [Eh]
	 Same-Spin Energy          =      -0.5744395040756090 [Eh]
	 Opposite-Spin Energy      =      -1.6657824314023764 [Eh]
	 Correlation Energy        =      -2.2402219354779853 [Eh]
	 Total Energy              =    -541.8205694868323690 [Eh]

	 ================> DF-SCS-MP2 Energies <==================
	-----------------------------------------------------------
	 SCS Same-Spin Scale       =       0.3333333333333333 [-]
	 SCS Opposite-Spin Scale   =       1.2000000000000000 [-]
	 SCS Same-Spin Energy      =      -0.1914798346918696 [Eh]
	 SCS Opposite-Spin Energy  =      -1.9989389176828516 [Eh]
	 SCS Correlation Energy    =      -2.1904187523747214 [Eh]
	 SCS Total Energy          =    -541.7707663037291468 [Eh]
	-----------------------------------------------------------

  Dipole Moment: [D]
     X:     2.6979      Y:    -5.7069      Z:     0.8429     Total:     6.3685

*** Psi4 exiting successfully. Buy a developer a beer!
