                               Psi4 1.3.2 release

  ==> Input File <==

--------------------------------------------------------------------------
#psi4
#
memory 32 gb

molecule  {
0 1
  O        0.1763910     2.6970700    -0.0085580
  C        0.1742477     1.5090684     0.0038305
  N        1.4659430     0.7906670    -0.0052000
  C        1.6696020    -0.5667920     0.0018180
  N        0.7040600    -1.4531590     0.0111340
  C       -0.5247500    -0.8567100    -0.0036900
  C       -0.8535700     0.4975280     0.0150930
  N       -2.2178770     0.6874110     0.0132550
  C       -2.7081380    -0.5423290     0.0003530
  N       -1.7302440    -1.5082620    -0.0074590
  N        2.9897270    -0.9822980    -0.0798890
  H        2.2638450     1.4140280    -0.1046570
  H       -3.7608750    -0.7937900    -0.0035550
  H       -1.8528420    -2.5141400    -0.0211820
  H        3.0628590    -1.9839740     0.0678780
  H        3.6422020    -0.4648880     0.5003130
units angstrom
no_reorient  #important for SAPT in psi4, default
symmetry c1  #important for SAPT in psi4, default
}

set PROPERTIES_ORIGIN ["COM"]
properties('MP2/aug-cc-pvtz', properties = ['dipole'])
--------------------------------------------------------------------------

    Molecular point group: c1
  Charge       = 0
  Multiplicity = 1
  Basis Set: AUG-CC-PVTZ
    Blend: AUG-CC-PVTZ
  Basis Set: (AUG-CC-PVTZ AUX)
    Blend: AUG-CC-PVTZ-JKFIT

    Orbital Energies [Eh]
    ---------------------

    Doubly Occupied:

       1A    -20.534874     2A    -15.635521     3A    -15.622813
       4A    -15.608658     5A    -15.568794     6A    -15.564254
       7A    -11.394199     8A    -11.369866     9A    -11.327673
      10A    -11.312845    11A    -11.250326    12A     -1.410799
      13A     -1.366216    14A     -1.333764    15A     -1.215775
      16A     -1.211003    17A     -1.176210    18A     -1.029330
      19A     -0.903289    20A     -0.877008    21A     -0.844521
      22A     -0.793642    23A     -0.732466    24A     -0.727960
      25A     -0.700492    26A     -0.673344    27A     -0.653113
      28A     -0.631400    29A     -0.630394    30A     -0.600150
      31A     -0.593627    32A     -0.557297    33A     -0.497226
      34A     -0.460570    35A     -0.446400    36A     -0.435636
      37A     -0.433869    38A     -0.410926    39A     -0.302023

  @DF-RHF Final Energy:  -539.58684077565999

   => Energetics <=

    Nuclear Repulsion Energy =            593.4035235057573345
    One-Electron Energy =               -1912.3041799551326676
    Two-Electron Energy =                 779.3138156737152258
    Total Energy =                       -539.5868407756599936
  Basis Set: (AUG-CC-PVTZ AUX)
    Blend: AUG-CC-PVTZ-RI
    Molecular point group: c1

    Geometry (in Angstrom), charge = 0, multiplicity = 1:

       Center              X                  Y                   Z               Mass
    ------------   -----------------  -----------------  -----------------  -----------------
         O            0.201165983674     2.665786928325    -0.005643487455    15.994914619570
         C            0.199022683674     1.477785328325     0.006745012545    12.000000000000
         N            1.490717983674     0.759383928325    -0.002285487455    14.003074004430
         C            1.694376983674    -0.598075071675     0.004732512545    12.000000000000
         N            0.728834983674    -1.484442071675     0.014048512545    14.003074004430
         C           -0.499975016326    -0.887993071675    -0.000775487455    12.000000000000
         C           -0.828795016326     0.466244928325     0.018007512545    12.000000000000
         N           -2.193102016326     0.656127928325     0.016169512545    14.003074004430
         C           -2.683363016326    -0.573612071675     0.003267512545    12.000000000000
         N           -1.705469016326    -1.539545071675    -0.004544487455    14.003074004430
         N            3.014501983674    -1.013581071675    -0.076974487455    14.003074004430
         H            2.288619983674     1.382744928325    -0.101742487455     1.007825032230
         H           -3.736100016326    -0.825073071675    -0.000640487455     1.007825032230
         H           -1.828067016326    -2.545423071675    -0.018267487455     1.007825032230
         H            3.087633983674    -2.015257071675     0.070792512545     1.007825032230
         H            3.666976983674    -0.496171071675     0.503227512545     1.007825032230

  Basis Set: AUG-CC-PVTZ
    Blend: AUG-CC-PVTZ
  Basis Set: (AUG-CC-PVTZ AUX)
    Blend: AUG-CC-PVTZ-JKFIT
	 Reference Energy          =    -539.5868407756599936 [Eh]
	 Singles Energy            =      -0.0000000000000000 [Eh]
	 Same-Spin Energy          =      -0.5724020611706964 [Eh]
	 Opposite-Spin Energy      =      -1.6620839137336068 [Eh]
	 Correlation Energy        =      -2.2344859749043033 [Eh]
	 Total Energy              =    -541.8213267505642534 [Eh]

	 ================> DF-SCS-MP2 Energies <==================
	-----------------------------------------------------------
	 SCS Same-Spin Scale       =       0.3333333333333333 [-]
	 SCS Opposite-Spin Scale   =       1.2000000000000000 [-]
	 SCS Same-Spin Energy      =      -0.1908006870568988 [Eh]
	 SCS Opposite-Spin Energy  =      -1.9945006964803280 [Eh]
	 SCS Correlation Energy    =      -2.1853013835372268 [Eh]
	 SCS Total Energy          =    -541.7721421591971875 [Eh]
	-----------------------------------------------------------

  Dipole Moment: [D]
     X:     2.4805      Y:    -5.2180      Z:     0.8405     Total:     5.8384

*** Psi4 exiting successfully. Buy a developer a beer!
