                               Psi4 1.3.2 release

  ==> Input File <==

--------------------------------------------------------------------------
#psi4
#
memory 32 gb

molecule  {
0 1
  O        0.1977673     2.6974511    -0.0085756
  C        0.2089260     1.4725840     0.0042240
  N        1.4659430     0.7906670    -0.0052000
  C        1.6696020    -0.5667920     0.0018180
  N        0.7040600    -1.4531590     0.0111340
  C       -0.5247500    -0.8567100    -0.0036900
  C       -0.8535700     0.4975280     0.0150930
  N       -2.2178770     0.6874110     0.0132550
  C       -2.7081380    -0.5423290     0.0003530
  N       -1.7302440    -1.5082620    -0.0074590
  N        2.9897270    -0.9822980    -0.0798890
  H        2.2638450     1.4140280    -0.1046570
  H       -3.7608750    -0.7937900    -0.0035550
  H       -1.8528420    -2.5141400    -0.0211820
  H        3.0628590    -1.9839740     0.0678780
  H        3.6422020    -0.4648880     0.5003130
units angstrom
no_reorient  #important for SAPT in psi4, default
symmetry c1  #important for SAPT in psi4, default
}

set PROPERTIES_ORIGIN ["COM"]
properties('MP2/aug-cc-pvtz', properties = ['dipole'])
--------------------------------------------------------------------------

    Molecular point group: c1
  Charge       = 0
  Multiplicity = 1
  Basis Set: AUG-CC-PVTZ
    Blend: AUG-CC-PVTZ
  Basis Set: (AUG-CC-PVTZ AUX)
    Blend: AUG-CC-PVTZ-JKFIT

    Orbital Energies [Eh]
    ---------------------

    Doubly Occupied:

       1A    -20.524247     2A    -15.636595     3A    -15.631061
       4A    -15.612163     5A    -15.573463     6A    -15.565710
       7A    -11.398265     8A    -11.368100     9A    -11.328206
      10A    -11.314661    11A    -11.252179    12A     -1.393854
      13A     -1.361362    14A     -1.335570    15A     -1.220278
      16A     -1.218128    17A     -1.178559    18A     -1.031778
      19A     -0.907064    20A     -0.884925    21A     -0.845371
      22A     -0.799068    23A     -0.740120    24A     -0.730292
      25A     -0.700715    26A     -0.673264    27A     -0.656363
      28A     -0.633765    29A     -0.614697    30A     -0.601812
      31A     -0.596794    32A     -0.547935    33A     -0.499911
      34A     -0.462480    35A     -0.443159    36A     -0.433662
      37A     -0.432227    38A     -0.412644    39A     -0.303299

  @DF-RHF Final Energy:  -539.58764852748959

   => Energetics <=

    Nuclear Repulsion Energy =            593.6395922294175307
    One-Electron Energy =               -1912.7269954816792961
    Two-Electron Energy =                 779.4997547247721741
    Total Energy =                       -539.5876485274895913
  Basis Set: (AUG-CC-PVTZ AUX)
    Blend: AUG-CC-PVTZ-RI
    Molecular point group: c1

    Geometry (in Angstrom), charge = 0, multiplicity = 1:

       Center              X                  Y                   Z               Mass
    ------------   -----------------  -----------------  -----------------  -----------------
         O            0.217523715946     2.669026146993    -0.005690485051    15.994914619570
         C            0.228682415946     1.444159046993     0.007109114949    12.000000000000
         N            1.485699415946     0.762242046993    -0.002314885051    14.003074004430
         C            1.689358415946    -0.595216953007     0.004703114949    12.000000000000
         N            0.723816415946    -1.481583953007     0.014019114949    14.003074004430
         C           -0.504993584054    -0.885134953007    -0.000804885051    12.000000000000
         C           -0.833813584054     0.469103046993     0.017978114949    12.000000000000
         N           -2.198120584054     0.658986046993     0.016140114949    14.003074004430
         C           -2.688381584054    -0.570753953007     0.003238114949    12.000000000000
         N           -1.710487584054    -1.536686953007    -0.004573885051    14.003074004430
         N            3.009483415946    -1.010722953007    -0.077003885051    14.003074004430
         H            2.283601415946     1.385603046993    -0.101771885051     1.007825032230
         H           -3.741118584054    -0.822214953007    -0.000669885051     1.007825032230
         H           -1.833085584054    -2.542564953007    -0.018296885051     1.007825032230
         H            3.082615415946    -2.012398953007     0.070763114949     1.007825032230
         H            3.661958415946    -0.493312953007     0.503198114949     1.007825032230

  Basis Set: AUG-CC-PVTZ
    Blend: AUG-CC-PVTZ
  Basis Set: (AUG-CC-PVTZ AUX)
    Blend: AUG-CC-PVTZ-JKFIT
	 Reference Energy          =    -539.5876485274895913 [Eh]
	 Singles Energy            =      -0.0000000000000000 [Eh]
	 Same-Spin Energy          =      -0.5729967422857662 [Eh]
	 Opposite-Spin Energy      =      -1.6631138259336549 [Eh]
	 Correlation Energy        =      -2.2361105682194209 [Eh]
	 Total Energy              =    -541.8237590957089651 [Eh]

	 ================> DF-SCS-MP2 Energies <==================
	-----------------------------------------------------------
	 SCS Same-Spin Scale       =       0.3333333333333333 [-]
	 SCS Opposite-Spin Scale   =       1.2000000000000000 [-]
	 SCS Same-Spin Energy      =      -0.1909989140952554 [Eh]
	 SCS Opposite-Spin Energy  =      -1.9957365911203857 [Eh]
	 SCS Correlation Energy    =      -2.1867355052156410 [Eh]
	 SCS Total Energy          =    -541.7743840327052567 [Eh]
	-----------------------------------------------------------

  Dipole Moment: [D]
     X:     2.6213      Y:    -5.6440      Z:     0.8441     Total:     6.2800

*** Psi4 exiting successfully. Buy a developer a beer!
