                               Psi4 1.3.2 release

  ==> Input File <==

--------------------------------------------------------------------------
#psi4
#
memory 32 gb

molecule  {
0 1
  O        0.1763910     2.6970700    -0.0085580
  C        0.2422967     1.4349105     0.0032467
  N        1.4659430     0.7906670    -0.0052000
  C        1.6696020    -0.5667920     0.0018180
  N        0.7040600    -1.4531590     0.0111340
  C       -0.5247500    -0.8567100    -0.0036900
  C       -0.8535700     0.4975280     0.0150930
  N       -2.2178770     0.6874110     0.0132550
  C       -2.7081380    -0.5423290     0.0003530
  N       -1.7302440    -1.5082620    -0.0074590
  N        2.9897270    -0.9822980    -0.0798890
  H        2.2638450     1.4140280    -0.1046570
  H       -3.7608750    -0.7937900    -0.0035550
  H       -1.8528420    -2.5141400    -0.0211820
  H        3.0628590    -1.9839740     0.0678780
  H        3.6422020    -0.4648880     0.5003130
units angstrom
no_reorient  #important for SAPT in psi4, default
symmetry c1  #important for SAPT in psi4, default
}

set PROPERTIES_ORIGIN ["COM"]
properties('MP2/aug-cc-pvtz', properties = ['dipole'])
--------------------------------------------------------------------------

    Molecular point group: c1
  Charge       = 0
  Multiplicity = 1
  Basis Set: AUG-CC-PVTZ
    Blend: AUG-CC-PVTZ
  Basis Set: (AUG-CC-PVTZ AUX)
    Blend: AUG-CC-PVTZ-JKFIT

    Orbital Energies [Eh]
    ---------------------

    Doubly Occupied:

       1A    -20.513981     2A    -15.640122     3A    -15.637110
       4A    -15.615864     5A    -15.578525     6A    -15.566606
       7A    -11.402587     8A    -11.365983     9A    -11.327745
      10A    -11.316011    11A    -11.253334    12A     -1.391263
      13A     -1.354064    14A     -1.328436    15A     -1.227956
      16A     -1.222019    17A     -1.180039    18A     -1.033593
      19A     -0.911814    20A     -0.893301    21A     -0.845640
      22A     -0.804469    23A     -0.749074    24A     -0.732614
      25A     -0.702235    26A     -0.672694    27A     -0.660538
      28A     -0.636813    29A     -0.607461    30A     -0.600407
      31A     -0.592973    32A     -0.542202    33A     -0.502408
      34A     -0.464139    35A     -0.441385    36A     -0.429277
      37A     -0.426734    38A     -0.412859    39A     -0.303924

  @DF-RHF Final Energy:  -539.58220046319843

   => Energetics <=

    Nuclear Repulsion Energy =            593.9624119737978845
    One-Electron Energy =               -1913.3128267689526183
    Two-Electron Energy =                 779.7682143319564148
    Total Energy =                       -539.5822004631984328
  Basis Set: (AUG-CC-PVTZ AUX)
    Blend: AUG-CC-PVTZ-RI
    Molecular point group: c1

    Geometry (in Angstrom), charge = 0, multiplicity = 1:

       Center              X                  Y                   Z               Mass
    ------------   -----------------  -----------------  -----------------  -----------------
         O            0.195759885093     2.671678343598    -0.005597107930    15.994914619570
         C            0.261665585093     1.409518843598     0.006207592070    12.000000000000
         N            1.485311885093     0.765275343598    -0.002239107930    14.003074004430
         C            1.688970885093    -0.592183656402     0.004778892070    12.000000000000
         N            0.723428885093    -1.478550656402     0.014094892070    14.003074004430
         C           -0.505381114907    -0.882101656402    -0.000729107930    12.000000000000
         C           -0.834201114907     0.472136343598     0.018053892070    12.000000000000
         N           -2.198508114907     0.662019343598     0.016215892070    14.003074004430
         C           -2.688769114907    -0.567720656402     0.003313892070    12.000000000000
         N           -1.710875114907    -1.533653656402    -0.004498107930    14.003074004430
         N            3.009095885093    -1.007689656402    -0.076928107930    14.003074004430
         H            2.283213885093     1.388636343598    -0.101696107930     1.007825032230
         H           -3.741506114907    -0.819181656402    -0.000594107930     1.007825032230
         H           -1.833473114907    -2.539531656402    -0.018221107930     1.007825032230
         H            3.082227885093    -2.009365656402     0.070838892070     1.007825032230
         H            3.661570885093    -0.490279656402     0.503273892070     1.007825032230

  Basis Set: AUG-CC-PVTZ
    Blend: AUG-CC-PVTZ
  Basis Set: (AUG-CC-PVTZ AUX)
    Blend: AUG-CC-PVTZ-JKFIT
	 Reference Energy          =    -539.5822004631984328 [Eh]
	 Singles Energy            =      -0.0000000000000000 [Eh]
	 Same-Spin Energy          =      -0.5738125110330301 [Eh]
	 Opposite-Spin Energy      =      -1.6645331985208576 [Eh]
	 Correlation Energy        =      -2.2383457095538875 [Eh]
	 Total Energy              =    -541.8205461727523016 [Eh]

	 ================> DF-SCS-MP2 Energies <==================
	-----------------------------------------------------------
	 SCS Same-Spin Scale       =       0.3333333333333333 [-]
	 SCS Opposite-Spin Scale   =       1.2000000000000000 [-]
	 SCS Same-Spin Energy      =      -0.1912708370110100 [Eh]
	 SCS Opposite-Spin Energy  =      -1.9974398382250289 [Eh]
	 SCS Correlation Energy    =      -2.1887106752360390 [Eh]
	 SCS Total Energy          =    -541.7709111384344851 [Eh]
	-----------------------------------------------------------

  Dipole Moment: [D]
     X:     2.8324      Y:    -6.0392      Z:     0.8459     Total:     6.7238

*** Psi4 exiting successfully. Buy a developer a beer!
