                               Psi4 1.3.2 release

  ==> Input File <==

--------------------------------------------------------------------------
#psi4
#
memory 32 gb

molecule  {
0 1
  O        0.1763910     2.6970700    -0.0085580
  C        0.2089260     1.4725840     0.0042240
  N        1.4659430     0.7906670    -0.0052000
  C        1.6696020    -0.5667920     0.0018180
  N        0.7040600    -1.4531590     0.0111340
  C       -0.5247500    -0.8567100    -0.0036900
  C       -1.0009205     0.3623039     0.0166003
  N       -2.2178770     0.6874110     0.0132550
  C       -2.7081380    -0.5423290     0.0003530
  N       -1.7302440    -1.5082620    -0.0074590
  N        2.9897270    -0.9822980    -0.0798890
  H        2.2638450     1.4140280    -0.1046570
  H       -3.7608750    -0.7937900    -0.0035550
  H       -1.8528420    -2.5141400    -0.0211820
  H        3.0628590    -1.9839740     0.0678780
  H        3.6422020    -0.4648880     0.5003130
units angstrom
no_reorient  #important for SAPT in psi4, default
symmetry c1  #important for SAPT in psi4, default
}

set PROPERTIES_ORIGIN ["COM"]
properties('MP2/aug-cc-pvtz', properties = ['dipole'])
--------------------------------------------------------------------------

    Molecular point group: c1
  Charge       = 0
  Multiplicity = 1
  Basis Set: AUG-CC-PVTZ
    Blend: AUG-CC-PVTZ
  Basis Set: (AUG-CC-PVTZ AUX)
    Blend: AUG-CC-PVTZ-JKFIT

    Orbital Energies [Eh]
    ---------------------

    Doubly Occupied:

       1A    -20.536638     2A    -15.631646     3A    -15.630028
       4A    -15.609628     5A    -15.570137     6A    -15.561280
       7A    -11.394456     8A    -11.374381     9A    -11.313578
      10A    -11.299474    11A    -11.255372    12A     -1.400282
      13A     -1.380182    14A     -1.338977    15A     -1.229905
      16A     -1.216868    17A     -1.190393    18A     -1.025851
      19A     -0.892007    20A     -0.871258    21A     -0.865590
      22A     -0.796412    23A     -0.737910    24A     -0.727779
      25A     -0.699253    26A     -0.672399    27A     -0.658396
      28A     -0.635272    29A     -0.616564    30A     -0.603346
      31A     -0.577818    32A     -0.543315    33A     -0.509239
      34A     -0.464352    35A     -0.460891    36A     -0.436727
      37A     -0.422387    38A     -0.416383    39A     -0.299061

  @DF-RHF Final Energy:  -539.53395744621662

   => Energetics <=

    Nuclear Repulsion Energy =            594.6106214593552295
    One-Electron Energy =               -1914.5582810807611622
    Two-Electron Energy =                 780.4137021751892007
    Total Energy =                       -539.5339574462166183
  Basis Set: (AUG-CC-PVTZ AUX)
    Blend: AUG-CC-PVTZ-RI
    Molecular point group: c1

    Geometry (in Angstrom), charge = 0, multiplicity = 1:

       Center              X                  Y                   Z               Mass
    ------------   -----------------  -----------------  -----------------  -----------------
         O            0.210117136822     2.679428173283    -0.005794494997    15.994914619570
         C            0.242652136822     1.454942173283     0.006987505003    12.000000000000
         N            1.499669136822     0.773025173283    -0.002436494997    14.003074004430
         C            1.703328136822    -0.584433826717     0.004581505003    12.000000000000
         N            0.737786136822    -1.470800826717     0.013897505003    14.003074004430
         C           -0.491023863178    -0.874351826717    -0.000926494997    12.000000000000
         C           -0.967194363178     0.344662073283     0.019363805003    12.000000000000
         N           -2.184150863178     0.669769173283     0.016018505003    14.003074004430
         C           -2.674411863178    -0.559970826717     0.003116505003    12.000000000000
         N           -1.696517863178    -1.525903826717    -0.004695494997    14.003074004430
         N            3.023453136822    -0.999939826717    -0.077125494997    14.003074004430
         H            2.297571136822     1.396386173283    -0.101893494997     1.007825032230
         H           -3.727148863178    -0.811431826717    -0.000791494997     1.007825032230
         H           -1.819115863178    -2.531781826717    -0.018418494997     1.007825032230
         H            3.096585136822    -2.001615826717     0.070641505003     1.007825032230
         H            3.675928136822    -0.482529826717     0.503076505003     1.007825032230

  Basis Set: AUG-CC-PVTZ
    Blend: AUG-CC-PVTZ
  Basis Set: (AUG-CC-PVTZ AUX)
    Blend: AUG-CC-PVTZ-JKFIT
	 Reference Energy          =    -539.5339574462166183 [Eh]
	 Singles Energy            =      -0.0000000000000000 [Eh]
	 Same-Spin Energy          =      -0.5737591330805556 [Eh]
	 Opposite-Spin Energy      =      -1.6642234319444063 [Eh]
	 Correlation Energy        =      -2.2379825650249616 [Eh]
	 Total Energy              =    -541.7719400112415542 [Eh]

	 ================> DF-SCS-MP2 Energies <==================
	-----------------------------------------------------------
	 SCS Same-Spin Scale       =       0.3333333333333333 [-]
	 SCS Opposite-Spin Scale   =       1.2000000000000000 [-]
	 SCS Same-Spin Energy      =      -0.1912530443601852 [Eh]
	 SCS Opposite-Spin Energy  =      -1.9970681183332875 [Eh]
	 SCS Correlation Energy    =      -2.1883211626934727 [Eh]
	 SCS Total Energy          =    -541.7222786089100737 [Eh]
	-----------------------------------------------------------

  Dipole Moment: [D]
     X:     2.6831      Y:    -5.1338      Z:     0.8455     Total:     5.8540

*** Psi4 exiting successfully. Buy a developer a beer!
