                               Psi4 1.3.2 release

  ==> Input File <==

--------------------------------------------------------------------------
#psi4
#
memory 32 gb

molecule  {
0 1
  O        0.1763910     2.6970700    -0.0085580
  C        0.2089260     1.4725840     0.0042240
  N        1.4659430     0.7906670    -0.0052000
  C        1.6696020    -0.5667920     0.0018180
  N        0.7040600    -1.4531590     0.0111340
  C       -0.5247500    -0.8567100    -0.0036900
  C       -0.8061033     0.5081802     0.0150474
  N       -2.2178770     0.6874110     0.0132550
  C       -2.7081380    -0.5423290     0.0003530
  N       -1.7302440    -1.5082620    -0.0074590
  N        2.9897270    -0.9822980    -0.0798890
  H        2.2638450     1.4140280    -0.1046570
  H       -3.7608750    -0.7937900    -0.0035550
  H       -1.8528420    -2.5141400    -0.0211820
  H        3.0628590    -1.9839740     0.0678780
  H        3.6422020    -0.4648880     0.5003130
units angstrom
no_reorient  #important for SAPT in psi4, default
symmetry c1  #important for SAPT in psi4, default
}

set PROPERTIES_ORIGIN ["COM"]
properties('MP2/aug-cc-pvtz', properties = ['dipole'])
--------------------------------------------------------------------------

    Molecular point group: c1
  Charge       = 0
  Multiplicity = 1
  Basis Set: AUG-CC-PVTZ
    Blend: AUG-CC-PVTZ
  Basis Set: (AUG-CC-PVTZ AUX)
    Blend: AUG-CC-PVTZ-JKFIT

    Orbital Energies [Eh]
    ---------------------

    Doubly Occupied:

       1A    -20.520967     2A    -15.637003     3A    -15.631069
       4A    -15.612918     5A    -15.574279     6A    -15.567097
       7A    -11.399608     8A    -11.363752     9A    -11.333710
      10A    -11.316256    11A    -11.249852    12A     -1.393162
      13A     -1.358629    14A     -1.334531    15A     -1.221790
      16A     -1.217261    17A     -1.171673    18A     -1.037492
      19A     -0.913899    20A     -0.885138    21A     -0.841071
      22A     -0.799816    23A     -0.740003    24A     -0.730310
      25A     -0.702893    26A     -0.676290    27A     -0.657199
      28A     -0.633617    29A     -0.614940    30A     -0.599001
      31A     -0.595143    32A     -0.548741    33A     -0.498099
      34A     -0.462552    35A     -0.438963    36A     -0.433901
      37A     -0.432098    38A     -0.407899    39A     -0.308205

  @DF-RHF Final Energy:  -539.58448611710810

   => Energetics <=

    Nuclear Repulsion Energy =            593.7709734067308318
    One-Electron Energy =               -1912.9892629261557886
    Two-Electron Energy =                 779.6338034023169712
    Total Energy =                       -539.5844861171080993
  Basis Set: (AUG-CC-PVTZ AUX)
    Blend: AUG-CC-PVTZ-RI
    Molecular point group: c1

    Geometry (in Angstrom), charge = 0, multiplicity = 1:

       Center              X                  Y                   Z               Mass
    ------------   -----------------  -----------------  -----------------  -----------------
         O            0.194640039605     2.667839146870    -0.005671126094    15.994914619570
         C            0.227175039605     1.443353146870     0.007110873906    12.000000000000
         N            1.484192039605     0.761436146870    -0.002313126094    14.003074004430
         C            1.687851039605    -0.596022853130     0.004704873906    12.000000000000
         N            0.722309039605    -1.482389853130     0.014020873906    14.003074004430
         C           -0.506500960395    -0.885940853130    -0.000803126094    12.000000000000
         C           -0.787854260395     0.478949346870     0.017934273906    12.000000000000
         N           -2.199627960395     0.658180146870     0.016141873906    14.003074004430
         C           -2.689888960395    -0.571559853130     0.003239873906    12.000000000000
         N           -1.711994960395    -1.537492853130    -0.004572126094    14.003074004430
         N            3.007976039605    -1.011528853130    -0.077002126094    14.003074004430
         H            2.282094039605     1.384797146870    -0.101770126094     1.007825032230
         H           -3.742625960395    -0.823020853130    -0.000668126094     1.007825032230
         H           -1.834592960395    -2.543370853130    -0.018295126094     1.007825032230
         H            3.081108039605    -2.013204853130     0.070764873906     1.007825032230
         H            3.660451039605    -0.494118853130     0.503199873906     1.007825032230

  Basis Set: AUG-CC-PVTZ
    Blend: AUG-CC-PVTZ
  Basis Set: (AUG-CC-PVTZ AUX)
    Blend: AUG-CC-PVTZ-JKFIT
	 Reference Energy          =    -539.5844861171080993 [Eh]
	 Singles Energy            =      -0.0000000000000000 [Eh]
	 Same-Spin Energy          =      -0.5727968158551401 [Eh]
	 Opposite-Spin Energy      =      -1.6633955453494691 [Eh]
	 Correlation Energy        =      -2.2361923612046093 [Eh]
	 Total Energy              =    -541.8206784783127432 [Eh]

	 ================> DF-SCS-MP2 Energies <==================
	-----------------------------------------------------------
	 SCS Same-Spin Scale       =       0.3333333333333333 [-]
	 SCS Opposite-Spin Scale   =       1.2000000000000000 [-]
	 SCS Same-Spin Energy      =      -0.1909322719517134 [Eh]
	 SCS Opposite-Spin Energy  =      -1.9960746544193628 [Eh]
	 SCS Correlation Energy    =      -2.1870069263710761 [Eh]
	 SCS Total Energy          =    -541.7714930434791540 [Eh]
	-----------------------------------------------------------

  Dipole Moment: [D]
     X:     2.6549      Y:    -5.7534      Z:     0.8434     Total:     6.3923

*** Psi4 exiting successfully. Buy a developer a beer!
