                               Psi4 1.3.2 release

  ==> Input File <==

--------------------------------------------------------------------------
#psi4
#
memory 32 gb

molecule  {
0 1
  O        0.1763910     2.6970700    -0.0085580
  C        0.2089260     1.4725840     0.0042240
  N        1.4659430     0.7906670    -0.0052000
  C        1.6054181    -0.5016101     0.0005173
  N        0.7040600    -1.4531590     0.0111340
  C       -0.5247500    -0.8567100    -0.0036900
  C       -0.8535700     0.4975280     0.0150930
  N       -2.2178770     0.6874110     0.0132550
  C       -2.7081380    -0.5423290     0.0003530
  N       -1.7302440    -1.5082620    -0.0074590
  N        2.9897270    -0.9822980    -0.0798890
  H        2.2638450     1.4140280    -0.1046570
  H       -3.7608750    -0.7937900    -0.0035550
  H       -1.8528420    -2.5141400    -0.0211820
  H        3.0628590    -1.9839740     0.0678780
  H        3.6422020    -0.4648880     0.5003130
units angstrom
no_reorient  #important for SAPT in psi4, default
symmetry c1  #important for SAPT in psi4, default
}

set PROPERTIES_ORIGIN ["COM"]
properties('MP2/aug-cc-pvtz', properties = ['dipole'])
--------------------------------------------------------------------------

    Molecular point group: c1
  Charge       = 0
  Multiplicity = 1
  Basis Set: AUG-CC-PVTZ
    Blend: AUG-CC-PVTZ
  Basis Set: (AUG-CC-PVTZ AUX)
    Blend: AUG-CC-PVTZ-JKFIT

    Orbital Energies [Eh]
    ---------------------

    Doubly Occupied:

       1A    -20.529693     2A    -15.642776     3A    -15.637373
       4A    -15.600623     5A    -15.576057     6A    -15.567449
       7A    -11.396469     8A    -11.372814     9A    -11.329989
      10A    -11.316660    11A    -11.254116    12A     -1.404987
      13A     -1.364287    14A     -1.341344    15A     -1.234020
      16A     -1.196970    17A     -1.181489    18A     -1.033791
      19A     -0.914264    20A     -0.893658    21A     -0.847633
      22A     -0.801409    23A     -0.754337    24A     -0.713075
      25A     -0.694989    26A     -0.676000    27A     -0.663125
      28A     -0.618895    29A     -0.617801    30A     -0.605583
      31A     -0.600317    32A     -0.543942    33A     -0.507822
      34A     -0.456153    35A     -0.448003    36A     -0.440790
      37A     -0.436991    38A     -0.415217    39A     -0.305110

  @DF-RHF Final Energy:  -539.57725997951218

   => Energetics <=

    Nuclear Repulsion Energy =            594.7493642655041413
    One-Electron Energy =               -1914.7812059817608770
    Two-Electron Energy =                 780.4545817367444442
    Total Energy =                       -539.5772599795121778
  Basis Set: (AUG-CC-PVTZ AUX)
    Blend: AUG-CC-PVTZ-RI
    Molecular point group: c1

    Geometry (in Angstrom), charge = 0, multiplicity = 1:

       Center              X                  Y                   Z               Mass
    ------------   -----------------  -----------------  -----------------  -----------------
         O            0.203510032555     2.663507078304    -0.005571415674    15.994914619570
         C            0.236045032555     1.439021078304     0.007210584326    12.000000000000
         N            1.493062032555     0.757104078304    -0.002213415674    14.003074004430
         C            1.632537132555    -0.535173021696     0.003503884326    12.000000000000
         N            0.731179032555    -1.486721921696     0.014120584326    14.003074004430
         C           -0.497630967445    -0.890272921696    -0.000703415674    12.000000000000
         C           -0.826450967445     0.463965078304     0.018079584326    12.000000000000
         N           -2.190757967445     0.653848078304     0.016241584326    14.003074004430
         C           -2.681018967445    -0.575891921696     0.003339584326    12.000000000000
         N           -1.703124967445    -1.541824921696    -0.004472415674    14.003074004430
         N            3.016846032555    -1.015860921696    -0.076902415674    14.003074004430
         H            2.290964032555     1.380465078304    -0.101670415674     1.007825032230
         H           -3.733755967445    -0.827352921696    -0.000568415674     1.007825032230
         H           -1.825722967445    -2.547702921696    -0.018195415674     1.007825032230
         H            3.089978032555    -2.017536921696     0.070864584326     1.007825032230
         H            3.669321032555    -0.498450921696     0.503299584326     1.007825032230

  Basis Set: AUG-CC-PVTZ
    Blend: AUG-CC-PVTZ
  Basis Set: (AUG-CC-PVTZ AUX)
    Blend: AUG-CC-PVTZ-JKFIT
	 Reference Energy          =    -539.5772599795121778 [Eh]
	 Singles Energy            =      -0.0000000000000000 [Eh]
	 Same-Spin Energy          =      -0.5730406121531915 [Eh]
	 Opposite-Spin Energy      =      -1.6636607409580821 [Eh]
	 Correlation Energy        =      -2.2367013531112736 [Eh]
	 Total Energy              =    -541.8139613326234212 [Eh]

	 ================> DF-SCS-MP2 Energies <==================
	-----------------------------------------------------------
	 SCS Same-Spin Scale       =       0.3333333333333333 [-]
	 SCS Opposite-Spin Scale   =       1.2000000000000000 [-]
	 SCS Same-Spin Energy      =      -0.1910135373843971 [Eh]
	 SCS Opposite-Spin Energy  =      -1.9963928891496985 [Eh]
	 SCS Correlation Energy    =      -2.1874064265340958 [Eh]
	 SCS Total Energy          =    -541.7646664060462172 [Eh]
	-----------------------------------------------------------

  Dipole Moment: [D]
     X:     2.1466      Y:    -5.2477      Z:     0.8514     Total:     5.7333

*** Psi4 exiting successfully. Buy a developer a beer!
