                               Psi4 1.3.2 release

  ==> Input File <==

--------------------------------------------------------------------------
#psi4
#
memory 32 gb

molecule  {
0 1
  O        0.1763910     2.6970700    -0.0085580
  C        0.2089260     1.4725840     0.0042240
  N        1.4659430     0.7906670    -0.0052000
  C        1.6634512    -0.5838983    -0.0141513
  N        0.7040600    -1.4531590     0.0111340
  C       -0.5247500    -0.8567100    -0.0036900
  C       -0.8535700     0.4975280     0.0150930
  N       -2.2178770     0.6874110     0.0132550
  C       -2.7081380    -0.5423290     0.0003530
  N       -1.7302440    -1.5082620    -0.0074590
  N        2.9897270    -0.9822980    -0.0798890
  H        2.2638450     1.4140280    -0.1046570
  H       -3.7608750    -0.7937900    -0.0035550
  H       -1.8528420    -2.5141400    -0.0211820
  H        3.0628590    -1.9839740     0.0678780
  H        3.6422020    -0.4648880     0.5003130
units angstrom
no_reorient  #important for SAPT in psi4, default
symmetry c1  #important for SAPT in psi4, default
}

set PROPERTIES_ORIGIN ["COM"]
properties('MP2/aug-cc-pvtz', properties = ['dipole'])
--------------------------------------------------------------------------

    Molecular point group: c1
  Charge       = 0
  Multiplicity = 1
  Basis Set: AUG-CC-PVTZ
    Blend: AUG-CC-PVTZ
  Basis Set: (AUG-CC-PVTZ AUX)
    Blend: AUG-CC-PVTZ-JKFIT

    Orbital Energies [Eh]
    ---------------------

    Doubly Occupied:

       1A    -20.523787     2A    -15.637265     3A    -15.629273
       4A    -15.611366     5A    -15.574484     6A    -15.565936
       7A    -11.397762     8A    -11.367140     9A    -11.328299
      10A    -11.314835    11A    -11.252425    12A     -1.392499
      13A     -1.361594    14A     -1.335443    15A     -1.221132
      16A     -1.217411    17A     -1.179282    18A     -1.032233
      19A     -0.906459    20A     -0.883242    21A     -0.845675
      22A     -0.799614    23A     -0.738505    24A     -0.730821
      25A     -0.700041    26A     -0.671840    27A     -0.656113
      28A     -0.636710    29A     -0.614443    30A     -0.601291
      31A     -0.596189    32A     -0.548687    33A     -0.500493
      34A     -0.462644    35A     -0.442746    36A     -0.433415
      37A     -0.431225    38A     -0.412807    39A     -0.304754

  @DF-RHF Final Energy:  -539.58745022798075

   => Energetics <=

    Nuclear Repulsion Energy =            593.6612220302944252
    One-Electron Energy =               -1912.7775919338496351
    Two-Electron Energy =                 779.5289196755743433
    Total Energy =                       -539.5874502279807530
  Basis Set: (AUG-CC-PVTZ AUX)
    Blend: AUG-CC-PVTZ-RI
    Molecular point group: c1

    Geometry (in Angstrom), charge = 0, multiplicity = 1:

       Center              X                  Y                   Z               Mass
    ------------   -----------------  -----------------  -----------------  -----------------
         O            0.198899639168     2.670044398783    -0.004406080436    15.994914619570
         C            0.231434639168     1.445558398783     0.008375919564    12.000000000000
         N            1.488451639168     0.763641398783    -0.001048080436    14.003074004430
         C            1.685959839168    -0.610923901217    -0.009999380436    12.000000000000
         N            0.726568639168    -1.480184601217     0.015285919564    14.003074004430
         C           -0.502241360832    -0.883735601217     0.000461919564    12.000000000000
         C           -0.831061360832     0.470502398783     0.019244919564    12.000000000000
         N           -2.195368360832     0.660385398783     0.017406919564    14.003074004430
         C           -2.685629360832    -0.569354601217     0.004504919564    12.000000000000
         N           -1.707735360832    -1.535287601217    -0.003307080436    14.003074004430
         N            3.012235639168    -1.009323601217    -0.075737080436    14.003074004430
         H            2.286353639168     1.387002398783    -0.100505080436     1.007825032230
         H           -3.738366360832    -0.820815601217     0.000596919564     1.007825032230
         H           -1.830333360832    -2.541165601217    -0.017030080436     1.007825032230
         H            3.085367639168    -2.010999601217     0.072029919564     1.007825032230
         H            3.664710639168    -0.491913601217     0.504464919564     1.007825032230

  Basis Set: AUG-CC-PVTZ
    Blend: AUG-CC-PVTZ
  Basis Set: (AUG-CC-PVTZ AUX)
    Blend: AUG-CC-PVTZ-JKFIT
	 Reference Energy          =    -539.5874502279807530 [Eh]
	 Singles Energy            =      -0.0000000000000000 [Eh]
	 Same-Spin Energy          =      -0.5728721043332001 [Eh]
	 Opposite-Spin Energy      =      -1.6630220427947602 [Eh]
	 Correlation Energy        =      -2.2358941471279605 [Eh]
	 Total Energy              =    -541.8233443751087179 [Eh]

	 ================> DF-SCS-MP2 Energies <==================
	-----------------------------------------------------------
	 SCS Same-Spin Scale       =       0.3333333333333333 [-]
	 SCS Opposite-Spin Scale   =       1.2000000000000000 [-]
	 SCS Same-Spin Energy      =      -0.1909573681110667 [Eh]
	 SCS Opposite-Spin Energy  =      -1.9956264513537121 [Eh]
	 SCS Correlation Energy    =      -2.1865838194647789 [Eh]
	 SCS Total Energy          =    -541.7740340474455252 [Eh]
	-----------------------------------------------------------

  Dipole Moment: [D]
     X:     2.6106      Y:    -5.7073      Z:     0.8311     Total:     6.3308

*** Psi4 exiting successfully. Buy a developer a beer!
