                               Psi4 1.3.2 release

  ==> Input File <==

--------------------------------------------------------------------------
#psi4
#
memory 32 gb

molecule  {
0 1
  O        0.1763910     2.6970700    -0.0085580
  C        0.2089260     1.4725840     0.0042240
  N        1.4659430     0.7906670    -0.0052000
  C        1.6992754    -0.7645758     0.0028405
  N        0.7040600    -1.4531590     0.0111340
  C       -0.5247500    -0.8567100    -0.0036900
  C       -0.8535700     0.4975280     0.0150930
  N       -2.2178770     0.6874110     0.0132550
  C       -2.7081380    -0.5423290     0.0003530
  N       -1.7302440    -1.5082620    -0.0074590
  N        2.9897270    -0.9822980    -0.0798890
  H        2.2638450     1.4140280    -0.1046570
  H       -3.7608750    -0.7937900    -0.0035550
  H       -1.8528420    -2.5141400    -0.0211820
  H        3.0628590    -1.9839740     0.0678780
  H        3.6422020    -0.4648880     0.5003130
units angstrom
no_reorient  #important for SAPT in psi4, default
symmetry c1  #important for SAPT in psi4, default
}

set PROPERTIES_ORIGIN ["COM"]
properties('MP2/aug-cc-pvtz', properties = ['dipole'])
--------------------------------------------------------------------------

    Molecular point group: c1
  Charge       = 0
  Multiplicity = 1
  Basis Set: AUG-CC-PVTZ
    Blend: AUG-CC-PVTZ
  Basis Set: (AUG-CC-PVTZ AUX)
    Blend: AUG-CC-PVTZ-JKFIT

    Orbital Energies [Eh]
    ---------------------

    Doubly Occupied:

       1A    -20.512896     2A    -15.641356     3A    -15.621832
       4A    -15.595837     5A    -15.578121     6A    -15.566929
       7A    -11.396725     8A    -11.354292     9A    -11.330459
      10A    -11.315536    11A    -11.255190    12A     -1.385423
      13A     -1.358567    14A     -1.345819    15A     -1.254896
      16A     -1.191626    17A     -1.170229    18A     -1.035849
      19A     -0.905210    20A     -0.870414    21A     -0.846062
      22A     -0.797728    23A     -0.768544    24A     -0.711454
      25A     -0.698433    26A     -0.660578    27A     -0.653497
      28A     -0.645138    29A     -0.607764    30A     -0.599020
      31A     -0.594481    32A     -0.549829    33A     -0.490701
      34A     -0.475208    35A     -0.435660    36A     -0.421693
      37A     -0.415033    38A     -0.404748    39A     -0.312233

  @DF-RHF Final Energy:  -539.54478570529739

   => Energetics <=

    Nuclear Repulsion Energy =            592.6471332053652077
    One-Electron Energy =               -1910.8338162926875157
    Two-Electron Energy =                 778.6418973820249221
    Total Energy =                       -539.5447857052973859
  Basis Set: (AUG-CC-PVTZ AUX)
    Blend: AUG-CC-PVTZ-RI
    Molecular point group: c1

    Geometry (in Angstrom), charge = 0, multiplicity = 1:

       Center              X                  Y                   Z               Mass
    ------------   -----------------  -----------------  -----------------  -----------------
         O            0.196053614145     2.684398178800    -0.005755980447    15.994914619570
         C            0.228588614145     1.459912178800     0.007026019553    12.000000000000
         N            1.485605614145     0.777995178800    -0.002397980447    14.003074004430
         C            1.718938014145    -0.777247621200     0.005642519553    12.000000000000
         N            0.723722614145    -1.465830821200     0.013936019553    14.003074004430
         C           -0.505087385855    -0.869381821200    -0.000887980447    12.000000000000
         C           -0.833907385855     0.484856178800     0.017895019553    12.000000000000
         N           -2.198214385855     0.674739178800     0.016057019553    14.003074004430
         C           -2.688475385855    -0.555000821200     0.003155019553    12.000000000000
         N           -1.710581385855    -1.520933821200    -0.004656980447    14.003074004430
         N            3.009389614145    -0.994969821200    -0.077086980447    14.003074004430
         H            2.283507614145     1.401356178800    -0.101854980447     1.007825032230
         H           -3.741212385855    -0.806461821200    -0.000752980447     1.007825032230
         H           -1.833179385855    -2.526811821200    -0.018379980447     1.007825032230
         H            3.082521614145    -1.996645821200     0.070680019553     1.007825032230
         H            3.661864614145    -0.477559821200     0.503115019553     1.007825032230

  Basis Set: AUG-CC-PVTZ
    Blend: AUG-CC-PVTZ
  Basis Set: (AUG-CC-PVTZ AUX)
    Blend: AUG-CC-PVTZ-JKFIT
	 Reference Energy          =    -539.5447857052973859 [Eh]
	 Singles Energy            =      -0.0000000000000000 [Eh]
	 Same-Spin Energy          =      -0.5735621618241531 [Eh]
	 Opposite-Spin Energy      =      -1.6650275276088973 [Eh]
	 Correlation Energy        =      -2.2385896894330504 [Eh]
	 Total Energy              =    -541.7833753947304558 [Eh]

	 ================> DF-SCS-MP2 Energies <==================
	-----------------------------------------------------------
	 SCS Same-Spin Scale       =       0.3333333333333333 [-]
	 SCS Opposite-Spin Scale   =       1.2000000000000000 [-]
	 SCS Same-Spin Energy      =      -0.1911873872747177 [Eh]
	 SCS Opposite-Spin Energy  =      -1.9980330331306766 [Eh]
	 SCS Correlation Energy    =      -2.1892204204053942 [Eh]
	 SCS Total Energy          =    -541.7340061257027628 [Eh]
	-----------------------------------------------------------

  Dipole Moment: [D]
     X:     2.8964      Y:    -6.7259      Z:     0.8541     Total:     7.3726

*** Psi4 exiting successfully. Buy a developer a beer!
