                               Psi4 1.3.2 release

  ==> Input File <==

--------------------------------------------------------------------------
#psi4
#
memory 32 gb

molecule  {
0 1
  O        0.1763910     2.6970700    -0.0085580
  C        0.2089260     1.4725840     0.0042240
  N        1.4659430     0.7906670    -0.0052000
  C        1.6474296    -0.6359243    -0.0621598
  N        0.7040600    -1.4531590     0.0111340
  C       -0.5247500    -0.8567100    -0.0036900
  C       -0.8535700     0.4975280     0.0150930
  N       -2.2178770     0.6874110     0.0132550
  C       -2.7081380    -0.5423290     0.0003530
  N       -1.7302440    -1.5082620    -0.0074590
  N        2.9897270    -0.9822980    -0.0798890
  H        2.2638450     1.4140280    -0.1046570
  H       -3.7608750    -0.7937900    -0.0035550
  H       -1.8528420    -2.5141400    -0.0211820
  H        3.0628590    -1.9839740     0.0678780
  H        3.6422020    -0.4648880     0.5003130
units angstrom
no_reorient  #important for SAPT in psi4, default
symmetry c1  #important for SAPT in psi4, default
}

set PROPERTIES_ORIGIN ["COM"]
properties('MP2/aug-cc-pvtz', properties = ['dipole'])
--------------------------------------------------------------------------

    Molecular point group: c1
  Charge       = 0
  Multiplicity = 1
  Basis Set: AUG-CC-PVTZ
    Blend: AUG-CC-PVTZ
  Basis Set: (AUG-CC-PVTZ AUX)
    Blend: AUG-CC-PVTZ-JKFIT

    Orbital Energies [Eh]
    ---------------------

    Doubly Occupied:

       1A    -20.521805     2A    -15.640243     3A    -15.620813
       4A    -15.608551     5A    -15.577072     6A    -15.567761
       7A    -11.395336     8A    -11.364274     9A    -11.330363
      10A    -11.316440    11A    -11.255306    12A     -1.390500
      13A     -1.363164    14A     -1.336319    15A     -1.226912
      16A     -1.208111    17A     -1.181569    18A     -1.034902
      19A     -0.906515    20A     -0.876932    21A     -0.847557
      22A     -0.799668    23A     -0.740179    24A     -0.726485
      25A     -0.698295    26A     -0.667621    27A     -0.655921
      28A     -0.643253    29A     -0.613561    30A     -0.600883
      31A     -0.594795    32A     -0.550850    33A     -0.501633
      34A     -0.463206    35A     -0.442164    36A     -0.432946
      37A     -0.425906    38A     -0.414272    39A     -0.310015

  @DF-RHF Final Energy:  -539.58017154983611

   => Energetics <=

    Nuclear Repulsion Energy =            593.6249443342148879
    One-Electron Energy =               -1912.7060409747712129
    Two-Electron Energy =                 779.5009250907202158
    Total Energy =                       -539.5801715498361091
  Basis Set: (AUG-CC-PVTZ AUX)
    Blend: AUG-CC-PVTZ-RI
    Molecular point group: c1

    Geometry (in Angstrom), charge = 0, multiplicity = 1:

       Center              X                  Y                   Z               Mass
    ------------   -----------------  -----------------  -----------------  -----------------
         O            0.200172462414     2.674177562897    -0.000592083408    15.994914619570
         C            0.232707462414     1.449691562897     0.012189916592    12.000000000000
         N            1.489724462414     0.767774562897     0.002765916592    14.003074004430
         C            1.671211062414    -0.658816737103    -0.054193883408    12.000000000000
         N            0.727841462414    -1.476051437103     0.019099916592    14.003074004430
         C           -0.500968537586    -0.879602437103     0.004275916592    12.000000000000
         C           -0.829788537586     0.474635562897     0.023058916592    12.000000000000
         N           -2.194095537586     0.664518562897     0.021220916592    14.003074004430
         C           -2.684356537586    -0.565221437103     0.008318916592    12.000000000000
         N           -1.706462537586    -1.531154437103     0.000506916592    14.003074004430
         N            3.013508462414    -1.005190437103    -0.071923083408    14.003074004430
         H            2.287626462414     1.391135562897    -0.096691083408     1.007825032230
         H           -3.737093537586    -0.816682437103     0.004410916592     1.007825032230
         H           -1.829060537586    -2.537032437103    -0.013216083408     1.007825032230
         H            3.086640462414    -2.006866437103     0.075843916592     1.007825032230
         H            3.665983462414    -0.487780437103     0.508278916592     1.007825032230

  Basis Set: AUG-CC-PVTZ
    Blend: AUG-CC-PVTZ
  Basis Set: (AUG-CC-PVTZ AUX)
    Blend: AUG-CC-PVTZ-JKFIT
	 Reference Energy          =    -539.5801715498361091 [Eh]
	 Singles Energy            =      -0.0000000000000000 [Eh]
	 Same-Spin Energy          =      -0.5725506014231727 [Eh]
	 Opposite-Spin Energy      =      -1.6628945972526843 [Eh]
	 Correlation Energy        =      -2.2354451986758570 [Eh]
	 Total Energy              =    -541.8156167485119568 [Eh]

	 ================> DF-SCS-MP2 Energies <==================
	-----------------------------------------------------------
	 SCS Same-Spin Scale       =       0.3333333333333333 [-]
	 SCS Opposite-Spin Scale   =       1.2000000000000000 [-]
	 SCS Same-Spin Energy      =      -0.1908502004743909 [Eh]
	 SCS Opposite-Spin Energy  =      -1.9954735167032212 [Eh]
	 SCS Correlation Energy    =      -2.1863237171776122 [Eh]
	 SCS Total Energy          =    -541.7664952670137382 [Eh]
	-----------------------------------------------------------

  Dipole Moment: [D]
     X:     2.4378      Y:    -5.9428      Z:     0.7860     Total:     6.4713

*** Psi4 exiting successfully. Buy a developer a beer!
