                               Psi4 1.4a3.dev225

  ==> Input File <==

--------------------------------------------------------------------------
#psi4
#
memory 32 gb

molecule  {
0 1
  O        0.1763800     2.6970850    -0.0086780
  C        0.2088860     1.4725900     0.0042210
  N        1.4659360     0.7906750    -0.0050880
  C        1.6696170    -0.5667500     0.0018210
  N        0.7040680    -1.4531450     0.0111020
  C       -0.5247290    -0.8567090    -0.0037110
  C       -0.8535850     0.4975420     0.0152200
  N       -2.2178950     0.6873840     0.0133320
  C       -2.7081200    -0.5423560     0.0003580
  N       -1.7302140    -1.5082770    -0.0075250
  N        2.9897250    -0.9823190    -0.0798750
  H        2.2481148     1.4017831    -0.1029007
  H       -3.7608500    -0.7938460    -0.0035590
  H       -1.8527810    -2.5141570    -0.0214260
  H        3.0628080    -1.9839860     0.0679760
  H        3.6422460    -0.4648460     0.5002060
units angstrom
no_reorient  #important for SAPT in psi4, default
symmetry c1  #important for SAPT in psi4, default
}

set PROPERTIES_ORIGIN ["COM"]
properties('MP2/aug-cc-pvtz', properties = ['dipole'])
--------------------------------------------------------------------------

    Molecular point group: c1
  Charge       = 0
  Multiplicity = 1
  Basis Set: AUG-CC-PVTZ
    Blend: AUG-CC-PVTZ
  Basis Set: (AUG-CC-PVTZ AUX)
    Blend: AUG-CC-PVTZ-JKFIT

    Orbital Energies [Eh]
    ---------------------

    Doubly Occupied:

       1A    -20.524580     2A    -15.636326     3A    -15.630343
       4A    -15.612554     5A    -15.573722     6A    -15.565382
       7A    -11.398764     8A    -11.368124     9A    -11.327697
      10A    -11.314392    11A    -11.251520    12A     -1.394149
      13A     -1.361090    14A     -1.336351    15A     -1.222034
      16A     -1.219000    17A     -1.178648    18A     -1.031583
      19A     -0.907825    20A     -0.886297    21A     -0.845182
      22A     -0.799906    23A     -0.744002    24A     -0.730468
      25A     -0.701005    26A     -0.673332    27A     -0.656621
      28A     -0.634442    29A     -0.614794    30A     -0.601900
      31A     -0.596894    32A     -0.548096    33A     -0.500014
      34A     -0.462705    35A     -0.443379    36A     -0.433309
      37A     -0.432905    38A     -0.412361    39A     -0.303010

  @DF-RHF Final Energy:  -539.58804855992253

   => Energetics <=

    Nuclear Repulsion Energy =            593.7869019147340168
    One-Electron Energy =               -1913.0004912843542115
    Two-Electron Energy =                 779.6255408096976680
    Total Energy =                       -539.5880485599225267
  Basis Set: (AUG-CC-PVTZ AUX)
    Blend: AUG-CC-PVTZ-RI
    Molecular point group: c1

    Geometry (in Angstrom), charge = 0, multiplicity = 1:

       Center              X                  Y                   Z               Mass
    ------------   -----------------  -----------------  -----------------  -----------------
         O            0.198504645489     2.668781741726    -0.005810597637    15.994914619570
         C            0.231010645489     1.444286741726     0.007088402363    12.000000000000
         N            1.488060645489     0.762371741726    -0.002220597637    14.003074004430
         C            1.691741645489    -0.595053258274     0.004688402363    12.000000000000
         N            0.726192645489    -1.481448258274     0.013969402363    14.003074004430
         C           -0.502604354511    -0.885012258274    -0.000843597637    12.000000000000
         C           -0.831460354511     0.469238741726     0.018087402363    12.000000000000
         N           -2.195770354511     0.659080741726     0.016199402363    14.003074004430
         C           -2.685995354511    -0.570659258274     0.003225402363    12.000000000000
         N           -1.708089354511    -1.536580258274    -0.004657597637    14.003074004430
         N            3.011849645489    -1.010622258274    -0.077007597637    14.003074004430
         H            2.270239445489     1.373479841726    -0.100033297637     1.007825032230
         H           -3.738725354511    -0.822149258274    -0.000691597637     1.007825032230
         H           -1.830656354511    -2.542460258274    -0.018558597637     1.007825032230
         H            3.084932645489    -2.012289258274     0.070843402363     1.007825032230
         H            3.664370645489    -0.493149258274     0.503073402363     1.007825032230

  Basis Set: AUG-CC-PVTZ
    Blend: AUG-CC-PVTZ
  Basis Set: (AUG-CC-PVTZ AUX)
    Blend: AUG-CC-PVTZ-JKFIT
	 Reference Energy          =    -539.5880485599225267 [Eh]
	 Singles Energy            =      -0.0000000000000000 [Eh]
	 Same-Spin Energy          =      -0.5728596807175601 [Eh]
	 Opposite-Spin Energy      =      -1.6628474603836088 [Eh]
	 Correlation Energy        =      -2.2357071411011686 [Eh]
	 Total Energy              =    -541.8237557010237424 [Eh]

	 ================> DF-SCS-MP2 Energies <==================
	-----------------------------------------------------------
	 SCS Same-Spin Scale       =       0.3333333333333333 [-]
	 SCS Opposite-Spin Scale   =       1.2000000000000000 [-]
	 SCS Same-Spin Energy      =      -0.1909532269058534 [Eh]
	 SCS Opposite-Spin Energy  =      -1.9954169524603305 [Eh]
	 SCS Correlation Energy    =      -2.1863701793661838 [Eh]
	 SCS Total Energy          =    -541.7744187392887625 [Eh]
	-----------------------------------------------------------

  Dipole Moment: [D]
     X:     2.6524      Y:    -5.6492      Z:     0.8461     Total:     6.2980

*** Psi4 exiting successfully. Buy a developer a beer!
