                               Psi4 1.3.2 release

  ==> Input File <==

--------------------------------------------------------------------------
#psi4
#
memory 32 gb

molecule  {
0 1
  O        0.1763910     2.6970700    -0.0085580
  C        0.2089260     1.4725840     0.0042240
  N        1.4659430     0.7906670    -0.0052000
  C        1.6696020    -0.5667920     0.0018180
  N        0.7040600    -1.4531590     0.0111340
  C       -0.5247500    -0.8567100    -0.0036900
  C       -0.8535700     0.4975280     0.0150930
  N       -2.1964886     0.6786675     0.0132056
  C       -2.7081380    -0.5423290     0.0003530
  N       -1.7302440    -1.5082620    -0.0074590
  N        2.9897270    -0.9822980    -0.0798890
  H        2.2638450     1.4140280    -0.1046570
  H       -3.7608750    -0.7937900    -0.0035550
  H       -1.8528420    -2.5141400    -0.0211820
  H        3.0628590    -1.9839740     0.0678780
  H        3.6422020    -0.4648880     0.5003130
units angstrom
no_reorient  #important for SAPT in psi4, default
symmetry c1  #important for SAPT in psi4, default
}

set PROPERTIES_ORIGIN ["COM"]
properties('MP2/aug-cc-pvtz', properties = ['dipole'])
--------------------------------------------------------------------------

    Molecular point group: c1
  Charge       = 0
  Multiplicity = 1
  Basis Set: AUG-CC-PVTZ
    Blend: AUG-CC-PVTZ
  Basis Set: (AUG-CC-PVTZ AUX)
    Blend: AUG-CC-PVTZ-JKFIT

    Orbital Energies [Eh]
    ---------------------

    Doubly Occupied:

       1A    -20.524916     2A    -15.636191     3A    -15.631809
       4A    -15.611935     5A    -15.572953     6A    -15.562630
       7A    -11.397911     8A    -11.368140     9A    -11.326035
      10A    -11.313302    11A    -11.250142    12A     -1.394004
      13A     -1.362163    14A     -1.336287    15A     -1.220516
      16A     -1.218636    17A     -1.180468    18A     -1.030870
      19A     -0.907052    20A     -0.885142    21A     -0.846562
      22A     -0.798898    23A     -0.740865    24A     -0.730533
      25A     -0.700386    26A     -0.673095    27A     -0.656629
      28A     -0.633791    29A     -0.615258    30A     -0.605577
      31A     -0.597404    32A     -0.548058    33A     -0.499215
      34A     -0.462332    35A     -0.443456    36A     -0.432553
      37A     -0.430930    38A     -0.414072    39A     -0.301005

  @DF-RHF Final Energy:  -539.58750497454071

   => Energetics <=

    Nuclear Repulsion Energy =            594.3151427249342760
    One-Electron Energy =               -1914.0818494206489504
    Two-Electron Energy =                 780.1792017211739676
    Total Energy =                       -539.5875049745407068
  Basis Set: (AUG-CC-PVTZ AUX)
    Blend: AUG-CC-PVTZ-RI
    Molecular point group: c1

    Geometry (in Angstrom), charge = 0, multiplicity = 1:

       Center              X                  Y                   Z               Mass
    ------------   -----------------  -----------------  -----------------  -----------------
         O            0.196428176694     2.669495970805    -0.005670169110    15.994914619570
         C            0.228963176694     1.445009970805     0.007111830890    12.000000000000
         N            1.485980176694     0.763092970805    -0.002312169110    14.003074004430
         C            1.689639176694    -0.594366029195     0.004705830890    12.000000000000
         N            0.724097176694    -1.480733029195     0.014021830890    14.003074004430
         C           -0.504712823306    -0.884284029195    -0.000802169110    12.000000000000
         C           -0.833532823306     0.469953970805     0.017980830890    12.000000000000
         N           -2.176451423306     0.651093470805     0.016093430890    14.003074004430
         C           -2.688100823306    -0.569903029195     0.003240830890    12.000000000000
         N           -1.710206823306    -1.535836029195    -0.004571169110    14.003074004430
         N            3.009764176694    -1.009872029195    -0.077001169110    14.003074004430
         H            2.283882176694     1.386453970805    -0.101769169110     1.007825032230
         H           -3.740837823306    -0.821364029195    -0.000667169110     1.007825032230
         H           -1.832804823306    -2.541714029195    -0.018294169110     1.007825032230
         H            3.082896176694    -2.011548029195     0.070765830890     1.007825032230
         H            3.662239176694    -0.492462029195     0.503200830890     1.007825032230

  Basis Set: AUG-CC-PVTZ
    Blend: AUG-CC-PVTZ
  Basis Set: (AUG-CC-PVTZ AUX)
    Blend: AUG-CC-PVTZ-JKFIT
	 Reference Energy          =    -539.5875049745407068 [Eh]
	 Singles Energy            =      -0.0000000000000000 [Eh]
	 Same-Spin Energy          =      -0.5732821904529843 [Eh]
	 Opposite-Spin Energy      =      -1.6630690497696996 [Eh]
	 Correlation Energy        =      -2.2363512402226839 [Eh]
	 Total Energy              =    -541.8238562147633957 [Eh]

	 ================> DF-SCS-MP2 Energies <==================
	-----------------------------------------------------------
	 SCS Same-Spin Scale       =       0.3333333333333333 [-]
	 SCS Opposite-Spin Scale   =       1.2000000000000000 [-]
	 SCS Same-Spin Energy      =      -0.1910940634843281 [Eh]
	 SCS Opposite-Spin Energy  =      -1.9956828597236393 [Eh]
	 SCS Correlation Energy    =      -2.1867769232079675 [Eh]
	 SCS Total Energy          =    -541.7742818977486650 [Eh]
	-----------------------------------------------------------

  Dipole Moment: [D]
     X:     2.6206      Y:    -5.6114      Z:     0.8445     Total:     6.2505

*** Psi4 exiting successfully. Buy a developer a beer!
