                               Psi4 1.3.2 release

  ==> Input File <==

--------------------------------------------------------------------------
#psi4
#
memory 32 gb

molecule  {
0 1
  O        0.1763910     2.6970700    -0.0085580
  C        0.2089260     1.4725840     0.0042240
  N        1.4659430     0.7906670    -0.0052000
  C        1.6696020    -0.5667920     0.0018180
  N        0.6447377    -1.3837550     0.0169557
  C       -0.5247500    -0.8567100    -0.0036900
  C       -0.8535700     0.4975280     0.0150930
  N       -2.2178770     0.6874110     0.0132550
  C       -2.7081380    -0.5423290     0.0003530
  N       -1.7302440    -1.5082620    -0.0074590
  N        2.9897270    -0.9822980    -0.0798890
  H        2.2638450     1.4140280    -0.1046570
  H       -3.7608750    -0.7937900    -0.0035550
  H       -1.8528420    -2.5141400    -0.0211820
  H        3.0628590    -1.9839740     0.0678780
  H        3.6422020    -0.4648880     0.5003130
units angstrom
no_reorient  #important for SAPT in psi4, default
symmetry c1  #important for SAPT in psi4, default
}

set PROPERTIES_ORIGIN ["COM"]
properties('MP2/aug-cc-pvtz', properties = ['dipole'])
--------------------------------------------------------------------------

    Molecular point group: c1
  Charge       = 0
  Multiplicity = 1
  Basis Set: AUG-CC-PVTZ
    Blend: AUG-CC-PVTZ
  Basis Set: (AUG-CC-PVTZ AUX)
    Blend: AUG-CC-PVTZ-JKFIT

    Orbital Energies [Eh]
    ---------------------

    Doubly Occupied:

       1A    -20.518657     2A    -15.631528     3A    -15.631402
       4A    -15.619236     5A    -15.565704     6A    -15.561645
       7A    -11.403025     8A    -11.363731     9A    -11.320293
      10A    -11.311612    11A    -11.245158    12A     -1.394829
      13A     -1.360863    14A     -1.336415    15A     -1.236628
      16A     -1.220001    17A     -1.176237    18A     -1.029039
      19A     -0.909975    20A     -0.893913    21A     -0.842162
      22A     -0.803994    23A     -0.740713    24A     -0.736263
      25A     -0.702985    26A     -0.674028    27A     -0.660473
      28A     -0.644525    29A     -0.612298    30A     -0.598557
      31A     -0.595216    32A     -0.548069    33A     -0.494241
      34A     -0.472168    35A     -0.437711    36A     -0.433807
      37A     -0.425375    38A     -0.410236    39A     -0.294189

  @DF-RHF Final Energy:  -539.58181191617359

   => Energetics <=

    Nuclear Repulsion Energy =            595.9278464758009477
    One-Electron Energy =               -1917.3055159277928396
    Two-Electron Energy =                 781.7958575358184135
    Total Energy =                       -539.5818119161735922
  Basis Set: (AUG-CC-PVTZ AUX)
    Blend: AUG-CC-PVTZ-RI
    Molecular point group: c1

    Geometry (in Angstrom), charge = 0, multiplicity = 1:

       Center              X                  Y                   Z               Mass
    ------------   -----------------  -----------------  -----------------  -----------------
         O            0.203910482693     2.662251286915    -0.006214450931    15.994914619570
         C            0.236445482693     1.437765286915     0.006567549069    12.000000000000
         N            1.493462482693     0.755848286915    -0.002856450931    14.003074004430
         C            1.697121482693    -0.601610713085     0.004161549069    12.000000000000
         N            0.672257182693    -1.418573713085     0.019299249069    14.003074004430
         C           -0.497230517307    -0.891528713085    -0.001346450931    12.000000000000
         C           -0.826050517307     0.462709286915     0.017436549069    12.000000000000
         N           -2.190357517307     0.652592286915     0.015598549069    14.003074004430
         C           -2.680618517307    -0.577147713085     0.002696549069    12.000000000000
         N           -1.702724517307    -1.543080713085    -0.005115450931    14.003074004430
         N            3.017246482693    -1.017116713085    -0.077545450931    14.003074004430
         H            2.291364482693     1.379209286915    -0.102313450931     1.007825032230
         H           -3.733355517307    -0.828608713085    -0.001211450931     1.007825032230
         H           -1.825322517307    -2.548958713085    -0.018838450931     1.007825032230
         H            3.090378482693    -2.018792713085     0.070221549069     1.007825032230
         H            3.669721482693    -0.499706713085     0.502656549069     1.007825032230

  Basis Set: AUG-CC-PVTZ
    Blend: AUG-CC-PVTZ
  Basis Set: (AUG-CC-PVTZ AUX)
    Blend: AUG-CC-PVTZ-JKFIT
	 Reference Energy          =    -539.5818119161735922 [Eh]
	 Singles Energy            =      -0.0000000000000000 [Eh]
	 Same-Spin Energy          =      -0.5738761437536906 [Eh]
	 Opposite-Spin Energy      =      -1.6624459561834144 [Eh]
	 Correlation Energy        =      -2.2363220999371052 [Eh]
	 Total Energy              =    -541.8181340161106618 [Eh]

	 ================> DF-SCS-MP2 Energies <==================
	-----------------------------------------------------------
	 SCS Same-Spin Scale       =       0.3333333333333333 [-]
	 SCS Opposite-Spin Scale   =       1.2000000000000000 [-]
	 SCS Same-Spin Energy      =      -0.1912920479178968 [Eh]
	 SCS Opposite-Spin Energy  =      -1.9949351474200971 [Eh]
	 SCS Correlation Energy    =      -2.1862271953379939 [Eh]
	 SCS Total Energy          =    -541.7680391115115981 [Eh]
	-----------------------------------------------------------

  Dipole Moment: [D]
     X:     2.9615      Y:    -5.9123      Z:     0.8376     Total:     6.6654

*** Psi4 exiting successfully. Buy a developer a beer!
