                               Psi4 1.3.2 release

  ==> Input File <==

--------------------------------------------------------------------------
#psi4
#
memory 32 gb

molecule  {
0 1
  O        0.1763910     2.6970700    -0.0085580
  C        0.2089260     1.4725840     0.0042240
  N        1.4659430     0.7906670    -0.0052000
  C        1.6844387    -0.6656839     0.0023293
  N        0.7040600    -1.4531590     0.0111340
  C       -0.5247500    -0.8567100    -0.0036900
  C       -0.8535700     0.4975280     0.0150930
  N       -2.2178770     0.6874110     0.0132550
  C       -2.7081380    -0.5423290     0.0003530
  N       -1.7302440    -1.5082620    -0.0074590
  N        2.9897270    -0.9822980    -0.0798890
  H        2.2638450     1.4140280    -0.1046570
  H       -3.7608750    -0.7937900    -0.0035550
  H       -1.8528420    -2.5141400    -0.0211820
  H        3.0628590    -1.9839740     0.0678780
  H        3.6422020    -0.4648880     0.5003130
units angstrom
no_reorient  #important for SAPT in psi4, default
symmetry c1  #important for SAPT in psi4, default
}

set PROPERTIES_ORIGIN ["COM"]
properties('MP2/aug-cc-pvtz', properties = ['dipole'])
--------------------------------------------------------------------------

    Molecular point group: c1
  Charge       = 0
  Multiplicity = 1
  Basis Set: AUG-CC-PVTZ
    Blend: AUG-CC-PVTZ
  Basis Set: (AUG-CC-PVTZ AUX)
    Blend: AUG-CC-PVTZ-JKFIT

    Orbital Energies [Eh]
    ---------------------

    Doubly Occupied:

       1A    -20.518969     2A    -15.638973     3A    -15.616639
       4A    -15.615107     5A    -15.575496     6A    -15.566181
       7A    -11.396809     8A    -11.361667     9A    -11.328882
      10A    -11.314838    11A    -11.253292    12A     -1.386804
      13A     -1.360796    14A     -1.338353    15A     -1.236367
      16A     -1.203388    17A     -1.178121    18A     -1.033299
      19A     -0.904139    20A     -0.875978    21A     -0.845607
      22A     -0.798894    23A     -0.748480    24A     -0.721874
      25A     -0.701298    26A     -0.664878    27A     -0.653951
      28A     -0.646093    29A     -0.611234    30A     -0.598757
      31A     -0.595079    32A     -0.551571    33A     -0.496482
      34A     -0.468122    35A     -0.438165    36A     -0.430198
      37A     -0.421721    38A     -0.411921    39A     -0.307858

  @DF-RHF Final Energy:  -539.57615600016334

   => Energetics <=

    Nuclear Repulsion Energy =            593.1195439589998841
    One-Electron Energy =               -1911.7588345834415122
    Two-Electron Energy =                 779.0631346242782911
    Total Energy =                       -539.5761560001633370
  Basis Set: (AUG-CC-PVTZ AUX)
    Blend: AUG-CC-PVTZ-RI
    Molecular point group: c1

    Geometry (in Angstrom), charge = 0, multiplicity = 1:

       Center              X                  Y                   Z               Mass
    ------------   -----------------  -----------------  -----------------  -----------------
         O            0.197232303954     2.676541790605    -0.005715368570    15.994914619570
         C            0.229767303954     1.452055790605     0.007066631430    12.000000000000
         N            1.486784303954     0.770138790605    -0.002357368570    14.003074004430
         C            1.705280003954    -0.686212109395     0.005171931430    12.000000000000
         N            0.724901303954    -1.473687209395     0.013976631430    14.003074004430
         C           -0.503908696046    -0.877238209395    -0.000847368570    12.000000000000
         C           -0.832728696046     0.476999790605     0.017935631430    12.000000000000
         N           -2.197035696046     0.666882790605     0.016097631430    14.003074004430
         C           -2.687296696046    -0.562857209395     0.003195631430    12.000000000000
         N           -1.709402696046    -1.528790209395    -0.004616368570    14.003074004430
         N            3.010568303954    -1.002826209395    -0.077046368570    14.003074004430
         H            2.284686303954     1.393499790605    -0.101814368570     1.007825032230
         H           -3.740033696046    -0.814318209395    -0.000712368570     1.007825032230
         H           -1.832000696046    -2.534668209395    -0.018339368570     1.007825032230
         H            3.083700303954    -2.004502209395     0.070720631430     1.007825032230
         H            3.663043303954    -0.485416209395     0.503155631430     1.007825032230

  Basis Set: AUG-CC-PVTZ
    Blend: AUG-CC-PVTZ
  Basis Set: (AUG-CC-PVTZ AUX)
    Blend: AUG-CC-PVTZ-JKFIT
	 Reference Energy          =    -539.5761560001633370 [Eh]
	 Singles Energy            =      -0.0000000000000000 [Eh]
	 Same-Spin Energy          =      -0.5729395325253170 [Eh]
	 Opposite-Spin Energy      =      -1.6634288368331505 [Eh]
	 Correlation Energy        =      -2.2363683693584675 [Eh]
	 Total Energy              =    -541.8125243695218387 [Eh]

	 ================> DF-SCS-MP2 Energies <==================
	-----------------------------------------------------------
	 SCS Same-Spin Scale       =       0.3333333333333333 [-]
	 SCS Opposite-Spin Scale   =       1.2000000000000000 [-]
	 SCS Same-Spin Energy      =      -0.1909798441751057 [Eh]
	 SCS Opposite-Spin Energy  =      -1.9961146041997804 [Eh]
	 SCS Correlation Energy    =      -2.1870944483748862 [Eh]
	 SCS Total Energy          =    -541.7632504485382015 [Eh]
	-----------------------------------------------------------

  Dipole Moment: [D]
     X:     2.7796      Y:    -6.1468      Z:     0.8482     Total:     6.7992

*** Psi4 exiting successfully. Buy a developer a beer!
