                               Psi4 1.3.2 release

  ==> Input File <==

--------------------------------------------------------------------------
#psi4
#
memory 32 gb

molecule  {
0 1
  O        0.1763910     2.6970700    -0.0085580
  C        0.2089260     1.4725840     0.0042240
  N        1.4659430     0.7906670    -0.0052000
  C        1.7569663    -0.6725567     0.0038522
  N        0.7040600    -1.4531590     0.0111340
  C       -0.5247500    -0.8567100    -0.0036900
  C       -0.8535700     0.4975280     0.0150930
  N       -2.2178770     0.6874110     0.0132550
  C       -2.7081380    -0.5423290     0.0003530
  N       -1.7302440    -1.5082620    -0.0074590
  N        2.9897270    -0.9822980    -0.0798890
  H        2.2638450     1.4140280    -0.1046570
  H       -3.7608750    -0.7937900    -0.0035550
  H       -1.8528420    -2.5141400    -0.0211820
  H        3.0628590    -1.9839740     0.0678780
  H        3.6422020    -0.4648880     0.5003130
units angstrom
no_reorient  #important for SAPT in psi4, default
symmetry c1  #important for SAPT in psi4, default
}

set PROPERTIES_ORIGIN ["COM"]
properties('MP2/aug-cc-pvtz', properties = ['dipole'])
--------------------------------------------------------------------------

    Molecular point group: c1
  Charge       = 0
  Multiplicity = 1
  Basis Set: AUG-CC-PVTZ
    Blend: AUG-CC-PVTZ
  Basis Set: (AUG-CC-PVTZ AUX)
    Blend: AUG-CC-PVTZ-JKFIT

    Orbital Energies [Eh]
    ---------------------

    Doubly Occupied:

       1A    -20.516171     2A    -15.634033     3A    -15.630359
       4A    -15.613335     5A    -15.570495     6A    -15.561761
       7A    -11.403816     8A    -11.359744     9A    -11.324594
      10A    -11.310288    11A    -11.246880    12A     -1.384216
      13A     -1.357502    14A     -1.349357    15A     -1.241845
      16A     -1.197048    17A     -1.169768    18A     -1.027220
      19A     -0.898983    20A     -0.882219    21A     -0.840674
      22A     -0.802318    23A     -0.764664    24A     -0.717033
      25A     -0.706006    26A     -0.662262    27A     -0.652926
      28A     -0.642092    29A     -0.608355    30A     -0.599746
      31A     -0.593224    32A     -0.552913    33A     -0.486379
      34A     -0.467041    35A     -0.431123    36A     -0.426545
      37A     -0.418764    38A     -0.406922    39A     -0.299077

  @DF-RHF Final Energy:  -539.56095491468932

   => Energetics <=

    Nuclear Repulsion Energy =            592.3180233058302520
    One-Electron Energy =               -1910.2425578764225520
    Two-Electron Energy =                 778.3635796559028677
    Total Energy =                       -539.5609549146893187
  Basis Set: (AUG-CC-PVTZ AUX)
    Blend: AUG-CC-PVTZ-RI
    Molecular point group: c1

    Geometry (in Angstrom), charge = 0, multiplicity = 1:

       Center              X                  Y                   Z               Mass
    ------------   -----------------  -----------------  -----------------  -----------------
         O            0.191470406565     2.677087794725    -0.005836354147    15.994914619570
         C            0.224005406565     1.452601794725     0.006945645853    12.000000000000
         N            1.481022406565     0.770684794725    -0.002478354147    14.003074004430
         C            1.772045706565    -0.692538905275     0.006573845853    12.000000000000
         N            0.719139406565    -1.473141205275     0.013855645853    14.003074004430
         C           -0.509670593435    -0.876692205275    -0.000968354147    12.000000000000
         C           -0.838490593435     0.477545794725     0.017814645853    12.000000000000
         N           -2.202797593435     0.667428794725     0.015976645853    14.003074004430
         C           -2.693058593435    -0.562311205275     0.003074645853    12.000000000000
         N           -1.715164593435    -1.528244205275    -0.004737354147    14.003074004430
         N            3.004806406565    -1.002280205275    -0.077167354147    14.003074004430
         H            2.278924406565     1.394045794725    -0.101935354147     1.007825032230
         H           -3.745795593435    -0.813772205275    -0.000833354147     1.007825032230
         H           -1.837762593435    -2.534122205275    -0.018460354147     1.007825032230
         H            3.077938406565    -2.003956205275     0.070599645853     1.007825032230
         H            3.657281406565    -0.484870205275     0.503034645853     1.007825032230

  Basis Set: AUG-CC-PVTZ
    Blend: AUG-CC-PVTZ
  Basis Set: (AUG-CC-PVTZ AUX)
    Blend: AUG-CC-PVTZ-JKFIT
	 Reference Energy          =    -539.5609549146893187 [Eh]
	 Singles Energy            =      -0.0000000000000000 [Eh]
	 Same-Spin Energy          =      -0.5740794369118475 [Eh]
	 Opposite-Spin Energy      =      -1.6647449092712328 [Eh]
	 Correlation Energy        =      -2.2388243461830801 [Eh]
	 Total Energy              =    -541.7997792608723557 [Eh]

	 ================> DF-SCS-MP2 Energies <==================
	-----------------------------------------------------------
	 SCS Same-Spin Scale       =       0.3333333333333333 [-]
	 SCS Opposite-Spin Scale   =       1.2000000000000000 [-]
	 SCS Same-Spin Energy      =      -0.1913598123039492 [Eh]
	 SCS Opposite-Spin Energy  =      -1.9976938911254791 [Eh]
	 SCS Correlation Energy    =      -2.1890537034294284 [Eh]
	 SCS Total Energy          =    -541.7500086181187271 [Eh]
	-----------------------------------------------------------

  Dipole Moment: [D]
     X:     3.4936      Y:    -6.2569      Z:     0.8334     Total:     7.2145

*** Psi4 exiting successfully. Buy a developer a beer!
