                               Psi4 1.3.2 release

  ==> Input File <==

--------------------------------------------------------------------------
#psi4
#
memory 32 gb

molecule  {
0 1
  O        0.1763910     2.6970700    -0.0085580
  C        0.2089260     1.4725840     0.0042240
  N        1.4659430     0.7906670    -0.0052000
  C        1.6696020    -0.5667920     0.0018180
  N        0.7040600    -1.4531590     0.0111340
  C       -0.5247500    -0.8567100    -0.0036900
  C       -0.7062195     0.6327521     0.0135857
  N       -2.2178770     0.6874110     0.0132550
  C       -2.7081380    -0.5423290     0.0003530
  N       -1.7302440    -1.5082620    -0.0074590
  N        2.9897270    -0.9822980    -0.0798890
  H        2.2638450     1.4140280    -0.1046570
  H       -3.7608750    -0.7937900    -0.0035550
  H       -1.8528420    -2.5141400    -0.0211820
  H        3.0628590    -1.9839740     0.0678780
  H        3.6422020    -0.4648880     0.5003130
units angstrom
no_reorient  #important for SAPT in psi4, default
symmetry c1  #important for SAPT in psi4, default
}

set PROPERTIES_ORIGIN ["COM"]
properties('MP2/aug-cc-pvtz', properties = ['dipole'])
--------------------------------------------------------------------------

    Molecular point group: c1
  Charge       = 0
  Multiplicity = 1
  Basis Set: AUG-CC-PVTZ
    Blend: AUG-CC-PVTZ
  Basis Set: (AUG-CC-PVTZ AUX)
    Blend: AUG-CC-PVTZ-JKFIT

    Orbital Energies [Eh]
    ---------------------

    Doubly Occupied:

       1A    -20.492769     2A    -15.647936     3A    -15.628049
       4A    -15.616961     5A    -15.582024     6A    -15.573346
       7A    -11.405909     8A    -11.365989     9A    -11.332080
      10A    -11.324068    11A    -11.248831    12A     -1.389827
      13A     -1.351391    14A     -1.332082    15A     -1.225336
      16A     -1.218422    17A     -1.162817    18A     -1.056080
      19A     -0.936467    20A     -0.883188    21A     -0.833852
      22A     -0.803114    23A     -0.743985    24A     -0.735850
      25A     -0.704122    26A     -0.680702    27A     -0.659951
      28A     -0.639255    29A     -0.607111    30A     -0.596648
      31A     -0.587548    32A     -0.553530    33A     -0.497770
      34A     -0.465365    35A     -0.429903    36A     -0.422423
      37A     -0.416132    38A     -0.401469    39A     -0.312888

  @DF-RHF Final Energy:  -539.51963637525137

   => Energetics <=

    Nuclear Repulsion Energy =            593.5893768902350303
    One-Electron Energy =               -1912.4876446919301998
    Two-Electron Energy =                 779.3786314264436896
    Total Energy =                       -539.5196363752513662
  Basis Set: (AUG-CC-PVTZ AUX)
    Blend: AUG-CC-PVTZ-RI
    Molecular point group: c1

    Geometry (in Angstrom), charge = 0, multiplicity = 1:

       Center              X                  Y                   Z               Mass
    ------------   -----------------  -----------------  -----------------  -----------------
         O            0.186704850705     2.657942631538    -0.005555002502    15.994914619570
         C            0.219239850705     1.433456631538     0.007226997498    12.000000000000
         N            1.476256850705     0.751539631538    -0.002197002502    14.003074004430
         C            1.679915850705    -0.605919368462     0.004820997498    12.000000000000
         N            0.714373850705    -1.492286368462     0.014136997498    14.003074004430
         C           -0.514436149295    -0.895837368462    -0.000687002502    12.000000000000
         C           -0.695905649295     0.593624731538     0.016588697498    12.000000000000
         N           -2.207563149295     0.648283631538     0.016257997498    14.003074004430
         C           -2.697824149295    -0.581456368462     0.003355997498    12.000000000000
         N           -1.719930149295    -1.547389368462    -0.004456002502    14.003074004430
         N            3.000040850705    -1.021425368462    -0.076886002502    14.003074004430
         H            2.274158850705     1.374900631538    -0.101654002502     1.007825032230
         H           -3.750561149295    -0.832917368462    -0.000552002502     1.007825032230
         H           -1.842528149295    -2.553267368462    -0.018179002502     1.007825032230
         H            3.073172850705    -2.023101368462     0.070880997498     1.007825032230
         H            3.652515850705    -0.504015368462     0.503315997498     1.007825032230

  Basis Set: AUG-CC-PVTZ
    Blend: AUG-CC-PVTZ
  Basis Set: (AUG-CC-PVTZ AUX)
    Blend: AUG-CC-PVTZ-JKFIT
	 Reference Energy          =    -539.5196363752513662 [Eh]
	 Singles Energy            =      -0.0000000000000000 [Eh]
	 Same-Spin Energy          =      -0.5738030513765675 [Eh]
	 Opposite-Spin Energy      =      -1.6657781775445502 [Eh]
	 Correlation Energy        =      -2.2395812289211179 [Eh]
	 Total Energy              =    -541.7592176041724770 [Eh]

	 ================> DF-SCS-MP2 Energies <==================
	-----------------------------------------------------------
	 SCS Same-Spin Scale       =       0.3333333333333333 [-]
	 SCS Opposite-Spin Scale   =       1.2000000000000000 [-]
	 SCS Same-Spin Energy      =      -0.1912676837921892 [Eh]
	 SCS Opposite-Spin Energy  =      -1.9989338130534602 [Eh]
	 SCS Correlation Energy    =      -2.1902014968456491 [Eh]
	 SCS Total Energy          =    -541.7098378720970686 [Eh]
	-----------------------------------------------------------

  Dipole Moment: [D]
     X:     2.5340      Y:    -6.4159      Z:     0.8422     Total:     6.9494

*** Psi4 exiting successfully. Buy a developer a beer!
