                               Psi4 1.4a3.dev225

  ==> Input File <==

--------------------------------------------------------------------------
#psi4
#
memory 32 gb

molecule  {
0 1
  O        0.1763800     2.6970850    -0.0086780
  C        0.2088860     1.4725900     0.0042210
  N        1.4659360     0.7906750    -0.0050880
  C        1.6696170    -0.5667500     0.0018210
  N        0.7040680    -1.4531450     0.0111020
  C       -0.5427205    -0.8479763    -0.0039279
  C       -0.8535850     0.4975420     0.0152200
  N       -2.2178950     0.6873840     0.0133320
  C       -2.7081200    -0.5423560     0.0003580
  N       -1.7302140    -1.5082770    -0.0075250
  N        2.9897250    -0.9823190    -0.0798750
  H        2.2637990     1.4140370    -0.1048620
  H       -3.7608500    -0.7938460    -0.0035590
  H       -1.8527810    -2.5141570    -0.0214260
  H        3.0628080    -1.9839860     0.0679760
  H        3.6422460    -0.4648460     0.5002060
units angstrom
no_reorient  #important for SAPT in psi4, default
symmetry c1  #important for SAPT in psi4, default
}

set PROPERTIES_ORIGIN ["COM"]
properties('MP2/aug-cc-pvtz', properties = ['dipole'])
--------------------------------------------------------------------------

    Molecular point group: c1
  Charge       = 0
  Multiplicity = 1
  Basis Set: AUG-CC-PVTZ
    Blend: AUG-CC-PVTZ
  Basis Set: (AUG-CC-PVTZ AUX)
    Blend: AUG-CC-PVTZ-JKFIT

    Orbital Energies [Eh]
    ---------------------

    Doubly Occupied:

       1A    -20.525781     2A    -15.637241     3A    -15.630965
       4A    -15.611253     5A    -15.572874     6A    -15.565714
       7A    -11.396830     8A    -11.369170     9A    -11.326031
      10A    -11.314465    11A    -11.250839    12A     -1.393860
      13A     -1.363595    14A     -1.335343    15A     -1.220037
      16A     -1.213622    17A     -1.179356    18A     -1.033107
      19A     -0.907828    20A     -0.882484    21A     -0.847038
      22A     -0.797776    23A     -0.741000    24A     -0.729593
      25A     -0.701705    26A     -0.674255    27A     -0.656198
      28A     -0.631546    29A     -0.616065    30A     -0.602300
      31A     -0.597882    32A     -0.547558    33A     -0.498485
      34A     -0.460379    35A     -0.443210    36A     -0.434197
      37A     -0.431418    38A     -0.412999    39A     -0.305690

  @DF-RHF Final Energy:  -539.58761309653596

   => Energetics <=

    Nuclear Repulsion Energy =            593.7332941720225108
    One-Electron Energy =               -1912.9224391079101224
    Two-Electron Energy =                 779.6015318393517646
    Total Energy =                       -539.5876130965359607
  Basis Set: (AUG-CC-PVTZ AUX)
    Blend: AUG-CC-PVTZ-RI
    Molecular point group: c1

    Geometry (in Angstrom), charge = 0, multiplicity = 1:

       Center              X                  Y                   Z               Mass
    ------------   -----------------  -----------------  -----------------  -----------------
         O            0.199829318461     2.668006219416    -0.005780280092    15.994914619570
         C            0.232335318461     1.443511219416     0.007118719908    12.000000000000
         N            1.489385318461     0.761596219416    -0.002190280092    14.003074004430
         C            1.693066318461    -0.595828780584     0.004718719908    12.000000000000
         N            0.727517318461    -1.482223780584     0.013999719908    14.003074004430
         C           -0.519271181539    -0.877055080584    -0.001030180092    12.000000000000
         C           -0.830135681539     0.468463219416     0.018117719908    12.000000000000
         N           -2.194445681539     0.658305219416     0.016229719908    14.003074004430
         C           -2.684670681539    -0.571434780584     0.003255719908    12.000000000000
         N           -1.706764681539    -1.537355780584    -0.004627280092    14.003074004430
         N            3.013174318461    -1.011397780584    -0.076977280092    14.003074004430
         H            2.287248318461     1.384958219416    -0.101964280092     1.007825032230
         H           -3.737400681539    -0.822924780584    -0.000661280092     1.007825032230
         H           -1.829331681539    -2.543235780584    -0.018528280092     1.007825032230
         H            3.086257318461    -2.013064780584     0.070873719908     1.007825032230
         H            3.665695318461    -0.493924780584     0.503103719908     1.007825032230

  Basis Set: AUG-CC-PVTZ
    Blend: AUG-CC-PVTZ
  Basis Set: (AUG-CC-PVTZ AUX)
    Blend: AUG-CC-PVTZ-JKFIT
	 Reference Energy          =    -539.5876130965359607 [Eh]
	 Singles Energy            =      -0.0000000000000000 [Eh]
	 Same-Spin Energy          =      -0.5726780804712321 [Eh]
	 Opposite-Spin Energy      =      -1.6630106192481819 [Eh]
	 Correlation Energy        =      -2.2356886997194141 [Eh]
	 Total Energy              =    -541.8233017962553504 [Eh]

	 ================> DF-SCS-MP2 Energies <==================
	-----------------------------------------------------------
	 SCS Same-Spin Scale       =       0.3333333333333333 [-]
	 SCS Opposite-Spin Scale   =       1.2000000000000000 [-]
	 SCS Same-Spin Energy      =      -0.1908926934904107 [Eh]
	 SCS Opposite-Spin Energy  =      -1.9956127430978183 [Eh]
	 SCS Correlation Energy    =      -2.1865054365882290 [Eh]
	 SCS Total Energy          =    -541.7741185331242377 [Eh]
	-----------------------------------------------------------

  Dipole Moment: [D]
     X:     2.5938      Y:    -5.6070      Z:     0.8427     Total:     6.2351

*** Psi4 exiting successfully. Buy a developer a beer!
