                               Psi4 1.3.2 release

  ==> Input File <==

--------------------------------------------------------------------------
#psi4
#
memory 32 gb

molecule  {
0 1
  O        0.1763910     2.6970700    -0.0085580
  C        0.2089260     1.4725840     0.0042240
  N        1.4659430     0.7906670    -0.0052000
  C        1.6387903    -0.6711446    -0.0942006
  N        0.7040600    -1.4531590     0.0111340
  C       -0.5247500    -0.8567100    -0.0036900
  C       -0.8535700     0.4975280     0.0150930
  N       -2.2178770     0.6874110     0.0132550
  C       -2.7081380    -0.5423290     0.0003530
  N       -1.7302440    -1.5082620    -0.0074590
  N        2.9897270    -0.9822980    -0.0798890
  H        2.2638450     1.4140280    -0.1046570
  H       -3.7608750    -0.7937900    -0.0035550
  H       -1.8528420    -2.5141400    -0.0211820
  H        3.0628590    -1.9839740     0.0678780
  H        3.6422020    -0.4648880     0.5003130
units angstrom
no_reorient  #important for SAPT in psi4, default
symmetry c1  #important for SAPT in psi4, default
}

set PROPERTIES_ORIGIN ["COM"]
properties('MP2/aug-cc-pvtz', properties = ['dipole'])
--------------------------------------------------------------------------

    Molecular point group: c1
  Charge       = 0
  Multiplicity = 1
  Basis Set: AUG-CC-PVTZ
    Blend: AUG-CC-PVTZ
  Basis Set: (AUG-CC-PVTZ AUX)
    Blend: AUG-CC-PVTZ-JKFIT

    Orbital Energies [Eh]
    ---------------------

    Doubly Occupied:

       1A    -20.520381     2A    -15.642118     3A    -15.614886
       4A    -15.606966     5A    -15.578863     6A    -15.568929
       7A    -11.393997     8A    -11.362183     9A    -11.331692
      10A    -11.317543    11A    -11.257226    12A     -1.390285
      13A     -1.363786    14A     -1.338480    15A     -1.229590
      16A     -1.202094    17A     -1.182174    18A     -1.036706
      19A     -0.907251    20A     -0.873197    21A     -0.848640
      22A     -0.798575    23A     -0.743965    24A     -0.722029
      25A     -0.697390    26A     -0.665581    27A     -0.656587
      28A     -0.644695    29A     -0.612805    30A     -0.600568
      31A     -0.594317    32A     -0.551952    33A     -0.501533
      34A     -0.463663    35A     -0.442404    36A     -0.431432
      37A     -0.422081    38A     -0.414794    39A     -0.313276

  @DF-RHF Final Energy:  -539.56981854664241

   => Energetics <=

    Nuclear Repulsion Energy =            593.5512570262887948
    One-Electron Energy =               -1912.5528777904785329
    Two-Electron Energy =                 779.4318022175473288
    Total Energy =                       -539.5698185466424093
  Basis Set: (AUG-CC-PVTZ AUX)
    Blend: AUG-CC-PVTZ-RI
    Molecular point group: c1

    Geometry (in Angstrom), charge = 0, multiplicity = 1:

       Center              X                  Y                   Z               Mass
    ------------   -----------------  -----------------  -----------------  -----------------
         O            0.200858804718     2.676975611566     0.001953372416    15.994914619570
         C            0.233393804718     1.452489611566     0.014735372416    12.000000000000
         N            1.490410804718     0.770572611566     0.005311372416    14.003074004430
         C            1.663258104718    -0.691238988434    -0.083689227584    12.000000000000
         N            0.728527804718    -1.473253388434     0.021645372416    14.003074004430
         C           -0.500282195282    -0.876804388434     0.006821372416    12.000000000000
         C           -0.829102195282     0.477433611566     0.025604372416    12.000000000000
         N           -2.193409195282     0.667316611566     0.023766372416    14.003074004430
         C           -2.683670195282    -0.562423388434     0.010864372416    12.000000000000
         N           -1.705776195282    -1.528356388434     0.003052372416    14.003074004430
         N            3.014194804718    -1.002392388434    -0.069377627584    14.003074004430
         H            2.288312804718     1.393933611566    -0.094145627584     1.007825032230
         H           -3.736407195282    -0.813884388434     0.006956372416     1.007825032230
         H           -1.828374195282    -2.534234388434    -0.010670627584     1.007825032230
         H            3.087326804718    -2.004068388434     0.078389372416     1.007825032230
         H            3.666669804718    -0.484982388434     0.510824372416     1.007825032230

  Basis Set: AUG-CC-PVTZ
    Blend: AUG-CC-PVTZ
  Basis Set: (AUG-CC-PVTZ AUX)
    Blend: AUG-CC-PVTZ-JKFIT
	 Reference Energy          =    -539.5698185466424093 [Eh]
	 Singles Energy            =      -0.0000000000000000 [Eh]
	 Same-Spin Energy          =      -0.5724985689010682 [Eh]
	 Opposite-Spin Energy      =      -1.6631662591721579 [Eh]
	 Correlation Energy        =      -2.2356648280732259 [Eh]
	 Total Energy              =    -541.8054833747156636 [Eh]

	 ================> DF-SCS-MP2 Energies <==================
	-----------------------------------------------------------
	 SCS Same-Spin Scale       =       0.3333333333333333 [-]
	 SCS Opposite-Spin Scale   =       1.2000000000000000 [-]
	 SCS Same-Spin Energy      =      -0.1908328563003561 [Eh]
	 SCS Opposite-Spin Energy  =      -1.9957995110065894 [Eh]
	 SCS Correlation Energy    =      -2.1866323673069452 [Eh]
	 SCS Total Energy          =    -541.7564509139493794 [Eh]
	-----------------------------------------------------------

  Dipole Moment: [D]
     X:     2.3248      Y:    -6.1141      Z:     0.7512     Total:     6.5841

*** Psi4 exiting successfully. Buy a developer a beer!
