                               Psi4 1.3.2 release

  ==> Input File <==

--------------------------------------------------------------------------
#psi4
#
memory 32 gb

molecule  {
0 1
  O        0.1763910     2.6970700    -0.0085580
  C        0.2089260     1.4725840     0.0042240
  N        1.3780460     0.8383501    -0.0045410
  C        1.6696020    -0.5667920     0.0018180
  N        0.7040600    -1.4531590     0.0111340
  C       -0.5247500    -0.8567100    -0.0036900
  C       -0.8535700     0.4975280     0.0150930
  N       -2.2178770     0.6874110     0.0132550
  C       -2.7081380    -0.5423290     0.0003530
  N       -1.7302440    -1.5082620    -0.0074590
  N        2.9897270    -0.9822980    -0.0798890
  H        2.2638450     1.4140280    -0.1046570
  H       -3.7608750    -0.7937900    -0.0035550
  H       -1.8528420    -2.5141400    -0.0211820
  H        3.0628590    -1.9839740     0.0678780
  H        3.6422020    -0.4648880     0.5003130
units angstrom
no_reorient  #important for SAPT in psi4, default
symmetry c1  #important for SAPT in psi4, default
}

set PROPERTIES_ORIGIN ["COM"]
properties('MP2/aug-cc-pvtz', properties = ['dipole'])
--------------------------------------------------------------------------

    Molecular point group: c1
  Charge       = 0
  Multiplicity = 1
  Basis Set: AUG-CC-PVTZ
    Blend: AUG-CC-PVTZ
  Basis Set: (AUG-CC-PVTZ AUX)
    Blend: AUG-CC-PVTZ-JKFIT

    Orbital Energies [Eh]
    ---------------------

    Doubly Occupied:

       1A    -20.508916     2A    -15.636806     3A    -15.635794
       4A    -15.621542     5A    -15.579996     6A    -15.563910
       7A    -11.406879     8A    -11.353660     9A    -11.324534
      10A    -11.312930    11A    -11.250092    12A     -1.396044
      13A     -1.358801    14A     -1.330067    15A     -1.232099
      16A     -1.218737    17A     -1.177166    18A     -1.030879
      19A     -0.910064    20A     -0.887786    21A     -0.843810
      22A     -0.801024    23A     -0.736703    24A     -0.725738
      25A     -0.706008    26A     -0.672818    27A     -0.658982
      28A     -0.637087    29A     -0.609599    30A     -0.598146
      31A     -0.593546    32A     -0.553501    33A     -0.498836
      34A     -0.464935    35A     -0.439461    36A     -0.428026
      37A     -0.425125    38A     -0.411178    39A     -0.303164

  @DF-RHF Final Energy:  -539.57367120801075

   => Energetics <=

    Nuclear Repulsion Energy =            594.6789012708502469
    One-Electron Energy =               -1914.8163660618686208
    Two-Electron Energy =                 780.5637935830076231
    Total Energy =                       -539.5736712080107509
  Basis Set: (AUG-CC-PVTZ AUX)
    Blend: AUG-CC-PVTZ-RI
    Molecular point group: c1

    Geometry (in Angstrom), charge = 0, multiplicity = 1:

       Center              X                  Y                   Z               Mass
    ------------   -----------------  -----------------  -----------------  -----------------
         O            0.206559507534     2.664264928481    -0.005735841512    15.994914619570
         C            0.239094507534     1.439778928481     0.007046158488    12.000000000000
         N            1.408214507534     0.805545028481    -0.001718841512    14.003074004430
         C            1.699770507534    -0.599597071519     0.004640158488    12.000000000000
         N            0.734228507534    -1.485964071519     0.013956158488    14.003074004430
         C           -0.494581492466    -0.889515071519    -0.000867841512    12.000000000000
         C           -0.823401492466     0.464722928481     0.017915158488    12.000000000000
         N           -2.187708492466     0.654605928481     0.016077158488    14.003074004430
         C           -2.677969492466    -0.575134071519     0.003175158488    12.000000000000
         N           -1.700075492466    -1.541067071519    -0.004636841512    14.003074004430
         N            3.019895507534    -1.015103071519    -0.077066841512    14.003074004430
         H            2.294013507534     1.381222928481    -0.101834841512     1.007825032230
         H           -3.730706492466    -0.826595071519    -0.000732841512     1.007825032230
         H           -1.822673492466    -2.546945071519    -0.018359841512     1.007825032230
         H            3.093027507534    -2.016779071519     0.070700158488     1.007825032230
         H            3.672370507534    -0.497693071519     0.503135158488     1.007825032230

  Basis Set: AUG-CC-PVTZ
    Blend: AUG-CC-PVTZ
  Basis Set: (AUG-CC-PVTZ AUX)
    Blend: AUG-CC-PVTZ-JKFIT
	 Reference Energy          =    -539.5736712080107509 [Eh]
	 Singles Energy            =      -0.0000000000000000 [Eh]
	 Same-Spin Energy          =      -0.5738389621945648 [Eh]
	 Opposite-Spin Energy      =      -1.6643708804714310 [Eh]
	 Correlation Energy        =      -2.2382098426659960 [Eh]
	 Total Energy              =    -541.8118810506767886 [Eh]

	 ================> DF-SCS-MP2 Energies <==================
	-----------------------------------------------------------
	 SCS Same-Spin Scale       =       0.3333333333333333 [-]
	 SCS Opposite-Spin Scale   =       1.2000000000000000 [-]
	 SCS Same-Spin Energy      =      -0.1912796540648549 [Eh]
	 SCS Opposite-Spin Energy  =      -1.9972450565657172 [Eh]
	 SCS Correlation Energy    =      -2.1885247106305723 [Eh]
	 SCS Total Energy          =    -541.7621959186412823 [Eh]
	-----------------------------------------------------------

  Dipole Moment: [D]
     X:     3.0065      Y:    -6.1125      Z:     0.8505     Total:     6.8647

*** Psi4 exiting successfully. Buy a developer a beer!
