                               Psi4 1.3.2 release

  ==> Input File <==

--------------------------------------------------------------------------
#psi4
#
memory 32 gb

molecule  {
0 1
  O        0.1763910     2.6970700    -0.0085580
  C        0.2743323     1.3960949     0.0022838
  N        1.4659430     0.7906670    -0.0052000
  C        1.6696020    -0.5667920     0.0018180
  N        0.7040600    -1.4531590     0.0111340
  C       -0.5247500    -0.8567100    -0.0036900
  C       -0.8535700     0.4975280     0.0150930
  N       -2.2178770     0.6874110     0.0132550
  C       -2.7081380    -0.5423290     0.0003530
  N       -1.7302440    -1.5082620    -0.0074590
  N        2.9897270    -0.9822980    -0.0798890
  H        2.2638450     1.4140280    -0.1046570
  H       -3.7608750    -0.7937900    -0.0035550
  H       -1.8528420    -2.5141400    -0.0211820
  H        3.0628590    -1.9839740     0.0678780
  H        3.6422020    -0.4648880     0.5003130
units angstrom
no_reorient  #important for SAPT in psi4, default
symmetry c1  #important for SAPT in psi4, default
}

set PROPERTIES_ORIGIN ["COM"]
properties('MP2/aug-cc-pvtz', properties = ['dipole'])
--------------------------------------------------------------------------

    Molecular point group: c1
  Charge       = 0
  Multiplicity = 1
  Basis Set: AUG-CC-PVTZ
    Blend: AUG-CC-PVTZ
  Basis Set: (AUG-CC-PVTZ AUX)
    Blend: AUG-CC-PVTZ-JKFIT

    Orbital Energies [Eh]
    ---------------------

    Doubly Occupied:

       1A    -20.503456     2A    -15.647387     3A    -15.638087
       4A    -15.619136     5A    -15.583524     6A    -15.568056
       7A    -11.406188     8A    -11.363507     9A    -11.328063
      10A    -11.317846    11A    -11.255769    12A     -1.396516
      13A     -1.354869    14A     -1.312284    15A     -1.231414
      16A     -1.225241    17A     -1.181666    18A     -1.035900
      19A     -0.918426    20A     -0.900613    21A     -0.846455
      22A     -0.809451    23A     -0.758276    24A     -0.734936
      25A     -0.704607    26A     -0.672301    27A     -0.665211
      28A     -0.640066    29A     -0.609854    30A     -0.603924
      31A     -0.574707    32A     -0.540209    33A     -0.504886
      34A     -0.465696    35A     -0.440564    36A     -0.424621
      37A     -0.417436    38A     -0.411696    39A     -0.304979

  @DF-RHF Final Energy:  -539.57043471528743

   => Energetics <=

    Nuclear Repulsion Energy =            594.3326088617827736
    One-Electron Energy =               -1913.9704411009693104
    Two-Electron Energy =                 780.0673975238991034
    Total Energy =                       -539.5704347152874334
  Basis Set: (AUG-CC-PVTZ AUX)
    Blend: AUG-CC-PVTZ-RI
    Molecular point group: c1

    Geometry (in Angstrom), charge = 0, multiplicity = 1:

       Center              X                  Y                   Z               Mass
    ------------   -----------------  -----------------  -----------------  -----------------
         O            0.193214842378     2.674762018011    -0.005520611106    15.994914619570
         C            0.291156142378     1.373786918011     0.005321188894    12.000000000000
         N            1.482766842378     0.768359018011    -0.002162611106    14.003074004430
         C            1.686425842378    -0.589099981989     0.004855388894    12.000000000000
         N            0.720883842378    -1.475466981989     0.014171388894    14.003074004430
         C           -0.507926157622    -0.879017981989    -0.000652611106    12.000000000000
         C           -0.836746157622     0.475220018011     0.018130388894    12.000000000000
         N           -2.201053157622     0.665103018011     0.016292388894    14.003074004430
         C           -2.691314157622    -0.564636981989     0.003390388894    12.000000000000
         N           -1.713420157622    -1.530569981989    -0.004421611106    14.003074004430
         N            3.006550842378    -1.004605981989    -0.076851611106    14.003074004430
         H            2.280668842378     1.391720018011    -0.101619611106     1.007825032230
         H           -3.744051157622    -0.816097981989    -0.000517611106     1.007825032230
         H           -1.836018157622    -2.536447981989    -0.018144611106     1.007825032230
         H            3.079682842378    -2.006281981989     0.070915388894     1.007825032230
         H            3.659025842378    -0.487195981989     0.503350388894     1.007825032230

  Basis Set: AUG-CC-PVTZ
    Blend: AUG-CC-PVTZ
  Basis Set: (AUG-CC-PVTZ AUX)
    Blend: AUG-CC-PVTZ-JKFIT
	 Reference Energy          =    -539.5704347152874334 [Eh]
	 Singles Energy            =      -0.0000000000000000 [Eh]
	 Same-Spin Energy          =      -0.5746988390324841 [Eh]
	 Opposite-Spin Energy      =      -1.6660121783916182 [Eh]
	 Correlation Energy        =      -2.2407110174241023 [Eh]
	 Total Energy              =    -541.8111457327115659 [Eh]

	 ================> DF-SCS-MP2 Energies <==================
	-----------------------------------------------------------
	 SCS Same-Spin Scale       =       0.3333333333333333 [-]
	 SCS Opposite-Spin Scale   =       1.2000000000000000 [-]
	 SCS Same-Spin Energy      =      -0.1915662796774947 [Eh]
	 SCS Opposite-Spin Energy  =      -1.9992146140699418 [Eh]
	 SCS Correlation Energy    =      -2.1907808937474367 [Eh]
	 SCS Total Energy          =    -541.7612156090348208 [Eh]
	-----------------------------------------------------------

  Dipole Moment: [D]
     X:     2.9757      Y:    -6.4365      Z:     0.8480     Total:     7.1416

*** Psi4 exiting successfully. Buy a developer a beer!
