                               Psi4 1.4a3.dev225

  ==> Input File <==

--------------------------------------------------------------------------
#psi4
#
memory 32 gb

molecule  {
0 1
  O        0.1763800     2.6970850    -0.0086780
  C        0.2088860     1.4725900     0.0042210
  N        1.4659360     0.7906750    -0.0050880
  C        1.6696170    -0.5667500     0.0018210
  N        0.7040680    -1.4531450     0.0111020
  C       -0.5247290    -0.8567090    -0.0037110
  C       -0.8535850     0.4975420     0.0152200
  N       -2.2178950     0.6873840     0.0133320
  C       -2.7081200    -0.5423560     0.0003580
  N       -1.7302140    -1.5082770    -0.0075250
  N        2.9421152    -0.9673315    -0.0769286
  H        2.2637990     1.4140370    -0.1048620
  H       -3.7608500    -0.7938460    -0.0035590
  H       -1.8527810    -2.5141570    -0.0214260
  H        3.0628080    -1.9839860     0.0679760
  H        3.6422460    -0.4648460     0.5002060
units angstrom
no_reorient  #important for SAPT in psi4, default
symmetry c1  #important for SAPT in psi4, default
}

set PROPERTIES_ORIGIN ["COM"]
properties('MP2/aug-cc-pvtz', properties = ['dipole'])
--------------------------------------------------------------------------

    Molecular point group: c1
  Charge       = 0
  Multiplicity = 1
  Basis Set: AUG-CC-PVTZ
    Blend: AUG-CC-PVTZ
  Basis Set: (AUG-CC-PVTZ AUX)
    Blend: AUG-CC-PVTZ-JKFIT

    Orbital Energies [Eh]
    ---------------------

    Doubly Occupied:

       1A    -20.522683     2A    -15.634065     3A    -15.628958
       4A    -15.616399     5A    -15.568927     6A    -15.563371
       7A    -11.394376     8A    -11.366031     9A    -11.325439
      10A    -11.312010    11A    -11.248487    12A     -1.393380
      13A     -1.359404    14A     -1.340812    15A     -1.225345
      16A     -1.216516    17A     -1.176210    18A     -1.028302
      19A     -0.905568    20A     -0.885668    21A     -0.842924
      22A     -0.799592    23A     -0.741364    24A     -0.737806
      25A     -0.695019    26A     -0.669447    27A     -0.655908
      28A     -0.633937    29A     -0.612596    30A     -0.600236
      31A     -0.596261    32A     -0.549621    33A     -0.497473
      34A     -0.461179    35A     -0.441507    36A     -0.431306
      37A     -0.430862    38A     -0.410355    39A     -0.299705

  @DF-RHF Final Energy:  -539.58491856739045

   => Energetics <=

    Nuclear Repulsion Energy =            594.9666134843686223
    One-Electron Energy =               -1915.4649598493847407
    Two-Electron Energy =                 780.9134277976255589
    Total Energy =                       -539.5849185673904458
  Basis Set: (AUG-CC-PVTZ AUX)
    Blend: AUG-CC-PVTZ-RI
    Molecular point group: c1

    Geometry (in Angstrom), charge = 0, multiplicity = 1:

       Center              X                  Y                   Z               Mass
    ------------   -----------------  -----------------  -----------------  -----------------
         O            0.202813676714     2.667310561804    -0.006070658302    15.994914619570
         C            0.235319676714     1.442815561804     0.006828341698    12.000000000000
         N            1.492369676714     0.760900561804    -0.002480658302    14.003074004430
         C            1.696050676714    -0.596524438196     0.004428341698    12.000000000000
         N            0.730501676714    -1.482919438196     0.013709341698    14.003074004430
         C           -0.498295323286    -0.886483438196    -0.001103658302    12.000000000000
         C           -0.827151323286     0.467767561804     0.017827341698    12.000000000000
         N           -2.191461323286     0.657609561804     0.015939341698    14.003074004430
         C           -2.681686323286    -0.572130438196     0.002965341698    12.000000000000
         N           -1.703780323286    -1.538051438196    -0.004917658302    14.003074004430
         N            2.968548876714    -0.997105938196    -0.074321258302    14.003074004430
         H            2.290232676714     1.384262561804    -0.102254658302     1.007825032230
         H           -3.734416323286    -0.823620438196    -0.000951658302     1.007825032230
         H           -1.826347323286    -2.543931438196    -0.018818658302     1.007825032230
         H            3.089241676714    -2.013760438196     0.070583341698     1.007825032230
         H            3.668679676714    -0.494620438196     0.502813341698     1.007825032230

  Basis Set: AUG-CC-PVTZ
    Blend: AUG-CC-PVTZ
  Basis Set: (AUG-CC-PVTZ AUX)
    Blend: AUG-CC-PVTZ-JKFIT
	 Reference Energy          =    -539.5849185673904458 [Eh]
	 Singles Energy            =      -0.0000000000000000 [Eh]
	 Same-Spin Energy          =      -0.5732804139329170 [Eh]
	 Opposite-Spin Energy      =      -1.6630724763519509 [Eh]
	 Correlation Energy        =      -2.2363528902848677 [Eh]
	 Total Energy              =    -541.8212714576752660 [Eh]

	 ================> DF-SCS-MP2 Energies <==================
	-----------------------------------------------------------
	 SCS Same-Spin Scale       =       0.3333333333333333 [-]
	 SCS Opposite-Spin Scale   =       1.2000000000000000 [-]
	 SCS Same-Spin Energy      =      -0.1910934713109723 [Eh]
	 SCS Opposite-Spin Energy  =      -1.9956869716223409 [Eh]
	 SCS Correlation Energy    =      -2.1867804429333133 [Eh]
	 SCS Total Energy          =    -541.7716990103238004 [Eh]
	-----------------------------------------------------------

  Dipole Moment: [D]
     X:     3.0547      Y:    -5.7333      Z:     0.8193     Total:     6.5477

*** Psi4 exiting successfully. Buy a developer a beer!
