                               Psi4 1.3.2 release

  ==> Input File <==

--------------------------------------------------------------------------
#psi4
#
memory 32 gb

molecule  {
0 1
  O        0.1763910     2.6970700    -0.0085580
  C        0.2089260     1.4725840     0.0042240
  N        1.4659430     0.7906670    -0.0052000
  C        1.6696020    -0.5667920     0.0018180
  N        0.7040600    -1.4531590     0.0111340
  C       -0.5247500    -0.8567100    -0.0036900
  C       -0.9933376     0.4557338     0.0150924
  N       -2.2178770     0.6874110     0.0132550
  C       -2.7081380    -0.5423290     0.0003530
  N       -1.7302440    -1.5082620    -0.0074590
  N        2.9897270    -0.9822980    -0.0798890
  H        2.2638450     1.4140280    -0.1046570
  H       -3.7608750    -0.7937900    -0.0035550
  H       -1.8528420    -2.5141400    -0.0211820
  H        3.0628590    -1.9839740     0.0678780
  H        3.6422020    -0.4648880     0.5003130
units angstrom
no_reorient  #important for SAPT in psi4, default
symmetry c1  #important for SAPT in psi4, default
}

set PROPERTIES_ORIGIN ["COM"]
properties('MP2/aug-cc-pvtz', properties = ['dipole'])
--------------------------------------------------------------------------

    Molecular point group: c1
  Charge       = 0
  Multiplicity = 1
  Basis Set: AUG-CC-PVTZ
    Blend: AUG-CC-PVTZ
  Basis Set: (AUG-CC-PVTZ AUX)
    Blend: AUG-CC-PVTZ-JKFIT

    Orbital Energies [Eh]
    ---------------------

    Doubly Occupied:

       1A    -20.531693     2A    -15.636608     3A    -15.632892
       4A    -15.610563     5A    -15.572423     6A    -15.560248
       7A    -11.395363     8A    -11.374052     9A    -11.311603
      10A    -11.309851    11A    -11.257405    12A     -1.396646
      13A     -1.374745    14A     -1.339343    15A     -1.231390
      16A     -1.218095    17A     -1.193434    18A     -1.015733
      19A     -0.892907    20A     -0.878473    21A     -0.862619
      22A     -0.796802    23A     -0.741865    24A     -0.729436
      25A     -0.696894    26A     -0.668071    27A     -0.655870
      28A     -0.636920    29A     -0.617020    30A     -0.602497
      31A     -0.591594    32A     -0.545399    33A     -0.508378
      34A     -0.465368    35A     -0.456597    36A     -0.438167
      37A     -0.422579    38A     -0.418719    39A     -0.288013

  @DF-RHF Final Energy:  -539.55510124224702

   => Energetics <=

    Nuclear Repulsion Energy =            593.7326576224443215
    One-Electron Energy =               -1912.8229683184681562
    Two-Electron Energy =                 779.5352094537768153
    Total Energy =                       -539.5551012422470194
  Basis Set: (AUG-CC-PVTZ AUX)
    Blend: AUG-CC-PVTZ-RI
    Molecular point group: c1

    Geometry (in Angstrom), charge = 0, multiplicity = 1:

       Center              X                  Y                   Z               Mass
    ------------   -----------------  -----------------  -----------------  -----------------
         O            0.209514719374     2.672005709326    -0.005674701083    15.994914619570
         C            0.242049719374     1.447519709326     0.007107298917    12.000000000000
         N            1.499066719374     0.765602709326    -0.002316701083    14.003074004430
         C            1.702725719374    -0.591856290674     0.004701298917    12.000000000000
         N            0.737183719374    -1.478223290674     0.014017298917    14.003074004430
         C           -0.491626280626    -0.881774290674    -0.000806701083    12.000000000000
         C           -0.960213880626     0.430669509326     0.017975698917    12.000000000000
         N           -2.184753280626     0.662346709326     0.016138298917    14.003074004430
         C           -2.675014280626    -0.567393290674     0.003236298917    12.000000000000
         N           -1.697120280626    -1.533326290674    -0.004575701083    14.003074004430
         N            3.022850719374    -1.007362290674    -0.077005701083    14.003074004430
         H            2.296968719374     1.388963709326    -0.101773701083     1.007825032230
         H           -3.727751280626    -0.818854290674    -0.000671701083     1.007825032230
         H           -1.819718280626    -2.539204290674    -0.018298701083     1.007825032230
         H            3.095982719374    -2.009038290674     0.070761298917     1.007825032230
         H            3.675325719374    -0.489952290674     0.503196298917     1.007825032230

  Basis Set: AUG-CC-PVTZ
    Blend: AUG-CC-PVTZ
  Basis Set: (AUG-CC-PVTZ AUX)
    Blend: AUG-CC-PVTZ-JKFIT
	 Reference Energy          =    -539.5551012422470194 [Eh]
	 Singles Energy            =      -0.0000000000000000 [Eh]
	 Same-Spin Energy          =      -0.5747266227972923 [Eh]
	 Opposite-Spin Energy      =      -1.6645971220431912 [Eh]
	 Correlation Energy        =      -2.2393237448404832 [Eh]
	 Total Energy              =    -541.7944249870874955 [Eh]

	 ================> DF-SCS-MP2 Energies <==================
	-----------------------------------------------------------
	 SCS Same-Spin Scale       =       0.3333333333333333 [-]
	 SCS Opposite-Spin Scale   =       1.2000000000000000 [-]
	 SCS Same-Spin Energy      =      -0.1915755409324307 [Eh]
	 SCS Opposite-Spin Energy  =      -1.9975165464518294 [Eh]
	 SCS Correlation Energy    =      -2.1890920873842603 [Eh]
	 SCS Total Energy          =    -541.7441933296312300 [Eh]
	-----------------------------------------------------------

  Dipole Moment: [D]
     X:     2.6250      Y:    -5.3083      Z:     0.8467     Total:     5.9821

*** Psi4 exiting successfully. Buy a developer a beer!
