                               Psi4 1.3.2 release

  ==> Input File <==

--------------------------------------------------------------------------
#psi4
#
memory 32 gb

molecule  {
0 1
  O        0.1763910     2.6970700    -0.0085580
  C        0.1011781     1.5782972     0.0030851
  N        1.4659430     0.7906670    -0.0052000
  C        1.6696020    -0.5667920     0.0018180
  N        0.7040600    -1.4531590     0.0111340
  C       -0.5247500    -0.8567100    -0.0036900
  C       -0.8535700     0.4975280     0.0150930
  N       -2.2178770     0.6874110     0.0132550
  C       -2.7081380    -0.5423290     0.0003530
  N       -1.7302440    -1.5082620    -0.0074590
  N        2.9897270    -0.9822980    -0.0798890
  H        2.2638450     1.4140280    -0.1046570
  H       -3.7608750    -0.7937900    -0.0035550
  H       -1.8528420    -2.5141400    -0.0211820
  H        3.0628590    -1.9839740     0.0678780
  H        3.6422020    -0.4648880     0.5003130
units angstrom
no_reorient  #important for SAPT in psi4, default
symmetry c1  #important for SAPT in psi4, default
}

set PROPERTIES_ORIGIN ["COM"]
properties('MP2/aug-cc-pvtz', properties = ['dipole'])
--------------------------------------------------------------------------

    Molecular point group: c1
  Charge       = 0
  Multiplicity = 1
  Basis Set: AUG-CC-PVTZ
    Blend: AUG-CC-PVTZ
  Basis Set: (AUG-CC-PVTZ AUX)
    Blend: AUG-CC-PVTZ-JKFIT

    Orbital Energies [Eh]
    ---------------------

    Doubly Occupied:

       1A    -20.556671     2A    -15.634653     3A    -15.600692
       4A    -15.600236     5A    -15.563026     6A    -15.559355
       7A    -11.383890     8A    -11.373723     9A    -11.328662
      10A    -11.310740    11A    -11.250543    12A     -1.467297
      13A     -1.365320    14A     -1.324017    15A     -1.209110
      16A     -1.194253    17A     -1.169124    18A     -1.026012
      19A     -0.899087    20A     -0.861512    21A     -0.843986
      22A     -0.782152    23A     -0.727400    24A     -0.717030
      25A     -0.704991    26A     -0.673487    27A     -0.657267
      28A     -0.649665    29A     -0.627742    30A     -0.599454
      31A     -0.595870    32A     -0.574839    33A     -0.492468
      34A     -0.454639    35A     -0.448542    36A     -0.436044
      37A     -0.431729    38A     -0.406090    39A     -0.300574

  @DF-RHF Final Energy:  -539.56855427748098

   => Energetics <=

    Nuclear Repulsion Energy =            593.0341804397387477
    One-Electron Energy =               -1911.6016843151016928
    Two-Electron Energy =                 778.9989495978819605
    Total Energy =                       -539.5685542774809846
  Basis Set: (AUG-CC-PVTZ AUX)
    Blend: AUG-CC-PVTZ-RI
    Molecular point group: c1

    Geometry (in Angstrom), charge = 0, multiplicity = 1:

       Center              X                  Y                   Z               Mass
    ------------   -----------------  -----------------  -----------------  -----------------
         O            0.206970939821     2.660287101473    -0.005584269746    15.994914619570
         C            0.131758039821     1.541514301473     0.006058830254    12.000000000000
         N            1.496522939821     0.753884101473    -0.002226269746    14.003074004430
         C            1.700181939821    -0.603574898527     0.004791730254    12.000000000000
         N            0.734639939821    -1.489941898527     0.014107730254    14.003074004430
         C           -0.494170060179    -0.893492898527    -0.000716269746    12.000000000000
         C           -0.822990060179     0.460745101473     0.018066730254    12.000000000000
         N           -2.187297060179     0.650628101473     0.016228730254    14.003074004430
         C           -2.677558060179    -0.579111898527     0.003326730254    12.000000000000
         N           -1.699664060179    -1.545044898527    -0.004485269746    14.003074004430
         N            3.020306939821    -1.019080898527    -0.076915269746    14.003074004430
         H            2.294424939821     1.377245101473    -0.101683269746     1.007825032230
         H           -3.730295060179    -0.830572898527    -0.000581269746     1.007825032230
         H           -1.822262060179    -2.550922898527    -0.018208269746     1.007825032230
         H            3.093438939821    -2.020756898527     0.070851730254     1.007825032230
         H            3.672781939821    -0.501670898527     0.503286730254     1.007825032230

  Basis Set: AUG-CC-PVTZ
    Blend: AUG-CC-PVTZ
  Basis Set: (AUG-CC-PVTZ AUX)
    Blend: AUG-CC-PVTZ-JKFIT
	 Reference Energy          =    -539.5685542774809846 [Eh]
	 Singles Energy            =      -0.0000000000000000 [Eh]
	 Same-Spin Energy          =      -0.5715656692098253 [Eh]
	 Opposite-Spin Energy      =      -1.6605353718988658 [Eh]
	 Correlation Energy        =      -2.2321010411086912 [Eh]
	 Total Energy              =    -541.8006553185896337 [Eh]

	 ================> DF-SCS-MP2 Energies <==================
	-----------------------------------------------------------
	 SCS Same-Spin Scale       =       0.3333333333333333 [-]
	 SCS Opposite-Spin Scale   =       1.2000000000000000 [-]
	 SCS Same-Spin Energy      =      -0.1905218897366084 [Eh]
	 SCS Opposite-Spin Energy  =      -1.9926424462786390 [Eh]
	 SCS Correlation Energy    =      -2.1831643360152473 [Eh]
	 SCS Total Energy          =    -541.7517186134962230 [Eh]
	-----------------------------------------------------------

  Dipole Moment: [D]
     X:     2.0248      Y:    -4.3496      Z:     0.8328     Total:     4.8695

*** Psi4 exiting successfully. Buy a developer a beer!
