                               Psi4 1.4a3.dev225

  ==> Input File <==

--------------------------------------------------------------------------
#psi4
#
memory 32 gb

molecule  {
0 1
  O        0.1763800     2.6970850    -0.0086780
  C        0.2088860     1.4725900     0.0042210
  N        1.4659360     0.7906750    -0.0050880
  C        1.6696170    -0.5667500     0.0018210
  N        0.7040680    -1.4531450     0.0111020
  C       -0.5247290    -0.8567090    -0.0037110
  C       -0.8535850     0.4975420     0.0152200
  N       -2.2178950     0.6873840     0.0133320
  C       -2.7081200    -0.5423560     0.0003580
  N       -1.7302140    -1.5082770    -0.0075250
  N        2.9897250    -0.9823190    -0.0798750
  H        2.2637990     1.4140370    -0.1048620
  H       -3.7608500    -0.7938460    -0.0035590
  H       -1.8551999    -2.5340083    -0.0217003
  H        3.0628080    -1.9839860     0.0679760
  H        3.6422460    -0.4648460     0.5002060
units angstrom
no_reorient  #important for SAPT in psi4, default
symmetry c1  #important for SAPT in psi4, default
}

set PROPERTIES_ORIGIN ["COM"]
properties('MP2/aug-cc-pvtz', properties = ['dipole'])
--------------------------------------------------------------------------

    Molecular point group: c1
  Charge       = 0
  Multiplicity = 1
  Basis Set: AUG-CC-PVTZ
    Blend: AUG-CC-PVTZ
  Basis Set: (AUG-CC-PVTZ AUX)
    Blend: AUG-CC-PVTZ-JKFIT

    Orbital Energies [Eh]
    ---------------------

    Doubly Occupied:

       1A    -20.524305     2A    -15.637829     3A    -15.631884
       4A    -15.612304     5A    -15.573489     6A    -15.565143
       7A    -11.398485     8A    -11.367921     9A    -11.327446
      10A    -11.314162    11A    -11.251359    12A     -1.393375
      13A     -1.360311    14A     -1.335564    15A     -1.220690
      16A     -1.218144    17A     -1.176517    18A     -1.031169
      19A     -0.906315    20A     -0.885079    21A     -0.841107
      22A     -0.798482    23A     -0.740185    24A     -0.730158
      25A     -0.699919    26A     -0.671855    27A     -0.656176
      28A     -0.633636    29A     -0.614247    30A     -0.601209
      31A     -0.596405    32A     -0.547827    33A     -0.499585
      34A     -0.462465    35A     -0.443076    36A     -0.433002
      37A     -0.432501    38A     -0.411850    39A     -0.302788

  @DF-RHF Final Energy:  -539.58644348707287

   => Energetics <=

    Nuclear Repulsion Energy =            593.5294273565899630
    One-Electron Energy =               -1912.5358145953825897
    Two-Electron Energy =                 779.4199437517198703
    Total Energy =                       -539.5864434870728701
  Basis Set: (AUG-CC-PVTZ AUX)
    Blend: AUG-CC-PVTZ-RI
    Molecular point group: c1

    Geometry (in Angstrom), charge = 0, multiplicity = 1:

       Center              X                  Y                   Z               Mass
    ------------   -----------------  -----------------  -----------------  -----------------
         O            0.198416137355     2.668832432754    -0.005795681368    15.994914619570
         C            0.230922137355     1.444337432754     0.007103318632    12.000000000000
         N            1.487972137355     0.762422432754    -0.002205681368    14.003074004430
         C            1.691653137355    -0.595002567246     0.004703318632    12.000000000000
         N            0.726104137355    -1.481397567246     0.013984318632    14.003074004430
         C           -0.502692862645    -0.884961567246    -0.000828681368    12.000000000000
         C           -0.831548862645     0.469289432754     0.018102318632    12.000000000000
         N           -2.195858862645     0.659131432754     0.016214318632    14.003074004430
         C           -2.686083862645    -0.570608567246     0.003240318632    12.000000000000
         N           -1.708177862645    -1.536529567246    -0.004642681368    14.003074004430
         N            3.011761137355    -1.010571567246    -0.076992681368    14.003074004430
         H            2.285835137355     1.385784432754    -0.101979681368     1.007825032230
         H           -3.738813862645    -0.822098567246    -0.000676681368     1.007825032230
         H           -1.833163762645    -2.562260867246    -0.018817981368     1.007825032230
         H            3.084844137355    -2.012238567246     0.070858318632     1.007825032230
         H            3.664282137355    -0.493098567246     0.503088318632     1.007825032230

  Basis Set: AUG-CC-PVTZ
    Blend: AUG-CC-PVTZ
  Basis Set: (AUG-CC-PVTZ AUX)
    Blend: AUG-CC-PVTZ-JKFIT
	 Reference Energy          =    -539.5864434870728701 [Eh]
	 Singles Energy            =      -0.0000000000000000 [Eh]
	 Same-Spin Energy          =      -0.5732091487310189 [Eh]
	 Opposite-Spin Energy      =      -1.6635796040365358 [Eh]
	 Correlation Energy        =      -2.2367887527675547 [Eh]
	 Total Energy              =    -541.8232322398404222 [Eh]

	 ================> DF-SCS-MP2 Energies <==================
	-----------------------------------------------------------
	 SCS Same-Spin Scale       =       0.3333333333333333 [-]
	 SCS Opposite-Spin Scale   =       1.2000000000000000 [-]
	 SCS Same-Spin Energy      =      -0.1910697162436730 [Eh]
	 SCS Opposite-Spin Energy  =      -1.9962955248438430 [Eh]
	 SCS Correlation Energy    =      -2.1873652410875160 [Eh]
	 SCS Total Energy          =    -541.7738087281603612 [Eh]
	-----------------------------------------------------------

  Dipole Moment: [D]
     X:     2.6617      Y:    -5.6614      Z:     0.8430     Total:     6.3124

*** Psi4 exiting successfully. Buy a developer a beer!
