                               Psi4 1.4a3.dev225

  ==> Input File <==

--------------------------------------------------------------------------
#psi4
#
memory 32 gb

molecule  {
0 1
  O        0.1763800     2.6970850    -0.0086780
  C        0.2088860     1.4725900     0.0042210
  N        1.4659360     0.7906750    -0.0050880
  C        1.6696170    -0.5667500     0.0018210
  N        0.7040680    -1.4531450     0.0111020
  C       -0.5247290    -0.8567090    -0.0037110
  C       -0.8535850     0.4975420     0.0152200
  N       -2.2178950     0.6873840     0.0133320
  C       -2.7081200    -0.5423560     0.0003580
  N       -1.7302140    -1.5082770    -0.0075250
  N        3.0373348    -0.9973065    -0.0828214
  H        2.2637990     1.4140370    -0.1048620
  H       -3.7608500    -0.7938460    -0.0035590
  H       -1.8527810    -2.5141570    -0.0214260
  H        3.0628080    -1.9839860     0.0679760
  H        3.6422460    -0.4648460     0.5002060
units angstrom
no_reorient  #important for SAPT in psi4, default
symmetry c1  #important for SAPT in psi4, default
}

set PROPERTIES_ORIGIN ["COM"]
properties('MP2/aug-cc-pvtz', properties = ['dipole'])
--------------------------------------------------------------------------

    Molecular point group: c1
  Charge       = 0
  Multiplicity = 1
  Basis Set: AUG-CC-PVTZ
    Blend: AUG-CC-PVTZ
  Basis Set: (AUG-CC-PVTZ AUX)
    Blend: AUG-CC-PVTZ-JKFIT

    Orbital Energies [Eh]
    ---------------------

    Doubly Occupied:

       1A    -20.525970     2A    -15.638184     3A    -15.634711
       4A    -15.609072     5A    -15.577834     6A    -15.567067
       7A    -11.402119     8A    -11.369806     9A    -11.329550
      10A    -11.316399    11A    -11.254162    12A     -1.394216
      13A     -1.362602    14A     -1.332088    15A     -1.220521
      16A     -1.215932    17A     -1.180130    18A     -1.034137
      19A     -0.908139    20A     -0.885029    21A     -0.846859
      22A     -0.799175    23A     -0.742391    24A     -0.720741
      25A     -0.706835    26A     -0.676489    27A     -0.656700
      28A     -0.631178    29A     -0.616480    30A     -0.602975
      31A     -0.596643    32A     -0.546264    33A     -0.501798
      34A     -0.463947    35A     -0.444634    36A     -0.435014
      37A     -0.434029    38A     -0.413944    39A     -0.305840

  @DF-RHF Final Energy:  -539.58452783581322

   => Energetics <=

    Nuclear Repulsion Energy =            592.3961615485347920
    One-Electron Energy =               -1910.1621673092954552
    Two-Electron Energy =                 778.1814779249474441
    Total Energy =                       -539.5845278358132191
  Basis Set: (AUG-CC-PVTZ AUX)
    Blend: AUG-CC-PVTZ-RI
    Molecular point group: c1

    Geometry (in Angstrom), charge = 0, multiplicity = 1:

       Center              X                  Y                   Z               Mass
    ------------   -----------------  -----------------  -----------------  -----------------
         O            0.193986319446     2.670089401813    -0.005524364777    15.994914619570
         C            0.226492319446     1.445594401813     0.007374635223    12.000000000000
         N            1.483542319446     0.763679401813    -0.001934364777    14.003074004430
         C            1.687223319446    -0.593745598187     0.004974635223    12.000000000000
         N            0.721674319446    -1.480140598187     0.014255635223    14.003074004430
         C           -0.507122680554    -0.883704598187    -0.000557364777    12.000000000000
         C           -0.835978680554     0.470546401813     0.018373635223    12.000000000000
         N           -2.200288680554     0.660388401813     0.016485635223    14.003074004430
         C           -2.690513680554    -0.569351598187     0.003511635223    12.000000000000
         N           -1.712607680554    -1.535272598187    -0.004371364777    14.003074004430
         N            3.054941119446    -1.024302098187    -0.079667764777    14.003074004430
         H            2.281405319446     1.387041401813    -0.101708364777     1.007825032230
         H           -3.743243680554    -0.820841598187    -0.000405364777     1.007825032230
         H           -1.835174680554    -2.541152598187    -0.018272364777     1.007825032230
         H            3.080414319446    -2.010981598187     0.071129635223     1.007825032230
         H            3.659852319446    -0.491841598187     0.503359635223     1.007825032230

  Basis Set: AUG-CC-PVTZ
    Blend: AUG-CC-PVTZ
  Basis Set: (AUG-CC-PVTZ AUX)
    Blend: AUG-CC-PVTZ-JKFIT
	 Reference Energy          =    -539.5845278358132191 [Eh]
	 Singles Energy            =      -0.0000000000000000 [Eh]
	 Same-Spin Energy          =      -0.5729070228286799 [Eh]
	 Opposite-Spin Energy      =      -1.6635992911114124 [Eh]
	 Correlation Energy        =      -2.2365063139400920 [Eh]
	 Total Energy              =    -541.8210341497533591 [Eh]

	 ================> DF-SCS-MP2 Energies <==================
	-----------------------------------------------------------
	 SCS Same-Spin Scale       =       0.3333333333333333 [-]
	 SCS Opposite-Spin Scale   =       1.2000000000000000 [-]
	 SCS Same-Spin Energy      =      -0.1909690076095600 [Eh]
	 SCS Opposite-Spin Energy  =      -1.9963191493336947 [Eh]
	 SCS Correlation Energy    =      -2.1872881569432545 [Eh]
	 SCS Total Energy          =    -541.7718159927565011 [Eh]
	-----------------------------------------------------------

  Dipole Moment: [D]
     X:     2.3084      Y:    -5.5419      Z:     0.8676     Total:     6.0658

*** Psi4 exiting successfully. Buy a developer a beer!
