                               Psi4 1.3.2 release

  ==> Input File <==

--------------------------------------------------------------------------
#psi4
#
memory 32 gb

molecule  {
0 1
  O        0.1763910     2.6970700    -0.0085580
  C        0.2089260     1.4725840     0.0042240
  N        1.4659430     0.7906670    -0.0052000
  C        1.6696020    -0.5667920     0.0018180
  N        0.7040600    -1.4531590     0.0111340
  C       -0.5247500    -0.8567100    -0.0036900
  C       -0.8535700     0.4975280     0.0150930
  N       -2.2178770     0.6874110     0.0132550
  C       -2.7081380    -0.5423290     0.0003530
  N       -1.7645513    -1.5417996    -0.0078281
  N        2.9897270    -0.9822980    -0.0798890
  H        2.2638450     1.4140280    -0.1046570
  H       -3.7608750    -0.7937900    -0.0035550
  H       -1.8528420    -2.5141400    -0.0211820
  H        3.0628590    -1.9839740     0.0678780
  H        3.6422020    -0.4648880     0.5003130
units angstrom
no_reorient  #important for SAPT in psi4, default
symmetry c1  #important for SAPT in psi4, default
}

set PROPERTIES_ORIGIN ["COM"]
properties('MP2/aug-cc-pvtz', properties = ['dipole'])
--------------------------------------------------------------------------

    Molecular point group: c1
  Charge       = 0
  Multiplicity = 1
  Basis Set: AUG-CC-PVTZ
    Blend: AUG-CC-PVTZ
  Basis Set: (AUG-CC-PVTZ AUX)
    Blend: AUG-CC-PVTZ-JKFIT

    Orbital Energies [Eh]
    ---------------------

    Doubly Occupied:

       1A    -20.525903     2A    -15.633294     3A    -15.633281
       4A    -15.612695     5A    -15.574790     6A    -15.564971
       7A    -11.398965     8A    -11.369666     9A    -11.331901
      10A    -11.317363    11A    -11.254788    12A     -1.393711
      13A     -1.355835    14A     -1.334246    15A     -1.221532
      16A     -1.218263    17A     -1.180453    18A     -1.030406
      19A     -0.904169    20A     -0.886179    21A     -0.853862
      22A     -0.798321    23A     -0.739429    24A     -0.727917
      25A     -0.703383    26A     -0.678342    27A     -0.654159
      28A     -0.629970    29A     -0.614927    30A     -0.599537
      31A     -0.592855    32A     -0.548529    33A     -0.501476
      34A     -0.463080    35A     -0.444232    36A     -0.433933
      37A     -0.433316    38A     -0.414561    39A     -0.302704

  @DF-RHF Final Energy:  -539.58363267092773

   => Energetics <=

    Nuclear Repulsion Energy =            592.4408235309839483
    One-Electron Energy =               -1910.2950276948549799
    Two-Electron Energy =                 778.2705714929434180
    Total Energy =                       -539.5836326709277273
  Basis Set: (AUG-CC-PVTZ AUX)
    Blend: AUG-CC-PVTZ-RI
    Molecular point group: c1

    Geometry (in Angstrom), charge = 0, multiplicity = 1:

       Center              X                  Y                   Z               Mass
    ------------   -----------------  -----------------  -----------------  -----------------
         O            0.201591460747     2.671794514160    -0.005640531240    15.994914619570
         C            0.234126460747     1.447308514160     0.007141468760    12.000000000000
         N            1.491143460747     0.765391514160    -0.002282531240    14.003074004430
         C            1.694802460747    -0.592067485840     0.004735468760    12.000000000000
         N            0.729260460747    -1.478434485840     0.014051468760    14.003074004430
         C           -0.499549539253    -0.881985485840    -0.000772531240    12.000000000000
         C           -0.828369539253     0.472252514160     0.018010468760    12.000000000000
         N           -2.192676539253     0.662135514160     0.016172468760    14.003074004430
         C           -2.682937539253    -0.567604485840     0.003270468760    12.000000000000
         N           -1.739350839253    -1.567075085840    -0.004910631240    14.003074004430
         N            3.014927460747    -1.007573485840    -0.076971531240    14.003074004430
         H            2.289045460747     1.388752514160    -0.101739531240     1.007825032230
         H           -3.735674539253    -0.819065485840    -0.000637531240     1.007825032230
         H           -1.827641539253    -2.539415485840    -0.018264531240     1.007825032230
         H            3.088059460747    -2.009249485840     0.070795468760     1.007825032230
         H            3.667402460747    -0.490163485840     0.503230468760     1.007825032230

  Basis Set: AUG-CC-PVTZ
    Blend: AUG-CC-PVTZ
  Basis Set: (AUG-CC-PVTZ AUX)
    Blend: AUG-CC-PVTZ-JKFIT
	 Reference Energy          =    -539.5836326709277273 [Eh]
	 Singles Energy            =      -0.0000000000000000 [Eh]
	 Same-Spin Energy          =      -0.5728752627831284 [Eh]
	 Opposite-Spin Energy      =      -1.6636615657723866 [Eh]
	 Correlation Energy        =      -2.2365368285555149 [Eh]
	 Total Energy              =    -541.8201694994831996 [Eh]

	 ================> DF-SCS-MP2 Energies <==================
	-----------------------------------------------------------
	 SCS Same-Spin Scale       =       0.3333333333333333 [-]
	 SCS Opposite-Spin Scale   =       1.2000000000000000 [-]
	 SCS Same-Spin Energy      =      -0.1909584209277095 [Eh]
	 SCS Opposite-Spin Energy  =      -1.9963938789268638 [Eh]
	 SCS Correlation Energy    =      -2.1873522998545734 [Eh]
	 SCS Total Energy          =    -541.7709849707822514 [Eh]
	-----------------------------------------------------------

  Dipole Moment: [D]
     X:     2.7636      Y:    -5.5327      Z:     0.8458     Total:     6.2421

*** Psi4 exiting successfully. Buy a developer a beer!
