                               Psi4 1.3.2 release

  ==> Input File <==

--------------------------------------------------------------------------
#psi4
#
memory 32 gb

molecule  {
0 1
  O        0.1763910     2.6970700    -0.0085580
  C        0.2089260     1.4725840     0.0042240
  N        1.4659430     0.7906670    -0.0052000
  C        1.6696020    -0.5667920     0.0018180
  N        0.7040600    -1.4531590     0.0111340
  C       -0.5247500    -0.8567100    -0.0036900
  C       -0.8535700     0.4975280     0.0150930
  N       -2.2178770     0.6874110     0.0132550
  C       -2.7081380    -0.5423290     0.0003530
  N       -1.7302440    -1.5082620    -0.0074590
  N        2.9897270    -0.9822980    -0.0798890
  H        2.2638450     1.4140280    -0.1046570
  H       -3.7608750    -0.7937900    -0.0035550
  H       -1.8528420    -2.5141400    -0.0211820
  H        3.0772671    -2.1813186     0.0969902
  H        3.6422020    -0.4648880     0.5003130
units angstrom
no_reorient  #important for SAPT in psi4, default
symmetry c1  #important for SAPT in psi4, default
}

set PROPERTIES_ORIGIN ["COM"]
properties('MP2/aug-cc-pvtz', properties = ['dipole'])
--------------------------------------------------------------------------

    Molecular point group: c1
  Charge       = 0
  Multiplicity = 1
  Basis Set: AUG-CC-PVTZ
    Blend: AUG-CC-PVTZ
  Basis Set: (AUG-CC-PVTZ AUX)
    Blend: AUG-CC-PVTZ-JKFIT

    Orbital Energies [Eh]
    ---------------------

    Doubly Occupied:

       1A    -20.523974     2A    -15.635660     3A    -15.631693
       4A    -15.626551     5A    -15.572296     6A    -15.564796
       7A    -11.397801     8A    -11.367603     9A    -11.326801
      10A    -11.313734    11A    -11.250693    12A     -1.392622
      13A     -1.360249    14A     -1.332184    15A     -1.217796
      16A     -1.202893    17A     -1.177565    18A     -1.028388
      19A     -0.905291    20A     -0.878176    21A     -0.844416
      22A     -0.796268    23A     -0.738790    24A     -0.726259
      25A     -0.686251    26A     -0.658508    27A     -0.638027
      28A     -0.632563    29A     -0.611398    30A     -0.600782
      31A     -0.594528    32A     -0.545989    33A     -0.499011
      34A     -0.459048    35A     -0.442676    36A     -0.432165
      37A     -0.432014    38A     -0.411687    39A     -0.301981

  @DF-RHF Final Energy:  -539.55833713482491

   => Energetics <=

    Nuclear Repulsion Energy =            592.6928790789906998
    One-Electron Energy =               -1910.9841735758950563
    Two-Electron Energy =                 778.7329573620794463
    Total Energy =                       -539.5583371348249102
  Basis Set: (AUG-CC-PVTZ AUX)
    Blend: AUG-CC-PVTZ-RI
    Molecular point group: c1

    Geometry (in Angstrom), charge = 0, multiplicity = 1:

       Center              X                  Y                   Z               Mass
    ------------   -----------------  -----------------  -----------------  -----------------
         O            0.198314860691     2.670002116114    -0.005868989852    15.994914619570
         C            0.230849860691     1.445516116114     0.006913010148    12.000000000000
         N            1.487866860691     0.763599116114    -0.002510989852    14.003074004430
         C            1.691525860691    -0.593859883886     0.004507010148    12.000000000000
         N            0.725983860691    -1.480226883886     0.013823010148    14.003074004430
         C           -0.502826139309    -0.883777883886    -0.001000989852    12.000000000000
         C           -0.831646139309     0.470460116114     0.017782010148    12.000000000000
         N           -2.195953139309     0.660343116114     0.015944010148    14.003074004430
         C           -2.686214139309    -0.569396883886     0.003042010148    12.000000000000
         N           -1.708320139309    -1.535329883886    -0.004769989852    14.003074004430
         N            3.011650860691    -1.009365883886    -0.077199989852    14.003074004430
         H            2.285768860691     1.386960116114    -0.101967989852     1.007825032230
         H           -3.738951139309    -0.820857883886    -0.000865989852     1.007825032230
         H           -1.830918139309    -2.541207883886    -0.018492989852     1.007825032230
         H            3.099190960691    -2.208386483886     0.099679210148     1.007825032230
         H            3.664125860691    -0.491955883886     0.503002010148     1.007825032230

  Basis Set: AUG-CC-PVTZ
    Blend: AUG-CC-PVTZ
  Basis Set: (AUG-CC-PVTZ AUX)
    Blend: AUG-CC-PVTZ-JKFIT
	 Reference Energy          =    -539.5583371348249102 [Eh]
	 Singles Energy            =      -0.0000000000000000 [Eh]
	 Same-Spin Energy          =      -0.5742990747789506 [Eh]
	 Opposite-Spin Energy      =      -1.6670835894005398 [Eh]
	 Correlation Energy        =      -2.2413826641794903 [Eh]
	 Total Energy              =    -541.7997197990043787 [Eh]

	 ================> DF-SCS-MP2 Energies <==================
	-----------------------------------------------------------
	 SCS Same-Spin Scale       =       0.3333333333333333 [-]
	 SCS Opposite-Spin Scale   =       1.2000000000000000 [-]
	 SCS Same-Spin Energy      =      -0.1914330249263169 [Eh]
	 SCS Opposite-Spin Energy  =      -2.0005003072806478 [Eh]
	 SCS Correlation Energy    =      -2.1919333322069647 [Eh]
	 SCS Total Energy          =    -541.7502704670318963 [Eh]
	-----------------------------------------------------------

  Dipole Moment: [D]
     X:     2.7091      Y:    -5.8199      Z:     0.8528     Total:     6.4760

*** Psi4 exiting successfully. Buy a developer a beer!
