                               Psi4 1.4a3.dev225

  ==> Input File <==

--------------------------------------------------------------------------
#psi4
#
memory 32 gb

molecule  {
0 1
  O        0.1763800     2.6970850    -0.0086780
  C        0.2083553     1.4925818     0.0040104
  N        1.4659360     0.7906750    -0.0050880
  C        1.6696170    -0.5667500     0.0018210
  N        0.7040680    -1.4531450     0.0111020
  C       -0.5247290    -0.8567090    -0.0037110
  C       -0.8535850     0.4975420     0.0152200
  N       -2.2178950     0.6873840     0.0133320
  C       -2.7081200    -0.5423560     0.0003580
  N       -1.7302140    -1.5082770    -0.0075250
  N        2.9897250    -0.9823190    -0.0798750
  H        2.2637990     1.4140370    -0.1048620
  H       -3.7608500    -0.7938460    -0.0035590
  H       -1.8527810    -2.5141570    -0.0214260
  H        3.0628080    -1.9839860     0.0679760
  H        3.6422460    -0.4648460     0.5002060
units angstrom
no_reorient  #important for SAPT in psi4, default
symmetry c1  #important for SAPT in psi4, default
}

set PROPERTIES_ORIGIN ["COM"]
properties('MP2/aug-cc-pvtz', properties = ['dipole'])
--------------------------------------------------------------------------

    Molecular point group: c1
  Charge       = 0
  Multiplicity = 1
  Basis Set: AUG-CC-PVTZ
    Blend: AUG-CC-PVTZ
  Basis Set: (AUG-CC-PVTZ AUX)
    Blend: AUG-CC-PVTZ-JKFIT

    Orbital Energies [Eh]
    ---------------------

    Doubly Occupied:

       1A    -20.529627     2A    -15.634988     3A    -15.629436
       4A    -15.611151     5A    -15.571606     6A    -15.564132
       7A    -11.397171     8A    -11.368896     9A    -11.325711
      10A    -11.312740    11A    -11.250961    12A     -1.401676
      13A     -1.364215    14A     -1.336039    15A     -1.219191
      16A     -1.216834    17A     -1.176720    18A     -1.028187
      19A     -0.903686    20A     -0.883344    21A     -0.843721
      22A     -0.797514    23A     -0.737189    24A     -0.729044
      25A     -0.700394    26A     -0.673080    27A     -0.654966
      28A     -0.632826    29A     -0.622473    30A     -0.600478
      31A     -0.595533    32A     -0.552690    33A     -0.498389
      34A     -0.461858    35A     -0.445224    36A     -0.434303
      37A     -0.433380    38A     -0.411084    39A     -0.301471

  @DF-RHF Final Energy:  -539.58826251996516

   => Energetics <=

    Nuclear Repulsion Energy =            593.5140524180009152
    One-Electron Energy =               -1912.5007744751039809
    Two-Electron Energy =                 779.3984595371380237
    Total Energy =                       -539.5882625199651557
  Basis Set: (AUG-CC-PVTZ AUX)
    Blend: AUG-CC-PVTZ-RI
    Molecular point group: c1

    Geometry (in Angstrom), charge = 0, multiplicity = 1:

       Center              X                  Y                   Z               Mass
    ------------   -----------------  -----------------  -----------------  -----------------
         O            0.198442159119     2.667111749188    -0.005780780591    15.994914619570
         C            0.230417459119     1.462608549188     0.006907619409    12.000000000000
         N            1.487998159119     0.760701749188    -0.002190780591    14.003074004430
         C            1.691679159119    -0.596723250812     0.004718219409    12.000000000000
         N            0.726130159119    -1.483118250812     0.013999219409    14.003074004430
         C           -0.502666840881    -0.886682250812    -0.000813780591    12.000000000000
         C           -0.831522840881     0.467568749188     0.018117219409    12.000000000000
         N           -2.195832840881     0.657410749188     0.016229219409    14.003074004430
         C           -2.686057840881    -0.572329250812     0.003255219409    12.000000000000
         N           -1.708151840881    -1.538250250812    -0.004627780591    14.003074004430
         N            3.011787159119    -1.012292250812    -0.076977780591    14.003074004430
         H            2.285861159119     1.384063749188    -0.101964780591     1.007825032230
         H           -3.738787840881    -0.823819250812    -0.000661780591     1.007825032230
         H           -1.830718840881    -2.544130250812    -0.018528780591     1.007825032230
         H            3.084870159119    -2.013959250812     0.070873219409     1.007825032230
         H            3.664308159119    -0.494819250812     0.503103219409     1.007825032230

  Basis Set: AUG-CC-PVTZ
    Blend: AUG-CC-PVTZ
  Basis Set: (AUG-CC-PVTZ AUX)
    Blend: AUG-CC-PVTZ-JKFIT
	 Reference Energy          =    -539.5882625199651557 [Eh]
	 Singles Energy            =      -0.0000000000000000 [Eh]
	 Same-Spin Energy          =      -0.5726276466754886 [Eh]
	 Opposite-Spin Energy      =      -1.6624747837372165 [Eh]
	 Correlation Energy        =      -2.2351024304127050 [Eh]
	 Total Energy              =    -541.8233649503778224 [Eh]

	 ================> DF-SCS-MP2 Energies <==================
	-----------------------------------------------------------
	 SCS Same-Spin Scale       =       0.3333333333333333 [-]
	 SCS Opposite-Spin Scale   =       1.2000000000000000 [-]
	 SCS Same-Spin Energy      =      -0.1908758822251629 [Eh]
	 SCS Opposite-Spin Energy  =      -1.9949697404846596 [Eh]
	 SCS Correlation Energy    =      -2.1858456227098224 [Eh]
	 SCS Total Energy          =    -541.7741081426750043 [Eh]
	-----------------------------------------------------------

  Dipole Moment: [D]
     X:     2.6595      Y:    -5.4233      Z:     0.8423     Total:     6.0988

*** Psi4 exiting successfully. Buy a developer a beer!
