                               Psi4 1.3.2 release

  ==> Input File <==

--------------------------------------------------------------------------
#psi4
#
memory 32 gb

molecule  {
0 1
  O        0.1763910     2.6970700    -0.0085580
  C        0.2089260     1.4725840     0.0042240
  N        1.4659430     0.7906670    -0.0052000
  C        1.6696020    -0.5667920     0.0018180
  N        0.7040600    -1.4531590     0.0111340
  C       -0.5247500    -0.8567100    -0.0036900
  C       -0.8535700     0.4975280     0.0150930
  N       -2.2178770     0.6874110     0.0132550
  C       -2.6911311    -0.5254118     0.0006570
  N       -1.7302440    -1.5082620    -0.0074590
  N        2.9897270    -0.9822980    -0.0798890
  H        2.2638450     1.4140280    -0.1046570
  H       -3.7608750    -0.7937900    -0.0035550
  H       -1.8528420    -2.5141400    -0.0211820
  H        3.0628590    -1.9839740     0.0678780
  H        3.6422020    -0.4648880     0.5003130
units angstrom
no_reorient  #important for SAPT in psi4, default
symmetry c1  #important for SAPT in psi4, default
}

set PROPERTIES_ORIGIN ["COM"]
properties('MP2/aug-cc-pvtz', properties = ['dipole'])
--------------------------------------------------------------------------

    Molecular point group: c1
  Charge       = 0
  Multiplicity = 1
  Basis Set: AUG-CC-PVTZ
    Blend: AUG-CC-PVTZ
  Basis Set: (AUG-CC-PVTZ AUX)
    Blend: AUG-CC-PVTZ-JKFIT

    Orbital Energies [Eh]
    ---------------------

    Doubly Occupied:

       1A    -20.523853     2A    -15.634756     3A    -15.631850
       4A    -15.612477     5A    -15.573585     6A    -15.563811
       7A    -11.398755     8A    -11.367545     9A    -11.327934
      10A    -11.313736    11A    -11.251121    12A     -1.393772
      13A     -1.362801    14A     -1.336814    15A     -1.220870
      16A     -1.220120    17A     -1.181920    18A     -1.031824
      19A     -0.905402    20A     -0.885776    21A     -0.844595
      22A     -0.798628    23A     -0.741319    24A     -0.729500
      25A     -0.700071    26A     -0.673735    27A     -0.656577
      28A     -0.632757    29A     -0.614489    30A     -0.600686
      31A     -0.595825    32A     -0.547809    33A     -0.500594
      34A     -0.463553    35A     -0.443415    36A     -0.433710
      37A     -0.433374    38A     -0.413381    39A     -0.304437

  @DF-RHF Final Energy:  -539.58841405655369

   => Energetics <=

    Nuclear Repulsion Energy =            594.1795453918042540
    One-Electron Energy =               -1913.8015584050915550
    Two-Electron Energy =                 780.0335989567337265
    Total Energy =                       -539.5884140565536882
  Basis Set: (AUG-CC-PVTZ AUX)
    Blend: AUG-CC-PVTZ-RI
    Molecular point group: c1

    Geometry (in Angstrom), charge = 0, multiplicity = 1:

       Center              X                  Y                   Z               Mass
    ------------   -----------------  -----------------  -----------------  -----------------
         O            0.197059894145     2.667341428937    -0.005698899787    15.994914619570
         C            0.229594894145     1.442855428937     0.007083100213    12.000000000000
         N            1.486611894145     0.760938428937    -0.002340899787    14.003074004430
         C            1.690270894145    -0.596520571063     0.004677100213    12.000000000000
         N            0.724728894145    -1.482887571063     0.013993100213    14.003074004430
         C           -0.504081105855    -0.886438571063    -0.000830899787    12.000000000000
         C           -0.832901105855     0.467799428937     0.017952100213    12.000000000000
         N           -2.197208105855     0.657682428937     0.016114100213    14.003074004430
         C           -2.670462205855    -0.555140371063     0.003516100213    12.000000000000
         N           -1.709575105855    -1.537990571063    -0.004599899787    14.003074004430
         N            3.010395894145    -1.012026571063    -0.077029899787    14.003074004430
         H            2.284513894145     1.384299428937    -0.101797899787     1.007825032230
         H           -3.740206105855    -0.823518571063    -0.000695899787     1.007825032230
         H           -1.832173105855    -2.543868571063    -0.018322899787     1.007825032230
         H            3.083527894145    -2.013702571063     0.070737100213     1.007825032230
         H            3.662870894145    -0.494616571063     0.503172100213     1.007825032230

  Basis Set: AUG-CC-PVTZ
    Blend: AUG-CC-PVTZ
  Basis Set: (AUG-CC-PVTZ AUX)
    Blend: AUG-CC-PVTZ-JKFIT
	 Reference Energy          =    -539.5884140565536882 [Eh]
	 Singles Energy            =      -0.0000000000000000 [Eh]
	 Same-Spin Energy          =      -0.5725273350125669 [Eh]
	 Opposite-Spin Energy      =      -1.6621748966569216 [Eh]
	 Correlation Energy        =      -2.2347022316694884 [Eh]
	 Total Energy              =    -541.8231162882232184 [Eh]

	 ================> DF-SCS-MP2 Energies <==================
	-----------------------------------------------------------
	 SCS Same-Spin Scale       =       0.3333333333333333 [-]
	 SCS Opposite-Spin Scale   =       1.2000000000000000 [-]
	 SCS Same-Spin Energy      =      -0.1908424450041890 [Eh]
	 SCS Opposite-Spin Energy  =      -1.9946098759883060 [Eh]
	 SCS Correlation Energy    =      -2.1854523209924950 [Eh]
	 SCS Total Energy          =    -541.7738663775461418 [Eh]
	-----------------------------------------------------------

  Dipole Moment: [D]
     X:     2.6664      Y:    -5.6137      Z:     0.8443     Total:     6.2718

*** Psi4 exiting successfully. Buy a developer a beer!
