                               Psi4 1.3.2 release

  ==> Input File <==

--------------------------------------------------------------------------
#psi4
#
memory 32 gb

molecule  {
0 1
  O        0.1763910     2.6970700    -0.0085580
  C        0.2089260     1.4725840     0.0042240
  N        1.4659430     0.7906670    -0.0052000
  C        1.6931223    -0.5630654    -0.0008008
  N        0.7040600    -1.4531590     0.0111340
  C       -0.5247500    -0.8567100    -0.0036900
  C       -0.8535700     0.4975280     0.0150930
  N       -2.2178770     0.6874110     0.0132550
  C       -2.7081380    -0.5423290     0.0003530
  N       -1.7302440    -1.5082620    -0.0074590
  N        2.9897270    -0.9822980    -0.0798890
  H        2.2638450     1.4140280    -0.1046570
  H       -3.7608750    -0.7937900    -0.0035550
  H       -1.8528420    -2.5141400    -0.0211820
  H        3.0628590    -1.9839740     0.0678780
  H        3.6422020    -0.4648880     0.5003130
units angstrom
no_reorient  #important for SAPT in psi4, default
symmetry c1  #important for SAPT in psi4, default
}

set PROPERTIES_ORIGIN ["COM"]
properties('MP2/aug-cc-pvtz', properties = ['dipole'])
--------------------------------------------------------------------------

    Molecular point group: c1
  Charge       = 0
  Multiplicity = 1
  Basis Set: AUG-CC-PVTZ
    Blend: AUG-CC-PVTZ
  Basis Set: (AUG-CC-PVTZ AUX)
    Blend: AUG-CC-PVTZ-JKFIT

    Orbital Energies [Eh]
    ---------------------

    Doubly Occupied:

       1A    -20.523856     2A    -15.634584     3A    -15.632450
       4A    -15.616396     5A    -15.571755     6A    -15.563932
       7A    -11.400530     8A    -11.367839     9A    -11.326146
      10A    -11.312979    11A    -11.249491    12A     -1.392715
      13A     -1.359380    14A     -1.337030    15A     -1.227235
      16A     -1.213749    17A     -1.175769    18A     -1.029615
      19A     -0.905968    20A     -0.886171    21A     -0.843374
      22A     -0.798597    23A     -0.739538    24A     -0.735372
      25A     -0.703059    26A     -0.673308    27A     -0.655375
      28A     -0.633280    29A     -0.613813    30A     -0.600432
      31A     -0.596516    32A     -0.548563    33A     -0.496504
      34A     -0.463200    35A     -0.442412    36A     -0.432138
      37A     -0.431337    38A     -0.410719    39A     -0.299972

  @DF-RHF Final Energy:  -539.58614520676986

   => Energetics <=

    Nuclear Repulsion Energy =            593.3998488186754230
    One-Electron Energy =               -1912.2817914073459633
    Two-Electron Energy =                 779.2957973819005701
    Total Energy =                       -539.5861452067698565
  Basis Set: (AUG-CC-PVTZ AUX)
    Blend: AUG-CC-PVTZ-RI
    Molecular point group: c1

    Geometry (in Angstrom), charge = 0, multiplicity = 1:

       Center              X                  Y                   Z               Mass
    ------------   -----------------  -----------------  -----------------  -----------------
         O            0.196542442272     2.668389345643    -0.005466700270    15.994914619570
         C            0.229077442272     1.443903345643     0.007315299730    12.000000000000
         N            1.486094442272     0.761986345643    -0.002108700270    14.003074004430
         C            1.713273742272    -0.591746054357     0.002290499730    12.000000000000
         N            0.724211442272    -1.481839654357     0.014225299730    14.003074004430
         C           -0.504598557728    -0.885390654357    -0.000598700270    12.000000000000
         C           -0.833418557728     0.468847345643     0.018184299730    12.000000000000
         N           -2.197725557728     0.658730345643     0.016346299730    14.003074004430
         C           -2.687986557728    -0.571009654357     0.003444299730    12.000000000000
         N           -1.710092557728    -1.536942654357    -0.004367700270    14.003074004430
         N            3.009878442272    -1.010978654357    -0.076797700270    14.003074004430
         H            2.283996442272     1.385347345643    -0.101565700270     1.007825032230
         H           -3.740723557728    -0.822470654357    -0.000463700270     1.007825032230
         H           -1.832690557728    -2.542820654357    -0.018090700270     1.007825032230
         H            3.083010442272    -2.012654654357     0.070969299730     1.007825032230
         H            3.662353442272    -0.493568654357     0.503404299730     1.007825032230

  Basis Set: AUG-CC-PVTZ
    Blend: AUG-CC-PVTZ
  Basis Set: (AUG-CC-PVTZ AUX)
    Blend: AUG-CC-PVTZ-JKFIT
	 Reference Energy          =    -539.5861452067698565 [Eh]
	 Singles Energy            =      -0.0000000000000000 [Eh]
	 Same-Spin Energy          =      -0.5732912835872568 [Eh]
	 Opposite-Spin Energy      =      -1.6634264042733928 [Eh]
	 Correlation Energy        =      -2.2367176878606498 [Eh]
	 Total Energy              =    -541.8228628946304752 [Eh]

	 ================> DF-SCS-MP2 Energies <==================
	-----------------------------------------------------------
	 SCS Same-Spin Scale       =       0.3333333333333333 [-]
	 SCS Opposite-Spin Scale   =       1.2000000000000000 [-]
	 SCS Same-Spin Energy      =      -0.1910970945290856 [Eh]
	 SCS Opposite-Spin Energy  =      -1.9961116851280714 [Eh]
	 SCS Correlation Energy    =      -2.1872087796571571 [Eh]
	 SCS Total Energy          =    -541.7733539864269687 [Eh]
	-----------------------------------------------------------

  Dipole Moment: [D]
     X:     2.8849      Y:    -5.6459      Z:     0.8366     Total:     6.3953

*** Psi4 exiting successfully. Buy a developer a beer!
