                               Psi4 1.4a3.dev225

  ==> Input File <==

--------------------------------------------------------------------------
#psi4
#
memory 32 gb

molecule  {
0 1
  O        0.1763800     2.6970850    -0.0086780
  C        0.2088860     1.4725900     0.0042210
  N        1.4659360     0.7906750    -0.0050880
  C        1.6696170    -0.5667500     0.0018210
  N        0.7040680    -1.4531450     0.0111020
  C       -0.5247290    -0.8567090    -0.0037110
  C       -0.8167476     0.5313483     0.0148386
  N       -2.2178950     0.6873840     0.0133320
  C       -2.7081200    -0.5423560     0.0003580
  N       -1.7302140    -1.5082770    -0.0075250
  N        2.9897250    -0.9823190    -0.0798750
  H        2.2637990     1.4140370    -0.1048620
  H       -3.7608500    -0.7938460    -0.0035590
  H       -1.8527810    -2.5141570    -0.0214260
  H        3.0628080    -1.9839860     0.0679760
  H        3.6422460    -0.4648460     0.5002060
units angstrom
no_reorient  #important for SAPT in psi4, default
symmetry c1  #important for SAPT in psi4, default
}

set PROPERTIES_ORIGIN ["COM"]
properties('MP2/aug-cc-pvtz', properties = ['dipole'])
--------------------------------------------------------------------------

    Molecular point group: c1
  Charge       = 0
  Multiplicity = 1
  Basis Set: AUG-CC-PVTZ
    Blend: AUG-CC-PVTZ
  Basis Set: (AUG-CC-PVTZ AUX)
    Blend: AUG-CC-PVTZ-JKFIT

    Orbital Energies [Eh]
    ---------------------

    Doubly Occupied:

       1A    -20.518245     2A    -15.638672     3A    -15.631437
       4A    -15.613328     5A    -15.575201     6A    -15.567294
       7A    -11.400124     8A    -11.361666     9A    -11.336702
      10A    -11.316101    11A    -11.251101    12A     -1.392381
      13A     -1.357952    14A     -1.334728    15A     -1.221670
      16A     -1.217889    17A     -1.174287    18A     -1.035613
      19A     -0.914433    20A     -0.885431    21A     -0.841053
      22A     -0.800038    23A     -0.740972    24A     -0.731789
      25A     -0.701227    26A     -0.674711    27A     -0.656967
      28A     -0.634816    29A     -0.612435    30A     -0.602346
      31A     -0.595912    32A     -0.548867    33A     -0.498836
      34A     -0.462957    35A     -0.438683    36A     -0.431925
      37A     -0.431073    38A     -0.409423    39A     -0.304864

  @DF-RHF Final Energy:  -539.58332890464158

   => Energetics <=

    Nuclear Repulsion Energy =            593.5403840654118994
    One-Electron Energy =               -1912.5211238498043258
    Two-Electron Energy =                 779.3974108797508507
    Total Energy =                       -539.5833289046415757
  Basis Set: (AUG-CC-PVTZ AUX)
    Blend: AUG-CC-PVTZ-RI
    Molecular point group: c1

    Geometry (in Angstrom), charge = 0, multiplicity = 1:

       Center              X                  Y                   Z               Mass
    ------------   -----------------  -----------------  -----------------  -----------------
         O            0.195473480191     2.666014267243    -0.005767211521    15.994914619570
         C            0.227979480191     1.441519267243     0.007131788479    12.000000000000
         N            1.485029480191     0.759604267243    -0.002177211521    14.003074004430
         C            1.688710480191    -0.597820732757     0.004731788479    12.000000000000
         N            0.723161480191    -1.484215732757     0.014012788479    14.003074004430
         C           -0.505635519809    -0.887779732757    -0.000800211521    12.000000000000
         C           -0.797654119809     0.500277567243     0.017749388479    12.000000000000
         N           -2.198801519809     0.656313267243     0.016242788479    14.003074004430
         C           -2.689026519809    -0.573426732757     0.003268788479    12.000000000000
         N           -1.711120519809    -1.539347732757    -0.004614211521    14.003074004430
         N            3.008818480191    -1.013389732757    -0.076964211521    14.003074004430
         H            2.282892480191     1.382966267243    -0.101951211521     1.007825032230
         H           -3.741756519809    -0.824916732757    -0.000648211521     1.007825032230
         H           -1.833687519809    -2.545227732757    -0.018515211521     1.007825032230
         H            3.081901480191    -2.015056732757     0.070886788479     1.007825032230
         H            3.661339480191    -0.495916732757     0.503116788479     1.007825032230

  Basis Set: AUG-CC-PVTZ
    Blend: AUG-CC-PVTZ
  Basis Set: (AUG-CC-PVTZ AUX)
    Blend: AUG-CC-PVTZ-JKFIT
	 Reference Energy          =    -539.5833289046415757 [Eh]
	 Singles Energy            =      -0.0000000000000000 [Eh]
	 Same-Spin Energy          =      -0.5731968396480436 [Eh]
	 Opposite-Spin Energy      =      -1.6636540015857404 [Eh]
	 Correlation Energy        =      -2.2368508412337840 [Eh]
	 Total Energy              =    -541.8201797458754072 [Eh]

	 ================> DF-SCS-MP2 Energies <==================
	-----------------------------------------------------------
	 SCS Same-Spin Scale       =       0.3333333333333333 [-]
	 SCS Opposite-Spin Scale   =       1.2000000000000000 [-]
	 SCS Same-Spin Energy      =      -0.1910656132160145 [Eh]
	 SCS Opposite-Spin Energy  =      -1.9963848019028885 [Eh]
	 SCS Correlation Energy    =      -2.1874504151189029 [Eh]
	 SCS Total Energy          =    -541.7707793197604360 [Eh]
	-----------------------------------------------------------

  Dipole Moment: [D]
     X:     2.6347      Y:    -5.8051      Z:     0.8431     Total:     6.4305

*** Psi4 exiting successfully. Buy a developer a beer!
