                               Psi4 1.3.2 release

  ==> Input File <==

--------------------------------------------------------------------------
#psi4
#
memory 32 gb

molecule  {
0 1
  O        0.2191471     2.6974592    -0.0085892
  C        0.2089260     1.4725840     0.0042240
  N        1.4659430     0.7906670    -0.0052000
  C        1.6696020    -0.5667920     0.0018180
  N        0.7040600    -1.4531590     0.0111340
  C       -0.5247500    -0.8567100    -0.0036900
  C       -0.8535700     0.4975280     0.0150930
  N       -2.2178770     0.6874110     0.0132550
  C       -2.7081380    -0.5423290     0.0003530
  N       -1.7302440    -1.5082620    -0.0074590
  N        2.9897270    -0.9822980    -0.0798890
  H        2.2638450     1.4140280    -0.1046570
  H       -3.7608750    -0.7937900    -0.0035550
  H       -1.8528420    -2.5141400    -0.0211820
  H        3.0628590    -1.9839740     0.0678780
  H        3.6422020    -0.4648880     0.5003130
units angstrom
no_reorient  #important for SAPT in psi4, default
symmetry c1  #important for SAPT in psi4, default
}

set PROPERTIES_ORIGIN ["COM"]
properties('MP2/aug-cc-pvtz', properties = ['dipole'])
--------------------------------------------------------------------------

    Molecular point group: c1
  Charge       = 0
  Multiplicity = 1
  Basis Set: AUG-CC-PVTZ
    Blend: AUG-CC-PVTZ
  Basis Set: (AUG-CC-PVTZ AUX)
    Blend: AUG-CC-PVTZ-JKFIT

    Orbital Energies [Eh]
    ---------------------

    Doubly Occupied:

       1A    -20.524065     2A    -15.636942     3A    -15.630114
       4A    -15.611930     5A    -15.573301     6A    -15.566096
       7A    -11.397905     8A    -11.368180     9A    -11.328805
      10A    -11.314994    11A    -11.252874    12A     -1.394163
      13A     -1.361756    14A     -1.335252    15A     -1.219830
      16A     -1.217815    17A     -1.178831    18A     -1.032172
      19A     -0.907249    20A     -0.884580    21A     -0.845739
      22A     -0.798946    23A     -0.739880    24A     -0.730247
      25A     -0.700731    26A     -0.673328    27A     -0.656360
      28A     -0.633714    29A     -0.614708    30A     -0.602159
      31A     -0.596896    32A     -0.547936    33A     -0.500018
      34A     -0.462382    35A     -0.443043    36A     -0.434188
      37A     -0.431775    38A     -0.413026    39A     -0.303660

  @DF-RHF Final Energy:  -539.58755892002648

   => Energetics <=

    Nuclear Repulsion Energy =            593.6314815189172123
    One-Electron Energy =               -1912.7069002164589619
    Two-Electron Energy =                 779.4878597775153821
    Total Energy =                       -539.5875589200264812
  Basis Set: (AUG-CC-PVTZ AUX)
    Blend: AUG-CC-PVTZ-RI
    Molecular point group: c1

    Geometry (in Angstrom), charge = 0, multiplicity = 1:

       Center              X                  Y                   Z               Mass
    ------------   -----------------  -----------------  -----------------  -----------------
         O            0.236639567507     2.669033389269    -0.005702644921    15.994914619570
         C            0.226418467507     1.444158189269     0.007110555079    12.000000000000
         N            1.483435467507     0.762241189269    -0.002313444921    14.003074004430
         C            1.687094467507    -0.595217810731     0.004704555079    12.000000000000
         N            0.721552467507    -1.481584810731     0.014020555079    14.003074004430
         C           -0.507257532493    -0.885135810731    -0.000803444921    12.000000000000
         C           -0.836077532493     0.469102189269     0.017979555079    12.000000000000
         N           -2.200384532493     0.658985189269     0.016141555079    14.003074004430
         C           -2.690645532493    -0.570754810731     0.003239555079    12.000000000000
         N           -1.712751532493    -1.536687810731    -0.004572444921    14.003074004430
         N            3.007219467507    -1.010723810731    -0.077002444921    14.003074004430
         H            2.281337467507     1.385602189269    -0.101770444921     1.007825032230
         H           -3.743382532493    -0.822215810731    -0.000668444921     1.007825032230
         H           -1.835349532493    -2.542565810731    -0.018295444921     1.007825032230
         H            3.080351467507    -2.012399810731     0.070764555079     1.007825032230
         H            3.659694467507    -0.493313810731     0.503199555079     1.007825032230

  Basis Set: AUG-CC-PVTZ
    Blend: AUG-CC-PVTZ
  Basis Set: (AUG-CC-PVTZ AUX)
    Blend: AUG-CC-PVTZ-JKFIT
	 Reference Energy          =    -539.5875589200264812 [Eh]
	 Singles Energy            =      -0.0000000000000000 [Eh]
	 Same-Spin Energy          =      -0.5729655192563740 [Eh]
	 Opposite-Spin Energy      =      -1.6630372115540850 [Eh]
	 Correlation Energy        =      -2.2360027308104589 [Eh]
	 Total Energy              =    -541.8235616508369503 [Eh]

	 ================> DF-SCS-MP2 Energies <==================
	-----------------------------------------------------------
	 SCS Same-Spin Scale       =       0.3333333333333333 [-]
	 SCS Opposite-Spin Scale   =       1.2000000000000000 [-]
	 SCS Same-Spin Energy      =      -0.1909885064187913 [Eh]
	 SCS Opposite-Spin Energy  =      -1.9956446538649020 [Eh]
	 SCS Correlation Energy    =      -2.1866331602836935 [Eh]
	 SCS Total Energy          =    -541.7741920803101721 [Eh]
	-----------------------------------------------------------

  Dipole Moment: [D]
     X:     2.5740      Y:    -5.6522      Z:     0.8441     Total:     6.2678

*** Psi4 exiting successfully. Buy a developer a beer!
