                               Psi4 1.3.2 release

  ==> Input File <==

--------------------------------------------------------------------------
#psi4
#
memory 32 gb

molecule  {
0 1
  O        0.1763910     2.6970700    -0.0085580
  C        0.2089260     1.4725840     0.0042240
  N        1.4659430     0.7906670    -0.0052000
  C        1.6696020    -0.5667920     0.0018180
  N        0.7040600    -1.4531590     0.0111340
  C       -0.5247500    -0.8567100    -0.0036900
  C       -0.8535700     0.4975280     0.0150930
  N       -2.2178770     0.6874110     0.0132550
  C       -2.7081380    -0.5423290     0.0003530
  N       -1.6971281    -1.4735475    -0.0070804
  N        2.9897270    -0.9822980    -0.0798890
  H        2.2638450     1.4140280    -0.1046570
  H       -3.7608750    -0.7937900    -0.0035550
  H       -1.8528420    -2.5141400    -0.0211820
  H        3.0628590    -1.9839740     0.0678780
  H        3.6422020    -0.4648880     0.5003130
units angstrom
no_reorient  #important for SAPT in psi4, default
symmetry c1  #important for SAPT in psi4, default
}

set PROPERTIES_ORIGIN ["COM"]
properties('MP2/aug-cc-pvtz', properties = ['dipole'])
--------------------------------------------------------------------------

    Molecular point group: c1
  Charge       = 0
  Multiplicity = 1
  Basis Set: AUG-CC-PVTZ
    Blend: AUG-CC-PVTZ
  Basis Set: (AUG-CC-PVTZ AUX)
    Blend: AUG-CC-PVTZ-JKFIT

    Orbital Energies [Eh]
    ---------------------

    Doubly Occupied:

       1A    -20.522927     2A    -15.639133     3A    -15.630708
       4A    -15.612157     5A    -15.572523     6A    -15.565874
       7A    -11.398375     8A    -11.366400     9A    -11.323069
      10A    -11.311516    11A    -11.248202    12A     -1.394498
      13A     -1.367451    14A     -1.336677    15A     -1.220183
      16A     -1.218642    17A     -1.176915    18A     -1.032610
      19A     -0.909772    20A     -0.884740    21A     -0.836804
      22A     -0.800013    23A     -0.742967    24A     -0.731880
      25A     -0.698455    26A     -0.666627    27A     -0.659373
      28A     -0.639187    29A     -0.612804    30A     -0.602373
      31A     -0.599801    32A     -0.547353    33A     -0.497874
      34A     -0.462239    35A     -0.442372    36A     -0.432454
      37A     -0.432088    38A     -0.409893    39A     -0.303167

  @DF-RHF Final Energy:  -539.58431303155226

   => Energetics <=

    Nuclear Repulsion Energy =            594.9213522800104101
    One-Electron Energy =               -1915.3111421329276709
    Two-Electron Energy =                 780.8054768213648913
    Total Energy =                       -539.5843130315522558
  Basis Set: (AUG-CC-PVTZ AUX)
    Blend: AUG-CC-PVTZ-RI
    Molecular point group: c1

    Geometry (in Angstrom), charge = 0, multiplicity = 1:

       Center              X                  Y                   Z               Mass
    ------------   -----------------  -----------------  -----------------  -----------------
         O            0.195340975820     2.665467185847    -0.005709846959    15.994914619570
         C            0.227875975820     1.440981185847     0.007072153041    12.000000000000
         N            1.484892975820     0.759064185847    -0.002351846959    14.003074004430
         C            1.688551975820    -0.598394814153     0.004666153041    12.000000000000
         N            0.723009975820    -1.484761814153     0.013982153041    14.003074004430
         C           -0.505800024180    -0.888312814153    -0.000841846959    12.000000000000
         C           -0.834620024180     0.465925185847     0.017941153041    12.000000000000
         N           -2.198927024180     0.655808185847     0.016103153041    14.003074004430
         C           -2.689188024180    -0.573931814153     0.003201153041    12.000000000000
         N           -1.678178124180    -1.505150314153    -0.004232246959    14.003074004430
         N            3.008676975820    -1.013900814153    -0.077040846959    14.003074004430
         H            2.282794975820     1.382425185847    -0.101808846959     1.007825032230
         H           -3.741925024180    -0.825392814153    -0.000706846959     1.007825032230
         H           -1.833892024180    -2.545742814153    -0.018333846959     1.007825032230
         H            3.081808975820    -2.015576814153     0.070726153041     1.007825032230
         H            3.661151975820    -0.496490814153     0.503161153041     1.007825032230

  Basis Set: AUG-CC-PVTZ
    Blend: AUG-CC-PVTZ
  Basis Set: (AUG-CC-PVTZ AUX)
    Blend: AUG-CC-PVTZ-JKFIT
	 Reference Energy          =    -539.5843130315522558 [Eh]
	 Singles Energy            =      -0.0000000000000000 [Eh]
	 Same-Spin Energy          =      -0.5733231565276655 [Eh]
	 Opposite-Spin Energy      =      -1.6630924535194205 [Eh]
	 Correlation Energy        =      -2.2364156100470858 [Eh]
	 Total Energy              =    -541.8207286415993167 [Eh]

	 ================> DF-SCS-MP2 Energies <==================
	-----------------------------------------------------------
	 SCS Same-Spin Scale       =       0.3333333333333333 [-]
	 SCS Opposite-Spin Scale   =       1.2000000000000000 [-]
	 SCS Same-Spin Energy      =      -0.1911077188425552 [Eh]
	 SCS Opposite-Spin Energy  =      -1.9957109442233045 [Eh]
	 SCS Correlation Energy    =      -2.1868186630658597 [Eh]
	 SCS Total Energy          =    -541.7711316946181341 [Eh]
	-----------------------------------------------------------

  Dipole Moment: [D]
     X:     2.5848      Y:    -5.7303      Z:     0.8422     Total:     6.3425

*** Psi4 exiting successfully. Buy a developer a beer!
