                               Psi4 1.3.2 release

  ==> Input File <==

--------------------------------------------------------------------------
#psi4
#
memory 32 gb

molecule  {
0 1
  O        0.1763910     2.6970700    -0.0085580
  C        0.2089260     1.4725840     0.0042240
  N        1.4659430     0.7906670    -0.0052000
  C        1.6696020    -0.5667920     0.0018180
  N        0.7040600    -1.4531590     0.0111340
  C       -0.5247500    -0.8567100    -0.0036900
  C       -0.8535700     0.4975280     0.0150930
  N       -2.2178770     0.6874110     0.0132550
  C       -2.7081380    -0.5423290     0.0003530
  N       -1.8013873    -1.4379889    -0.0068907
  N        2.9897270    -0.9822980    -0.0798890
  H        2.2638450     1.4140280    -0.1046570
  H       -3.7608750    -0.7937900    -0.0035550
  H       -1.8528420    -2.5141400    -0.0211820
  H        3.0628590    -1.9839740     0.0678780
  H        3.6422020    -0.4648880     0.5003130
units angstrom
no_reorient  #important for SAPT in psi4, default
symmetry c1  #important for SAPT in psi4, default
}

set PROPERTIES_ORIGIN ["COM"]
properties('MP2/aug-cc-pvtz', properties = ['dipole'])
--------------------------------------------------------------------------

    Molecular point group: c1
  Charge       = 0
  Multiplicity = 1
  Basis Set: AUG-CC-PVTZ
    Blend: AUG-CC-PVTZ
  Basis Set: (AUG-CC-PVTZ AUX)
    Blend: AUG-CC-PVTZ-JKFIT

    Orbital Energies [Eh]
    ---------------------

    Doubly Occupied:

       1A    -20.525659     2A    -15.642448     3A    -15.632677
       4A    -15.611966     5A    -15.576272     6A    -15.551583
       7A    -11.398194     8A    -11.368281     9A    -11.324507
      10A    -11.305244    11A    -11.252360    12A     -1.396126
      13A     -1.372789    14A     -1.339848    15A     -1.221167
      16A     -1.217145    17A     -1.172375    18A     -1.035663
      19A     -0.914380    20A     -0.884538    21A     -0.835178
      22A     -0.799187    23A     -0.745621    24A     -0.731247
      25A     -0.700623    26A     -0.673557    27A     -0.657741
      28A     -0.637921    29A     -0.611625    30A     -0.607089
      31A     -0.590712    32A     -0.547722    33A     -0.495111
      34A     -0.463695    35A     -0.441809    36A     -0.433799
      37A     -0.429354    38A     -0.409615    39A     -0.300353

  @DF-RHF Final Energy:  -539.57059351223154

   => Energetics <=

    Nuclear Repulsion Energy =            594.5764838141445807
    One-Electron Energy =               -1914.5837975588740392
    Two-Electron Energy =                 780.4367202324978052
    Total Energy =                       -539.5705935122315395
  Basis Set: (AUG-CC-PVTZ AUX)
    Blend: AUG-CC-PVTZ-RI
    Molecular point group: c1

    Geometry (in Angstrom), charge = 0, multiplicity = 1:

       Center              X                  Y                   Z               Mass
    ------------   -----------------  -----------------  -----------------  -----------------
         O            0.205006351509     2.662170716778    -0.005727433146    15.994914619570
         C            0.237541351509     1.437684716778     0.007054566854    12.000000000000
         N            1.494558351509     0.755767716778    -0.002369433146    14.003074004430
         C            1.698217351509    -0.601691283222     0.004648566854    12.000000000000
         N            0.732675351509    -1.488058283222     0.013964566854    14.003074004430
         C           -0.496134648491    -0.891609283222    -0.000859433146    12.000000000000
         C           -0.824954648491     0.462628716778     0.017923566854    12.000000000000
         N           -2.189261648491     0.652511716778     0.016085566854    14.003074004430
         C           -2.679522648491    -0.577228283222     0.003183566854    12.000000000000
         N           -1.772771948491    -1.472888183222    -0.004060133146    14.003074004430
         N            3.018342351509    -1.017197283222    -0.077058433146    14.003074004430
         H            2.292460351509     1.379128716778    -0.101826433146     1.007825032230
         H           -3.732259648491    -0.828689283222    -0.000724433146     1.007825032230
         H           -1.824226648491    -2.549039283222    -0.018351433146     1.007825032230
         H            3.091474351509    -2.018873283222     0.070708566854     1.007825032230
         H            3.670817351509    -0.499787283222     0.503143566854     1.007825032230

  Basis Set: AUG-CC-PVTZ
    Blend: AUG-CC-PVTZ
  Basis Set: (AUG-CC-PVTZ AUX)
    Blend: AUG-CC-PVTZ-JKFIT
	 Reference Energy          =    -539.5705935122315395 [Eh]
	 Singles Energy            =      -0.0000000000000000 [Eh]
	 Same-Spin Energy          =      -0.5744743330343567 [Eh]
	 Opposite-Spin Energy      =      -1.6644154610554263 [Eh]
	 Correlation Energy        =      -2.2388897940897827 [Eh]
	 Total Energy              =    -541.8094833063213400 [Eh]

	 ================> DF-SCS-MP2 Energies <==================
	-----------------------------------------------------------
	 SCS Same-Spin Scale       =       0.3333333333333333 [-]
	 SCS Opposite-Spin Scale   =       1.2000000000000000 [-]
	 SCS Same-Spin Energy      =      -0.1914914443447855 [Eh]
	 SCS Opposite-Spin Energy  =      -1.9972985532665115 [Eh]
	 SCS Correlation Energy    =      -2.1887899976112970 [Eh]
	 SCS Total Energy          =    -541.7593835098427917 [Eh]
	-----------------------------------------------------------

  Dipole Moment: [D]
     X:     2.7275      Y:    -5.7988      Z:     0.8446     Total:     6.4636

*** Psi4 exiting successfully. Buy a developer a beer!
