                               Psi4 1.3.2 release

  ==> Input File <==

--------------------------------------------------------------------------
#psi4
#
memory 32 gb

molecule  {
0 1
  O        0.1763910     2.6970700    -0.0085580
  C        0.2089260     1.4725840     0.0042240
  N        1.4659430     0.7906670    -0.0052000
  C        1.7632396    -0.5494166    -0.0086620
  N        0.7040600    -1.4531590     0.0111340
  C       -0.5247500    -0.8567100    -0.0036900
  C       -0.8535700     0.4975280     0.0150930
  N       -2.2178770     0.6874110     0.0132550
  C       -2.7081380    -0.5423290     0.0003530
  N       -1.7302440    -1.5082620    -0.0074590
  N        2.9897270    -0.9822980    -0.0798890
  H        2.2638450     1.4140280    -0.1046570
  H       -3.7608750    -0.7937900    -0.0035550
  H       -1.8528420    -2.5141400    -0.0211820
  H        3.0628590    -1.9839740     0.0678780
  H        3.6422020    -0.4648880     0.5003130
units angstrom
no_reorient  #important for SAPT in psi4, default
symmetry c1  #important for SAPT in psi4, default
}

set PROPERTIES_ORIGIN ["COM"]
properties('MP2/aug-cc-pvtz', properties = ['dipole'])
--------------------------------------------------------------------------

    Molecular point group: c1
  Charge       = 0
  Multiplicity = 1
  Basis Set: AUG-CC-PVTZ
    Blend: AUG-CC-PVTZ
  Basis Set: (AUG-CC-PVTZ AUX)
    Blend: AUG-CC-PVTZ-JKFIT

    Orbital Energies [Eh]
    ---------------------

    Doubly Occupied:

       1A    -20.522150     2A    -15.634014     3A    -15.629417
       4A    -15.628635     5A    -15.565615     6A    -15.559636
       7A    -11.406076     8A    -11.367171     9A    -11.321795
      10A    -11.308743    11A    -11.243249    12A     -1.391730
      13A     -1.355684    14A     -1.345588    15A     -1.243705
      16A     -1.200302    17A     -1.166834    18A     -1.024077
      19A     -0.904733    20A     -0.888088    21A     -0.838435
      22A     -0.800992    23A     -0.755074    24A     -0.733841
      25A     -0.709510    26A     -0.672445    27A     -0.653925
      28A     -0.627629    29A     -0.611151    30A     -0.598494
      31A     -0.594880    32A     -0.551860    33A     -0.486357
      34A     -0.463626    35A     -0.440424    36A     -0.429749
      37A     -0.424605    38A     -0.406035    39A     -0.290927

  @DF-RHF Final Energy:  -539.57155045672744

   => Energetics <=

    Nuclear Repulsion Energy =            592.7178460262546196
    One-Electron Energy =               -1910.9843897073535572
    Two-Electron Energy =                 778.6949932243715011
    Total Energy =                       -539.5715504567274365
  Basis Set: (AUG-CC-PVTZ AUX)
    Blend: AUG-CC-PVTZ-RI
    Molecular point group: c1

    Geometry (in Angstrom), charge = 0, multiplicity = 1:

       Center              X                  Y                   Z               Mass
    ------------   -----------------  -----------------  -----------------  -----------------
         O            0.190972029245     2.667305027603    -0.004842173500    15.994914619570
         C            0.223507029245     1.442819027603     0.007939826500    12.000000000000
         N            1.480524029245     0.760902027603    -0.001484173500    14.003074004430
         C            1.777820629245    -0.579181572397    -0.004946173500    12.000000000000
         N            0.718641029245    -1.482923972397     0.014849826500    14.003074004430
         C           -0.510168970755    -0.886474972397     0.000025826500    12.000000000000
         C           -0.838988970755     0.467763027603     0.018808826500    12.000000000000
         N           -2.203295970755     0.657646027603     0.016970826500    14.003074004430
         C           -2.693556970755    -0.572093972397     0.004068826500    12.000000000000
         N           -1.715662970755    -1.538026972397    -0.003743173500    14.003074004430
         N            3.004308029245    -1.012062972397    -0.076173173500    14.003074004430
         H            2.278426029245     1.384263027603    -0.100941173500     1.007825032230
         H           -3.746293970755    -0.823554972397     0.000160826500     1.007825032230
         H           -1.838260970755    -2.543904972397    -0.017466173500     1.007825032230
         H            3.077440029245    -2.013738972397     0.071593826500     1.007825032230
         H            3.656783029245    -0.494652972397     0.504028826500     1.007825032230

  Basis Set: AUG-CC-PVTZ
    Blend: AUG-CC-PVTZ
  Basis Set: (AUG-CC-PVTZ AUX)
    Blend: AUG-CC-PVTZ-JKFIT
	 Reference Energy          =    -539.5715504567274365 [Eh]
	 Singles Energy            =      -0.0000000000000000 [Eh]
	 Same-Spin Energy          =      -0.5741595064567653 [Eh]
	 Opposite-Spin Energy      =      -1.6644313424237178 [Eh]
	 Correlation Energy        =      -2.2385908488804831 [Eh]
	 Total Energy              =    -541.8101413056078854 [Eh]

	 ================> DF-SCS-MP2 Energies <==================
	-----------------------------------------------------------
	 SCS Same-Spin Scale       =       0.3333333333333333 [-]
	 SCS Opposite-Spin Scale   =       1.2000000000000000 [-]
	 SCS Same-Spin Energy      =      -0.1913865021522551 [Eh]
	 SCS Opposite-Spin Energy  =      -1.9973176109084614 [Eh]
	 SCS Correlation Energy    =      -2.1887041130607163 [Eh]
	 SCS Total Energy          =    -541.7602545697881169 [Eh]
	-----------------------------------------------------------

  Dipole Moment: [D]
     X:     3.5551      Y:    -5.6804      Z:     0.8127     Total:     6.7503

*** Psi4 exiting successfully. Buy a developer a beer!
