                               Psi4 1.3.2 release

  ==> Input File <==

--------------------------------------------------------------------------
#psi4
#
memory 32 gb

molecule  {
0 1
  O        0.1763910     2.6970700    -0.0085580
  C        0.2089260     1.4725840     0.0042240
  N        1.4896650     0.7940140    -0.0053217
  C        1.6696020    -0.5667920     0.0018180
  N        0.7040600    -1.4531590     0.0111340
  C       -0.5247500    -0.8567100    -0.0036900
  C       -0.8535700     0.4975280     0.0150930
  N       -2.2178770     0.6874110     0.0132550
  C       -2.7081380    -0.5423290     0.0003530
  N       -1.7302440    -1.5082620    -0.0074590
  N        2.9897270    -0.9822980    -0.0798890
  H        2.2638450     1.4140280    -0.1046570
  H       -3.7608750    -0.7937900    -0.0035550
  H       -1.8528420    -2.5141400    -0.0211820
  H        3.0628590    -1.9839740     0.0678780
  H        3.6422020    -0.4648880     0.5003130
units angstrom
no_reorient  #important for SAPT in psi4, default
symmetry c1  #important for SAPT in psi4, default
}

set PROPERTIES_ORIGIN ["COM"]
properties('MP2/aug-cc-pvtz', properties = ['dipole'])
--------------------------------------------------------------------------

    Molecular point group: c1
  Charge       = 0
  Multiplicity = 1
  Basis Set: AUG-CC-PVTZ
    Blend: AUG-CC-PVTZ
  Basis Set: (AUG-CC-PVTZ AUX)
    Blend: AUG-CC-PVTZ-JKFIT

    Orbital Energies [Eh]
    ---------------------

    Doubly Occupied:

       1A    -20.526192     2A    -15.636690     3A    -15.629706
       4A    -15.610833     5A    -15.573690     6A    -15.565949
       7A    -11.398347     8A    -11.369915     9A    -11.328487
      10A    -11.314732    11A    -11.252183    12A     -1.392696
      13A     -1.361521    14A     -1.335860    15A     -1.219061
      16A     -1.218163    17A     -1.179012    18A     -1.031083
      19A     -0.906564    20A     -0.884058    21A     -0.845511
      22A     -0.799073    23A     -0.744312    24A     -0.729497
      25A     -0.700225    26A     -0.672440    27A     -0.655352
      28A     -0.634053    29A     -0.614746    30A     -0.602769
      31A     -0.596368    32A     -0.547296    33A     -0.500579
      34A     -0.461964    35A     -0.443556    36A     -0.433753
      37A     -0.433302    38A     -0.412841    39A     -0.303131

  @DF-RHF Final Energy:  -539.58713948744685

   => Energetics <=

    Nuclear Repulsion Energy =            593.2106199525218244
    One-Electron Energy =               -1911.8644958832505836
    Two-Electron Energy =                 779.0667364432817976
    Total Energy =                       -539.5871394874468479
  Basis Set: (AUG-CC-PVTZ AUX)
    Blend: AUG-CC-PVTZ-RI
    Molecular point group: c1

    Geometry (in Angstrom), charge = 0, multiplicity = 1:

       Center              X                  Y                   Z               Mass
    ------------   -----------------  -----------------  -----------------  -----------------
         O            0.196211839712     2.668375117923    -0.005663466520    15.994914619570
         C            0.228746839712     1.443889117923     0.007118533480    12.000000000000
         N            1.509485839712     0.765319117923    -0.002427166520    14.003074004430
         C            1.689422839712    -0.595486882077     0.004712533480    12.000000000000
         N            0.723880839712    -1.481853882077     0.014028533480    14.003074004430
         C           -0.504929160288    -0.885404882077    -0.000795466520    12.000000000000
         C           -0.833749160288     0.468833117923     0.017987533480    12.000000000000
         N           -2.198056160288     0.658716117923     0.016149533480    14.003074004430
         C           -2.688317160288    -0.571023882077     0.003247533480    12.000000000000
         N           -1.710423160288    -1.536956882077    -0.004564466520    14.003074004430
         N            3.009547839712    -1.010992882077    -0.076994466520    14.003074004430
         H            2.283665839712     1.385333117923    -0.101762466520     1.007825032230
         H           -3.741054160288    -0.822484882077    -0.000660466520     1.007825032230
         H           -1.833021160288    -2.542834882077    -0.018287466520     1.007825032230
         H            3.082679839712    -2.012668882077     0.070772533480     1.007825032230
         H            3.662022839712    -0.493582882077     0.503207533480     1.007825032230

  Basis Set: AUG-CC-PVTZ
    Blend: AUG-CC-PVTZ
  Basis Set: (AUG-CC-PVTZ AUX)
    Blend: AUG-CC-PVTZ-JKFIT
	 Reference Energy          =    -539.5871394874468479 [Eh]
	 Singles Energy            =      -0.0000000000000000 [Eh]
	 Same-Spin Energy          =      -0.5727929816815215 [Eh]
	 Opposite-Spin Energy      =      -1.6630520295589748 [Eh]
	 Correlation Energy        =      -2.2358450112404964 [Eh]
	 Total Energy              =    -541.8229844986873331 [Eh]

	 ================> DF-SCS-MP2 Energies <==================
	-----------------------------------------------------------
	 SCS Same-Spin Scale       =       0.3333333333333333 [-]
	 SCS Opposite-Spin Scale   =       1.2000000000000000 [-]
	 SCS Same-Spin Energy      =      -0.1909309938938405 [Eh]
	 SCS Opposite-Spin Energy  =      -1.9956624354707697 [Eh]
	 SCS Correlation Energy    =      -2.1865934293646103 [Eh]
	 SCS Total Energy          =    -541.7737329168114684 [Eh]
	-----------------------------------------------------------

  Dipole Moment: [D]
     X:     2.5922      Y:    -5.5885      Z:     0.8407     Total:     6.2175

*** Psi4 exiting successfully. Buy a developer a beer!
