                               Psi4 1.3.2 release

  ==> Input File <==

--------------------------------------------------------------------------
#psi4
#
memory 32 gb

molecule  {
0 1
  O        0.1763910     2.6970700    -0.0085580
  C        0.2089260     1.4725840     0.0042240
  N        1.4659430     0.7906670    -0.0052000
  C        1.7290818    -0.6362922     0.0031641
  N        0.7040600    -1.4531590     0.0111340
  C       -0.5247500    -0.8567100    -0.0036900
  C       -0.8535700     0.4975280     0.0150930
  N       -2.2178770     0.6874110     0.0132550
  C       -2.7081380    -0.5423290     0.0003530
  N       -1.7302440    -1.5082620    -0.0074590
  N        2.9897270    -0.9822980    -0.0798890
  H        2.2638450     1.4140280    -0.1046570
  H       -3.7608750    -0.7937900    -0.0035550
  H       -1.8528420    -2.5141400    -0.0211820
  H        3.0628590    -1.9839740     0.0678780
  H        3.6422020    -0.4648880     0.5003130
units angstrom
no_reorient  #important for SAPT in psi4, default
symmetry c1  #important for SAPT in psi4, default
}

set PROPERTIES_ORIGIN ["COM"]
properties('MP2/aug-cc-pvtz', properties = ['dipole'])
--------------------------------------------------------------------------

    Molecular point group: c1
  Charge       = 0
  Multiplicity = 1
  Basis Set: AUG-CC-PVTZ
    Blend: AUG-CC-PVTZ
  Basis Set: (AUG-CC-PVTZ AUX)
    Blend: AUG-CC-PVTZ-JKFIT

    Orbital Energies [Eh]
    ---------------------

    Doubly Occupied:

       1A    -20.518996     2A    -15.634831     3A    -15.624265
       4A    -15.619956     5A    -15.571427     6A    -15.562991
       7A    -11.401793     8A    -11.362696     9A    -11.325518
      10A    -11.311692    11A    -11.248486    12A     -1.385930
      13A     -1.357966    14A     -1.342290    15A     -1.237297
      16A     -1.203849    17A     -1.173231    18A     -1.028659
      19A     -0.901094    20A     -0.881907    21A     -0.842097
      22A     -0.799968    23A     -0.753152    24A     -0.724089
      25A     -0.705815    26A     -0.666532    27A     -0.652947
      28A     -0.641272    29A     -0.610285    30A     -0.598221
      31A     -0.595148    32A     -0.552321    33A     -0.490923
      34A     -0.466269    35A     -0.435753    36A     -0.428826
      37A     -0.423509    38A     -0.408891    39A     -0.300426

  @DF-RHF Final Energy:  -539.57539950776061

   => Energetics <=

    Nuclear Repulsion Energy =            592.7237672519697753
    One-Electron Energy =               -1911.0156947360715094
    Two-Electron Energy =                 778.7165279763411263
    Total Energy =                       -539.5753995077606078
  Basis Set: (AUG-CC-PVTZ AUX)
    Blend: AUG-CC-PVTZ-RI
    Molecular point group: c1

    Geometry (in Angstrom), charge = 0, multiplicity = 1:

       Center              X                  Y                   Z               Mass
    ------------   -----------------  -----------------  -----------------  -----------------
         O            0.193685668448     2.674206790419    -0.005781688591    15.994914619570
         C            0.226220668448     1.449720790419     0.007000311409    12.000000000000
         N            1.483237668448     0.767803790419    -0.002423688591    14.003074004430
         C            1.746376468448    -0.659155409581     0.005940411409    12.000000000000
         N            0.721354668448    -1.476022209581     0.013910311409    14.003074004430
         C           -0.507455331552    -0.879573209581    -0.000913688591    12.000000000000
         C           -0.836275331552     0.474664790419     0.017869311409    12.000000000000
         N           -2.200582331552     0.664547790419     0.016031311409    14.003074004430
         C           -2.690843331552    -0.565192209581     0.003129311409    12.000000000000
         N           -1.712949331552    -1.531125209581    -0.004682688591    14.003074004430
         N            3.007021668448    -1.005161209581    -0.077112688591    14.003074004430
         H            2.281139668448     1.391164790419    -0.101880688591     1.007825032230
         H           -3.743580331552    -0.816653209581    -0.000778688591     1.007825032230
         H           -1.835547331552    -2.537003209581    -0.018405688591     1.007825032230
         H            3.080153668448    -2.006837209581     0.070654311409     1.007825032230
         H            3.659496668448    -0.487751209581     0.503089311409     1.007825032230

  Basis Set: AUG-CC-PVTZ
    Blend: AUG-CC-PVTZ
  Basis Set: (AUG-CC-PVTZ AUX)
    Blend: AUG-CC-PVTZ-JKFIT
	 Reference Energy          =    -539.5753995077606078 [Eh]
	 Singles Energy            =      -0.0000000000000000 [Eh]
	 Same-Spin Energy          =      -0.5735896260074800 [Eh]
	 Opposite-Spin Energy      =      -1.6639450551182353 [Eh]
	 Correlation Energy        =      -2.2375346811257151 [Eh]
	 Total Energy              =    -541.8129341888862882 [Eh]

	 ================> DF-SCS-MP2 Energies <==================
	-----------------------------------------------------------
	 SCS Same-Spin Scale       =       0.3333333333333333 [-]
	 SCS Opposite-Spin Scale   =       1.2000000000000000 [-]
	 SCS Same-Spin Energy      =      -0.1911965420024933 [Eh]
	 SCS Opposite-Spin Energy  =      -1.9967340661418822 [Eh]
	 SCS Correlation Energy    =      -2.1879306081443755 [Eh]
	 SCS Total Energy          =    -541.7633301159049779 [Eh]
	-----------------------------------------------------------

  Dipole Moment: [D]
     X:     3.2148      Y:    -6.0429      Z:     0.8368     Total:     6.8958

*** Psi4 exiting successfully. Buy a developer a beer!
