                               Psi4 1.4a3.dev225

  ==> Input File <==

--------------------------------------------------------------------------
#psi4
#
memory 32 gb

molecule  {
0 1
  O        0.1763800     2.6970850    -0.0086780
  C        0.2088860     1.4725900     0.0042210
  N        1.4659360     0.7906750    -0.0050880
  C        1.6696170    -0.5667500     0.0018210
  N        0.7040680    -1.4531450     0.0111020
  C       -0.5247290    -0.8567090    -0.0037110
  C       -0.8535850     0.4975420     0.0152200
  N       -2.2178950     0.6873840     0.0133320
  C       -2.7081200    -0.5423560     0.0003580
  N       -1.7302140    -1.5082770    -0.0075250
  N        2.9897250    -0.9823190    -0.0798750
  H        2.2637990     1.4140370    -0.1048620
  H       -3.7608500    -0.7938460    -0.0035590
  H       -1.8527810    -2.5141570    -0.0214260
  H        3.0592084    -1.9346503     0.0606938
  H        3.6422460    -0.4648460     0.5002060
units angstrom
no_reorient  #important for SAPT in psi4, default
symmetry c1  #important for SAPT in psi4, default
}

set PROPERTIES_ORIGIN ["COM"]
properties('MP2/aug-cc-pvtz', properties = ['dipole'])
--------------------------------------------------------------------------

    Molecular point group: c1
  Charge       = 0
  Multiplicity = 1
  Basis Set: AUG-CC-PVTZ
    Blend: AUG-CC-PVTZ
  Basis Set: (AUG-CC-PVTZ AUX)
    Blend: AUG-CC-PVTZ-JKFIT

    Orbital Energies [Eh]
    ---------------------

    Doubly Occupied:

       1A    -20.524554     2A    -15.636402     3A    -15.632131
       4A    -15.607885     5A    -15.573982     6A    -15.565465
       7A    -11.398854     8A    -11.368167     9A    -11.327817
      10A    -11.314490    11A    -11.251701    12A     -1.393909
      13A     -1.361206    14A     -1.337364    15A     -1.226965
      16A     -1.218715    17A     -1.178466    18A     -1.032381
      19A     -0.907522    20A     -0.887743    21A     -0.845157
      22A     -0.800181    23A     -0.741513    24A     -0.732374
      25A     -0.708013    26A     -0.676202    27A     -0.657027
      28A     -0.634089    29A     -0.615063    30A     -0.601645
      31A     -0.597046    32A     -0.548413    33A     -0.500004
      34A     -0.463527    35A     -0.443394    36A     -0.433406
      37A     -0.432801    38A     -0.412404    39A     -0.303187

  @DF-RHF Final Energy:  -539.58701811610547

   => Energetics <=

    Nuclear Repulsion Energy =            593.9365232316363290
    One-Electron Energy =               -1913.2647535338012403
    Two-Electron Energy =                 779.7412121860594425
    Total Energy =                       -539.5870181161054688
  Basis Set: (AUG-CC-PVTZ AUX)
    Blend: AUG-CC-PVTZ-RI
    Molecular point group: c1

    Geometry (in Angstrom), charge = 0, multiplicity = 1:

       Center              X                  Y                   Z               Mass
    ------------   -----------------  -----------------  -----------------  -----------------
         O            0.198424015168     2.668370806385    -0.005748923575    15.994914619570
         C            0.230930015168     1.443875806385     0.007150076425    12.000000000000
         N            1.487980015168     0.761960806385    -0.002158923575    14.003074004430
         C            1.691661015168    -0.595464193615     0.004750076425    12.000000000000
         N            0.726112015168    -1.481859193615     0.014031076425    14.003074004430
         C           -0.502684984832    -0.885423193615    -0.000781923575    12.000000000000
         C           -0.831540984832     0.468827806385     0.018149076425    12.000000000000
         N           -2.195850984832     0.658669806385     0.016261076425    14.003074004430
         C           -2.686075984832    -0.571070193615     0.003287076425    12.000000000000
         N           -1.708169984832    -1.536991193615    -0.004595923575    14.003074004430
         N            3.011769015168    -1.011033193615    -0.076945923575    14.003074004430
         H            2.285843015168     1.385322806385    -0.101932923575     1.007825032230
         H           -3.738805984832    -0.822560193615    -0.000629923575     1.007825032230
         H           -1.830736984832    -2.542871193615    -0.018496923575     1.007825032230
         H            3.081252415168    -1.963364493615     0.063622876425     1.007825032230
         H            3.664290015168    -0.493560193615     0.503135076425     1.007825032230

  Basis Set: AUG-CC-PVTZ
    Blend: AUG-CC-PVTZ
  Basis Set: (AUG-CC-PVTZ AUX)
    Blend: AUG-CC-PVTZ-JKFIT
	 Reference Energy          =    -539.5870181161054688 [Eh]
	 Singles Energy            =      -0.0000000000000000 [Eh]
	 Same-Spin Energy          =      -0.5727391670304607 [Eh]
	 Opposite-Spin Energy      =      -1.6624140356013828 [Eh]
	 Correlation Energy        =      -2.2351532026318433 [Eh]
	 Total Energy              =    -541.8221713187373325 [Eh]

	 ================> DF-SCS-MP2 Energies <==================
	-----------------------------------------------------------
	 SCS Same-Spin Scale       =       0.3333333333333333 [-]
	 SCS Opposite-Spin Scale   =       1.2000000000000000 [-]
	 SCS Same-Spin Energy      =      -0.1909130556768202 [Eh]
	 SCS Opposite-Spin Energy  =      -1.9948968427216593 [Eh]
	 SCS Correlation Energy    =      -2.1858098983984795 [Eh]
	 SCS Total Energy          =    -541.7728280145039435 [Eh]
	-----------------------------------------------------------

  Dipole Moment: [D]
     X:     2.6537      Y:    -5.5873      Z:     0.8422     Total:     6.2426

*** Psi4 exiting successfully. Buy a developer a beer!
