                               Psi4 1.3.2 release

  ==> Input File <==

--------------------------------------------------------------------------
#psi4
#
memory 32 gb

molecule  {
0 1
  O        0.1763910     2.6970700    -0.0085580
  C        0.2089260     1.4725840     0.0042240
  N        1.4659430     0.7906670    -0.0052000
  C        1.6696020    -0.5667920     0.0018180
  N        0.7040600    -1.4531590     0.0111340
  C       -0.5247500    -0.8567100    -0.0036900
  C       -0.8535700     0.4975280     0.0150930
  N       -2.3491124     0.7319203     0.0134681
  C       -2.7081380    -0.5423290     0.0003530
  N       -1.7302440    -1.5082620    -0.0074590
  N        2.9897270    -0.9822980    -0.0798890
  H        2.2638450     1.4140280    -0.1046570
  H       -3.7608750    -0.7937900    -0.0035550
  H       -1.8528420    -2.5141400    -0.0211820
  H        3.0628590    -1.9839740     0.0678780
  H        3.6422020    -0.4648880     0.5003130
units angstrom
no_reorient  #important for SAPT in psi4, default
symmetry c1  #important for SAPT in psi4, default
}

set PROPERTIES_ORIGIN ["COM"]
properties('MP2/aug-cc-pvtz', properties = ['dipole'])
--------------------------------------------------------------------------

    Molecular point group: c1
  Charge       = 0
  Multiplicity = 1
  Basis Set: AUG-CC-PVTZ
    Blend: AUG-CC-PVTZ
  Basis Set: (AUG-CC-PVTZ AUX)
    Blend: AUG-CC-PVTZ-JKFIT

    Orbital Energies [Eh]
    ---------------------

    Doubly Occupied:

       1A    -20.522126     2A    -15.636670     3A    -15.633207
       4A    -15.615017     5A    -15.580272     6A    -15.577358
       7A    -11.402560     8A    -11.367515     9A    -11.336184
      10A    -11.319861    11A    -11.258267    12A     -1.392177
      13A     -1.356860    14A     -1.333313    15A     -1.222739
      16A     -1.218061    17A     -1.166532    18A     -1.033971
      19A     -0.906653    20A     -0.887373    21A     -0.837010
      22A     -0.800552    23A     -0.738212    24A     -0.727963
      25A     -0.702501    26A     -0.674011    27A     -0.655677
      28A     -0.634170    29A     -0.612592    30A     -0.596813
      31A     -0.570903    32A     -0.547511    33A     -0.503386
      34A     -0.464488    35A     -0.447255    36A     -0.436145
      37A     -0.434154    38A     -0.402861    39A     -0.313171

  @DF-RHF Final Energy:  -539.57149923054237

   => Energetics <=

    Nuclear Repulsion Energy =            589.9218394738218194
    One-Electron Energy =               -1905.2544954103475447
    Two-Electron Energy =                 775.7611567059833533
    Total Energy =                       -539.5714992305423721
  Basis Set: (AUG-CC-PVTZ AUX)
    Blend: AUG-CC-PVTZ-RI
    Molecular point group: c1

    Geometry (in Angstrom), charge = 0, multiplicity = 1:

       Center              X                  Y                   Z               Mass
    ------------   -----------------  -----------------  -----------------  -----------------
         O            0.210577204943     2.664559156419    -0.005694504239    15.994914619570
         C            0.243112204943     1.440073156419     0.007087495761    12.000000000000
         N            1.500129204943     0.758156156419    -0.002336504239    14.003074004430
         C            1.703788204943    -0.599302843581     0.004681495761    12.000000000000
         N            0.738246204943    -1.485669843581     0.013997495761    14.003074004430
         C           -0.490563795057    -0.889220843581    -0.000826504239    12.000000000000
         C           -0.819383795057     0.465017156419     0.017956495761    12.000000000000
         N           -2.314926195057     0.699409456419     0.016331595761    14.003074004430
         C           -2.673951795057    -0.574839843581     0.003216495761    12.000000000000
         N           -1.696057795057    -1.540772843581    -0.004595504239    14.003074004430
         N            3.023913204943    -1.014808843581    -0.077025504239    14.003074004430
         H            2.298031204943     1.381517156419    -0.101793504239     1.007825032230
         H           -3.726688795057    -0.826300843581    -0.000691504239     1.007825032230
         H           -1.818655795057    -2.546650843581    -0.018318504239     1.007825032230
         H            3.097045204943    -2.016484843581     0.070741495761     1.007825032230
         H            3.676388204943    -0.497398843581     0.503176495761     1.007825032230

  Basis Set: AUG-CC-PVTZ
    Blend: AUG-CC-PVTZ
  Basis Set: (AUG-CC-PVTZ AUX)
    Blend: AUG-CC-PVTZ-JKFIT
	 Reference Energy          =    -539.5714992305423721 [Eh]
	 Singles Energy            =      -0.0000000000000000 [Eh]
	 Same-Spin Energy          =      -0.5722026470166977 [Eh]
	 Opposite-Spin Energy      =      -1.6652759599559062 [Eh]
	 Correlation Energy        =      -2.2374786069726040 [Eh]
	 Total Energy              =    -541.8089778375149308 [Eh]

	 ================> DF-SCS-MP2 Energies <==================
	-----------------------------------------------------------
	 SCS Same-Spin Scale       =       0.3333333333333333 [-]
	 SCS Opposite-Spin Scale   =       1.2000000000000000 [-]
	 SCS Same-Spin Energy      =      -0.1907342156722325 [Eh]
	 SCS Opposite-Spin Energy  =      -1.9983311519470872 [Eh]
	 SCS Correlation Energy    =      -2.1890653676193197 [Eh]
	 SCS Total Energy          =    -541.7605645981616362 [Eh]
	-----------------------------------------------------------

  Dipole Moment: [D]
     X:     2.9312      Y:    -5.7300      Z:     0.8418     Total:     6.4910

*** Psi4 exiting successfully. Buy a developer a beer!
