                               Psi4 1.3.2 release

  ==> Input File <==

--------------------------------------------------------------------------
#psi4
#
memory 32 gb

molecule  {
0 1
  O        0.1763910     2.6970700    -0.0085580
  C        0.2089260     1.4725840     0.0042240
  N        1.4659430     0.7906670    -0.0052000
  C        1.6696020    -0.5667920     0.0018180
  N        0.6887767    -1.4362000     0.0125948
  C       -0.5247500    -0.8567100    -0.0036900
  C       -0.8535700     0.4975280     0.0150930
  N       -2.2178770     0.6874110     0.0132550
  C       -2.7081380    -0.5423290     0.0003530
  N       -1.7302440    -1.5082620    -0.0074590
  N        2.9897270    -0.9822980    -0.0798890
  H        2.2638450     1.4140280    -0.1046570
  H       -3.7608750    -0.7937900    -0.0035550
  H       -1.8528420    -2.5141400    -0.0211820
  H        3.0628590    -1.9839740     0.0678780
  H        3.6422020    -0.4648880     0.5003130
units angstrom
no_reorient  #important for SAPT in psi4, default
symmetry c1  #important for SAPT in psi4, default
}

set PROPERTIES_ORIGIN ["COM"]
properties('MP2/aug-cc-pvtz', properties = ['dipole'])
--------------------------------------------------------------------------

    Molecular point group: c1
  Charge       = 0
  Multiplicity = 1
  Basis Set: AUG-CC-PVTZ
    Blend: AUG-CC-PVTZ
  Basis Set: (AUG-CC-PVTZ AUX)
    Blend: AUG-CC-PVTZ-JKFIT

    Orbital Energies [Eh]
    ---------------------

    Doubly Occupied:

       1A    -20.523028     2A    -15.635128     3A    -15.631833
       4A    -15.614079     5A    -15.571633     6A    -15.564447
       7A    -11.399622     8A    -11.367000     9A    -11.325929
      10A    -11.313670    11A    -11.249966    12A     -1.393630
      13A     -1.360933    14A     -1.336073    15A     -1.223451
      16A     -1.219875    17A     -1.177887    18A     -1.030770
      19A     -0.906986    20A     -0.887816    21A     -0.844320
      22A     -0.800489    23A     -0.740091    24A     -0.732054
      25A     -0.701151    26A     -0.673485    27A     -0.657266
      28A     -0.636764    29A     -0.614102    30A     -0.600739
      31A     -0.596401    32A     -0.547982    33A     -0.498454
      34A     -0.464800    35A     -0.441896    36A     -0.433026
      37A     -0.431397    38A     -0.411824    39A     -0.300808

  @DF-RHF Final Energy:  -539.58773995540889

   => Energetics <=

    Nuclear Repulsion Energy =            594.2072215569039599
    One-Electron Energy =               -1913.8683106057660552
    Two-Electron Energy =                 780.0733490934532028
    Total Energy =                       -539.5877399554088925
  Basis Set: (AUG-CC-PVTZ AUX)
    Blend: AUG-CC-PVTZ-RI
    Molecular point group: c1

    Geometry (in Angstrom), charge = 0, multiplicity = 1:

       Center              X                  Y                   Z               Mass
    ------------   -----------------  -----------------  -----------------  -----------------
         O            0.199827835982     2.667113213996    -0.005810172585    15.994914619570
         C            0.232362835982     1.442627213996     0.006971827415    12.000000000000
         N            1.489379835982     0.760710213996    -0.002452172585    14.003074004430
         C            1.693038835982    -0.596748786004     0.004565827415    12.000000000000
         N            0.712213535982    -1.466156786004     0.015342627415    14.003074004430
         C           -0.501313164018    -0.886666786004    -0.000942172585    12.000000000000
         C           -0.830133164018     0.467571213996     0.017840827415    12.000000000000
         N           -2.194440164018     0.657454213996     0.016002827415    14.003074004430
         C           -2.684701164018    -0.572285786004     0.003100827415    12.000000000000
         N           -1.706807164018    -1.538218786004    -0.004711172585    14.003074004430
         N            3.013163835982    -1.012254786004    -0.077141172585    14.003074004430
         H            2.287281835982     1.384071213996    -0.101909172585     1.007825032230
         H           -3.737438164018    -0.823746786004    -0.000807172585     1.007825032230
         H           -1.829405164018    -2.544096786004    -0.018434172585     1.007825032230
         H            3.086295835982    -2.013930786004     0.070625827415     1.007825032230
         H            3.665638835982    -0.494844786004     0.503060827415     1.007825032230

  Basis Set: AUG-CC-PVTZ
    Blend: AUG-CC-PVTZ
  Basis Set: (AUG-CC-PVTZ AUX)
    Blend: AUG-CC-PVTZ-JKFIT
	 Reference Energy          =    -539.5877399554088925 [Eh]
	 Singles Energy            =      -0.0000000000000000 [Eh]
	 Same-Spin Energy          =      -0.5731862296992158 [Eh]
	 Opposite-Spin Energy      =      -1.6629027414153650 [Eh]
	 Correlation Energy        =      -2.2360889711145808 [Eh]
	 Total Energy              =    -541.8238289265234471 [Eh]

	 ================> DF-SCS-MP2 Energies <==================
	-----------------------------------------------------------
	 SCS Same-Spin Scale       =       0.3333333333333333 [-]
	 SCS Opposite-Spin Scale   =       1.2000000000000000 [-]
	 SCS Same-Spin Energy      =      -0.1910620765664053 [Eh]
	 SCS Opposite-Spin Energy  =      -1.9954832896984378 [Eh]
	 SCS Correlation Energy    =      -2.1865453662648431 [Eh]
	 SCS Total Energy          =    -541.7742853216736876 [Eh]
	-----------------------------------------------------------

  Dipole Moment: [D]
     X:     2.7423      Y:    -5.7007      Z:     0.8423     Total:     6.3818

*** Psi4 exiting successfully. Buy a developer a beer!
