                               Psi4 1.3.2 release

  ==> Input File <==

--------------------------------------------------------------------------
#psi4
#
memory 32 gb

molecule  {
0 1
  O        0.1763910     2.6970700    -0.0085580
  C        0.2089260     1.4725840     0.0042240
  N        1.4659430     0.7906670    -0.0052000
  C        1.5716591    -0.4707385    -0.0001141
  N        0.7040600    -1.4531590     0.0111340
  C       -0.5247500    -0.8567100    -0.0036900
  C       -0.8535700     0.4975280     0.0150930
  N       -2.2178770     0.6874110     0.0132550
  C       -2.7081380    -0.5423290     0.0003530
  N       -1.7302440    -1.5082620    -0.0074590
  N        2.9897270    -0.9822980    -0.0798890
  H        2.2638450     1.4140280    -0.1046570
  H       -3.7608750    -0.7937900    -0.0035550
  H       -1.8528420    -2.5141400    -0.0211820
  H        3.0628590    -1.9839740     0.0678780
  H        3.6422020    -0.4648880     0.5003130
units angstrom
no_reorient  #important for SAPT in psi4, default
symmetry c1  #important for SAPT in psi4, default
}

set PROPERTIES_ORIGIN ["COM"]
properties('MP2/aug-cc-pvtz', properties = ['dipole'])
--------------------------------------------------------------------------

    Molecular point group: c1
  Charge       = 0
  Multiplicity = 1
  Basis Set: AUG-CC-PVTZ
    Blend: AUG-CC-PVTZ
  Basis Set: (AUG-CC-PVTZ AUX)
    Blend: AUG-CC-PVTZ-JKFIT

    Orbital Energies [Eh]
    ---------------------

    Doubly Occupied:

       1A    -20.532325     2A    -15.647780     3A    -15.637874
       4A    -15.594610     5A    -15.577431     6A    -15.568475
       7A    -11.395897     8A    -11.375088     9A    -11.331349
      10A    -11.317744    11A    -11.255339    12A     -1.412386
      13A     -1.366068    14A     -1.346399    15A     -1.241158
      16A     -1.187283    17A     -1.180372    18A     -1.034887
      19A     -0.918556    20A     -0.899197    21A     -0.848827
      22A     -0.803001    23A     -0.760111    24A     -0.707647
      25A     -0.693484    26A     -0.676575    27A     -0.665953
      28A     -0.620901    29A     -0.610675    30A     -0.607037
      31A     -0.599114    32A     -0.543164    33A     -0.511246
      34A     -0.454618    35A     -0.448202    36A     -0.442952
      37A     -0.438815    38A     -0.416631    39A     -0.306115

  @DF-RHF Final Energy:  -539.56373165636637

   => Energetics <=

    Nuclear Repulsion Energy =            595.3548961290055104
    One-Electron Energy =               -1915.8866883043933740
    Two-Electron Energy =                 780.9680605190214919
    Total Energy =                       -539.5637316563663717
  Basis Set: (AUG-CC-PVTZ AUX)
    Blend: AUG-CC-PVTZ-RI
    Molecular point group: c1

    Geometry (in Angstrom), charge = 0, multiplicity = 1:

       Center              X                  Y                   Z               Mass
    ------------   -----------------  -----------------  -----------------  -----------------
         O            0.206191989409     2.661054508642    -0.005521254604    15.994914619570
         C            0.238726989409     1.436568508642     0.007260745396    12.000000000000
         N            1.495743989409     0.754651508642    -0.002163254604    14.003074004430
         C            1.601460089409    -0.506753991358     0.002922645396    12.000000000000
         N            0.733860989409    -1.489174491358     0.014170745396    14.003074004430
         C           -0.494949010591    -0.892725491358    -0.000653254604    12.000000000000
         C           -0.823769010591     0.461512508642     0.018129745396    12.000000000000
         N           -2.188076010591     0.651395508642     0.016291745396    14.003074004430
         C           -2.678337010591    -0.578344491358     0.003389745396    12.000000000000
         N           -1.700443010591    -1.544277491358    -0.004422254604    14.003074004430
         N            3.019527989409    -1.018313491358    -0.076852254604    14.003074004430
         H            2.293645989409     1.378012508642    -0.101620254604     1.007825032230
         H           -3.731074010591    -0.829805491358    -0.000518254604     1.007825032230
         H           -1.823041010591    -2.550155491358    -0.018145254604     1.007825032230
         H            3.092659989409    -2.019989491358     0.070914745396     1.007825032230
         H            3.672002989409    -0.500903491358     0.503349745396     1.007825032230

  Basis Set: AUG-CC-PVTZ
    Blend: AUG-CC-PVTZ
  Basis Set: (AUG-CC-PVTZ AUX)
    Blend: AUG-CC-PVTZ-JKFIT
	 Reference Energy          =    -539.5637316563663717 [Eh]
	 Singles Energy            =      -0.0000000000000000 [Eh]
	 Same-Spin Energy          =      -0.5732696424998696 [Eh]
	 Opposite-Spin Energy      =      -1.6643693659096734 [Eh]
	 Correlation Energy        =      -2.2376390084095430 [Eh]
	 Total Energy              =    -541.8013706647759591 [Eh]

	 ================> DF-SCS-MP2 Energies <==================
	-----------------------------------------------------------
	 SCS Same-Spin Scale       =       0.3333333333333333 [-]
	 SCS Opposite-Spin Scale   =       1.2000000000000000 [-]
	 SCS Same-Spin Energy      =      -0.1910898808332898 [Eh]
	 SCS Opposite-Spin Energy  =      -1.9972432390916079 [Eh]
	 SCS Correlation Energy    =      -2.1883331199248977 [Eh]
	 SCS Total Energy          =    -541.7520647762912631 [Eh]
	-----------------------------------------------------------

  Dipole Moment: [D]
     X:     1.8941      Y:    -5.0616      Z:     0.8550     Total:     5.4716

*** Psi4 exiting successfully. Buy a developer a beer!
