                               Psi4 1.3.2 release

  ==> Input File <==

--------------------------------------------------------------------------
#psi4
#
memory 32 gb

molecule  {
0 1
  O        0.1763910     2.6970700    -0.0085580
  C        0.2089260     1.4725840     0.0042240
  N        1.4659430     0.7906670    -0.0052000
  C        1.6547653    -0.4679001     0.0013067
  N        0.7040600    -1.4531590     0.0111340
  C       -0.5247500    -0.8567100    -0.0036900
  C       -0.8535700     0.4975280     0.0150930
  N       -2.2178770     0.6874110     0.0132550
  C       -2.7081380    -0.5423290     0.0003530
  N       -1.7302440    -1.5082620    -0.0074590
  N        2.9897270    -0.9822980    -0.0798890
  H        2.2638450     1.4140280    -0.1046570
  H       -3.7608750    -0.7937900    -0.0035550
  H       -1.8528420    -2.5141400    -0.0211820
  H        3.0628590    -1.9839740     0.0678780
  H        3.6422020    -0.4648880     0.5003130
units angstrom
no_reorient  #important for SAPT in psi4, default
symmetry c1  #important for SAPT in psi4, default
}

set PROPERTIES_ORIGIN ["COM"]
properties('MP2/aug-cc-pvtz', properties = ['dipole'])
--------------------------------------------------------------------------

    Molecular point group: c1
  Charge       = 0
  Multiplicity = 1
  Basis Set: AUG-CC-PVTZ
    Blend: AUG-CC-PVTZ
  Basis Set: (AUG-CC-PVTZ AUX)
    Blend: AUG-CC-PVTZ-JKFIT

    Orbital Energies [Eh]
    ---------------------

    Doubly Occupied:

       1A    -20.529998     2A    -15.647627     3A    -15.633081
       4A    -15.608277     5A    -15.571211     6A    -15.564307
       7A    -11.399542     8A    -11.373976     9A    -11.326493
      10A    -11.313930    11A    -11.249667    12A     -1.407818
      13A     -1.360641    14A     -1.344823    15A     -1.227712
      16A     -1.204347    17A     -1.175958    18A     -1.030464
      19A     -0.917525    20A     -0.895602    21A     -0.843901
      22A     -0.796659    23A     -0.758268    24A     -0.718468
      25A     -0.697961    26A     -0.679331    27A     -0.663580
      28A     -0.618570    29A     -0.614972    30A     -0.603836
      31A     -0.599655    32A     -0.542305    33A     -0.500906
      34A     -0.459027    35A     -0.448965    36A     -0.440784
      37A     -0.433140    38A     -0.411953    39A     -0.297554

  @DF-RHF Final Energy:  -539.57292412122229

   => Energetics <=

    Nuclear Repulsion Energy =            594.3243182422510245
    One-Electron Energy =               -1913.9688252520770675
    Two-Electron Energy =                 780.0715828886038707
    Total Energy =                       -539.5729241212222860
  Basis Set: (AUG-CC-PVTZ AUX)
    Blend: AUG-CC-PVTZ-RI
    Molecular point group: c1

    Geometry (in Angstrom), charge = 0, multiplicity = 1:

       Center              X                  Y                   Z               Mass
    ------------   -----------------  -----------------  -----------------  -----------------
         O            0.199589683573     2.660829014216    -0.005634128928    15.994914619570
         C            0.232124683573     1.436343014216     0.007147871072    12.000000000000
         N            1.489141683573     0.754426014216    -0.002276128928    14.003074004430
         C            1.677963983573    -0.504141085784     0.004230571072    12.000000000000
         N            0.727258683573    -1.489399985784     0.014057871072    14.003074004430
         C           -0.501551316427    -0.892950985784    -0.000766128928    12.000000000000
         C           -0.830371316427     0.461287014216     0.018016871072    12.000000000000
         N           -2.194678316427     0.651170014216     0.016178871072    14.003074004430
         C           -2.684939316427    -0.578569985784     0.003276871072    12.000000000000
         N           -1.707045316427    -1.544502985784    -0.004535128928    14.003074004430
         N            3.012925683573    -1.018538985784    -0.076965128928    14.003074004430
         H            2.287043683573     1.377787014216    -0.101733128928     1.007825032230
         H           -3.737676316427    -0.830030985784    -0.000631128928     1.007825032230
         H           -1.829643316427    -2.550380985784    -0.018258128928     1.007825032230
         H            3.086057683573    -2.020214985784     0.070801871072     1.007825032230
         H            3.665400683573    -0.501128985784     0.503236871072     1.007825032230

  Basis Set: AUG-CC-PVTZ
    Blend: AUG-CC-PVTZ
  Basis Set: (AUG-CC-PVTZ AUX)
    Blend: AUG-CC-PVTZ-JKFIT
	 Reference Energy          =    -539.5729241212222860 [Eh]
	 Singles Energy            =      -0.0000000000000000 [Eh]
	 Same-Spin Energy          =      -0.5734797719874447 [Eh]
	 Opposite-Spin Energy      =      -1.6640578357221294 [Eh]
	 Correlation Energy        =      -2.2375376077095739 [Eh]
	 Total Energy              =    -541.8104617289318412 [Eh]

	 ================> DF-SCS-MP2 Energies <==================
	-----------------------------------------------------------
	 SCS Same-Spin Scale       =       0.3333333333333333 [-]
	 SCS Opposite-Spin Scale   =       1.2000000000000000 [-]
	 SCS Same-Spin Energy      =      -0.1911599239958149 [Eh]
	 SCS Opposite-Spin Energy  =      -1.9968694028665552 [Eh]
	 SCS Correlation Energy    =      -2.1880293268623703 [Eh]
	 SCS Total Energy          =    -541.7609534480847060 [Eh]
	-----------------------------------------------------------

  Dipole Moment: [D]
     X:     2.5921      Y:    -5.1589      Z:     0.8421     Total:     5.8346

*** Psi4 exiting successfully. Buy a developer a beer!
