                               Psi4 1.3.2 release

  ==> Input File <==

--------------------------------------------------------------------------
#psi4
#
memory 32 gb

molecule  {
0 1
  O        0.1763910     2.6970700    -0.0085580
  C        0.2089260     1.4725840     0.0042240
  N        1.4659430     0.7906670    -0.0052000
  C        1.6696020    -0.5667920     0.0018180
  N        0.7040600    -1.4531590     0.0111340
  C       -0.5247500    -0.8567100    -0.0036900
  C       -0.8535700     0.4975280     0.0150930
  N       -2.2178770     0.6874110     0.0132550
  C       -2.7081380    -0.5423290     0.0003530
  N       -1.7302440    -1.5082620    -0.0074590
  N        2.9897270    -0.9822980    -0.0798890
  H        2.2638450     1.4140280    -0.1046570
  H       -3.8581381    -0.8170227    -0.0039161
  H       -1.8528420    -2.5141400    -0.0211820
  H        3.0628590    -1.9839740     0.0678780
  H        3.6422020    -0.4648880     0.5003130
units angstrom
no_reorient  #important for SAPT in psi4, default
symmetry c1  #important for SAPT in psi4, default
}

set PROPERTIES_ORIGIN ["COM"]
properties('MP2/aug-cc-pvtz', properties = ['dipole'])
--------------------------------------------------------------------------

    Molecular point group: c1
  Charge       = 0
  Multiplicity = 1
  Basis Set: AUG-CC-PVTZ
    Blend: AUG-CC-PVTZ
  Basis Set: (AUG-CC-PVTZ AUX)
    Blend: AUG-CC-PVTZ-JKFIT

    Orbital Energies [Eh]
    ---------------------

    Doubly Occupied:

       1A    -20.524530     2A    -15.637062     3A    -15.632164
       4A    -15.612488     5A    -15.573826     6A    -15.565844
       7A    -11.398758     8A    -11.368241     9A    -11.327940
      10A    -11.324634    11A    -11.251996    12A     -1.393756
      13A     -1.361277    14A     -1.336054    15A     -1.220919
      16A     -1.218500    17A     -1.178803    18A     -1.029610
      19A     -0.904592    20A     -0.884528    21A     -0.842000
      22A     -0.795707    23A     -0.739949    24A     -0.726566
      25A     -0.698525    26A     -0.673322    27A     -0.655858
      28A     -0.631735    29A     -0.614373    30A     -0.598693
      31A     -0.586820    32A     -0.548078    33A     -0.499775
      34A     -0.462741    35A     -0.443012    36A     -0.433256
      37A     -0.432806    38A     -0.412727    39A     -0.303079

  @DF-RHF Final Energy:  -539.57989599502855

   => Energetics <=

    Nuclear Repulsion Energy =            593.1333158141244439
    One-Electron Energy =               -1911.7373290175573857
    Two-Electron Energy =                 779.0241172084043910
    Total Energy =                       -539.5798959950285507
  Basis Set: (AUG-CC-PVTZ AUX)
    Blend: AUG-CC-PVTZ-RI
    Molecular point group: c1

    Geometry (in Angstrom), charge = 0, multiplicity = 1:

       Center              X                  Y                   Z               Mass
    ------------   -----------------  -----------------  -----------------  -----------------
         O            0.199059948215     2.668840414579    -0.005672339434    15.994914619570
         C            0.231594948215     1.444354414579     0.007109660566    12.000000000000
         N            1.488611948215     0.762437414579    -0.002314339434    14.003074004430
         C            1.692270948215    -0.595021585421     0.004703660566    12.000000000000
         N            0.726728948215    -1.481388585421     0.014019660566    14.003074004430
         C           -0.502081051785    -0.884939585421    -0.000804339434    12.000000000000
         C           -0.830901051785     0.469298414579     0.017978660566    12.000000000000
         N           -2.195208051785     0.659181414579     0.016140660566    14.003074004430
         C           -2.685469051785    -0.570558585421     0.003238660566    12.000000000000
         N           -1.707575051785    -1.536491585421    -0.004573339434    14.003074004430
         N            3.012395948215    -1.010527585421    -0.077003339434    14.003074004430
         H            2.286513948215     1.385798414579    -0.101771339434     1.007825032230
         H           -3.835469151785    -0.845252285421    -0.001030439434     1.007825032230
         H           -1.830173051785    -2.542369585421    -0.018296339434     1.007825032230
         H            3.085527948215    -2.012203585421     0.070763660566     1.007825032230
         H            3.664870948215    -0.493117585421     0.503198660566     1.007825032230

  Basis Set: AUG-CC-PVTZ
    Blend: AUG-CC-PVTZ
  Basis Set: (AUG-CC-PVTZ AUX)
    Blend: AUG-CC-PVTZ-JKFIT
	 Reference Energy          =    -539.5798959950285507 [Eh]
	 Singles Energy            =      -0.0000000000000000 [Eh]
	 Same-Spin Energy          =      -0.5733075532455894 [Eh]
	 Opposite-Spin Energy      =      -1.6640860904666237 [Eh]
	 Correlation Energy        =      -2.2373936437122133 [Eh]
	 Total Energy              =    -541.8172896387408173 [Eh]

	 ================> DF-SCS-MP2 Energies <==================
	-----------------------------------------------------------
	 SCS Same-Spin Scale       =       0.3333333333333333 [-]
	 SCS Opposite-Spin Scale   =       1.2000000000000000 [-]
	 SCS Same-Spin Energy      =      -0.1911025177485298 [Eh]
	 SCS Opposite-Spin Energy  =      -1.9969033085599484 [Eh]
	 SCS Correlation Energy    =      -2.1880058263084781 [Eh]
	 SCS Total Energy          =    -541.7679018213369773 [Eh]
	-----------------------------------------------------------

  Dipole Moment: [D]
     X:     2.6658      Y:    -5.6247      Z:     0.8440     Total:     6.2814

*** Psi4 exiting successfully. Buy a developer a beer!
