                               Psi4 1.3.2 release

  ==> Input File <==

--------------------------------------------------------------------------
#psi4
#
memory 32 gb

molecule  {
0 1
  O        0.1763910     2.6970700    -0.0085580
  C        0.2210164     1.4944181     0.0039388
  N        1.4659430     0.7906670    -0.0052000
  C        1.6696020    -0.5667920     0.0018180
  N        0.7040600    -1.4531590     0.0111340
  C       -0.5247500    -0.8567100    -0.0036900
  C       -0.8535700     0.4975280     0.0150930
  N       -2.2178770     0.6874110     0.0132550
  C       -2.7081380    -0.5423290     0.0003530
  N       -1.7302440    -1.5082620    -0.0074590
  N        2.9897270    -0.9822980    -0.0798890
  H        2.2638450     1.4140280    -0.1046570
  H       -3.7608750    -0.7937900    -0.0035550
  H       -1.8528420    -2.5141400    -0.0211820
  H        3.0628590    -1.9839740     0.0678780
  H        3.6422020    -0.4648880     0.5003130
units angstrom
no_reorient  #important for SAPT in psi4, default
symmetry c1  #important for SAPT in psi4, default
}

set PROPERTIES_ORIGIN ["COM"]
properties('MP2/aug-cc-pvtz', properties = ['dipole'])
--------------------------------------------------------------------------

    Molecular point group: c1
  Charge       = 0
  Multiplicity = 1
  Basis Set: AUG-CC-PVTZ
    Blend: AUG-CC-PVTZ
  Basis Set: (AUG-CC-PVTZ AUX)
    Blend: AUG-CC-PVTZ-JKFIT

    Orbital Energies [Eh]
    ---------------------

    Doubly Occupied:

       1A    -20.529758     2A    -15.634307     3A    -15.630758
       4A    -15.611560     5A    -15.571892     6A    -15.563631
       7A    -11.397662     8A    -11.368886     9A    -11.324235
      10A    -11.312095    11A    -11.251044    12A     -1.403005
      13A     -1.364007    14A     -1.336524    15A     -1.221132
      16A     -1.217146    17A     -1.176205    18A     -1.026529
      19A     -0.902973    20A     -0.884792    21A     -0.842931
      22A     -0.798219    23A     -0.737781    24A     -0.728897
      25A     -0.700431    26A     -0.672863    27A     -0.655269
      28A     -0.633238    29A     -0.622412    30A     -0.600113
      31A     -0.595738    32A     -0.553192    33A     -0.498276
      34A     -0.462009    35A     -0.445538    36A     -0.434863
      37A     -0.432305    38A     -0.410596    39A     -0.300697

  @DF-RHF Final Energy:  -539.58811775606557

   => Energetics <=

    Nuclear Repulsion Energy =            593.5035450514827744
    One-Electron Energy =               -1912.4763090487083446
    Two-Electron Energy =                 779.3846462411601124
    Total Energy =                       -539.5881177560655715
  Basis Set: (AUG-CC-PVTZ AUX)
    Blend: AUG-CC-PVTZ-RI
    Molecular point group: c1

    Geometry (in Angstrom), charge = 0, multiplicity = 1:

       Center              X                  Y                   Z               Mass
    ------------   -----------------  -----------------  -----------------  -----------------
         O            0.197450481570     2.666950809734    -0.005652091263    15.994914619570
         C            0.242075881570     1.464298909734     0.006844708737    12.000000000000
         N            1.487002481570     0.760547809734    -0.002294091263    14.003074004430
         C            1.690661481570    -0.596911190266     0.004723908737    12.000000000000
         N            0.725119481570    -1.483278190266     0.014039908737    14.003074004430
         C           -0.503690518430    -0.886829190266    -0.000784091263    12.000000000000
         C           -0.832510518430     0.467408809734     0.017998908737    12.000000000000
         N           -2.196817518430     0.657291809734     0.016160908737    14.003074004430
         C           -2.687078518430    -0.572448190266     0.003258908737    12.000000000000
         N           -1.709184518430    -1.538381190266    -0.004553091263    14.003074004430
         N            3.010786481570    -1.012417190266    -0.076983091263    14.003074004430
         H            2.284904481570     1.383908809734    -0.101751091263     1.007825032230
         H           -3.739815518430    -0.823909190266    -0.000649091263     1.007825032230
         H           -1.831782518430    -2.544259190266    -0.018276091263     1.007825032230
         H            3.083918481570    -2.014093190266     0.070783908737     1.007825032230
         H            3.663261481570    -0.495007190266     0.503218908737     1.007825032230

  Basis Set: AUG-CC-PVTZ
    Blend: AUG-CC-PVTZ
  Basis Set: (AUG-CC-PVTZ AUX)
    Blend: AUG-CC-PVTZ-JKFIT
	 Reference Energy          =    -539.5881177560655715 [Eh]
	 Singles Energy            =      -0.0000000000000000 [Eh]
	 Same-Spin Energy          =      -0.5725778581704442 [Eh]
	 Opposite-Spin Energy      =      -1.6623835687907145 [Eh]
	 Correlation Energy        =      -2.2349614269611586 [Eh]
	 Total Energy              =    -541.8230791830267208 [Eh]

	 ================> DF-SCS-MP2 Energies <==================
	-----------------------------------------------------------
	 SCS Same-Spin Scale       =       0.3333333333333333 [-]
	 SCS Opposite-Spin Scale   =       1.2000000000000000 [-]
	 SCS Same-Spin Energy      =      -0.1908592860568147 [Eh]
	 SCS Opposite-Spin Energy  =      -1.9948602825488573 [Eh]
	 SCS Correlation Energy    =      -2.1857195686056721 [Eh]
	 SCS Total Energy          =    -541.7738373246712626 [Eh]
	-----------------------------------------------------------

  Dipole Moment: [D]
     X:     2.7210      Y:    -5.4144      Z:     0.8433     Total:     6.1180

*** Psi4 exiting successfully. Buy a developer a beer!
