                               Psi4 1.3.2 release

  ==> Input File <==

--------------------------------------------------------------------------
#psi4
#
memory 32 gb

molecule  {
0 1
  O        0.1763910     2.6970700    -0.0085580
  C        0.2089260     1.4725840     0.0042240
  N        1.4659430     0.7906670    -0.0052000
  C        1.6696020    -0.5667920     0.0018180
  N        0.7426362    -1.3660016     0.0136157
  C       -0.5247500    -0.8567100    -0.0036900
  C       -0.8535700     0.4975280     0.0150930
  N       -2.2178770     0.6874110     0.0132550
  C       -2.7081380    -0.5423290     0.0003530
  N       -1.7302440    -1.5082620    -0.0074590
  N        2.9897270    -0.9822980    -0.0798890
  H        2.2638450     1.4140280    -0.1046570
  H       -3.7608750    -0.7937900    -0.0035550
  H       -1.8528420    -2.5141400    -0.0211820
  H        3.0628590    -1.9839740     0.0678780
  H        3.6422020    -0.4648880     0.5003130
units angstrom
no_reorient  #important for SAPT in psi4, default
symmetry c1  #important for SAPT in psi4, default
}

set PROPERTIES_ORIGIN ["COM"]
properties('MP2/aug-cc-pvtz', properties = ['dipole'])
--------------------------------------------------------------------------

    Molecular point group: c1
  Charge       = 0
  Multiplicity = 1
  Basis Set: AUG-CC-PVTZ
    Blend: AUG-CC-PVTZ
  Basis Set: (AUG-CC-PVTZ AUX)
    Blend: AUG-CC-PVTZ-JKFIT

    Orbital Energies [Eh]
    ---------------------

    Doubly Occupied:

       1A    -20.523191     2A    -15.642974     3A    -15.620926
       4A    -15.603371     5A    -15.567974     6A    -15.562964
       7A    -11.379405     8A    -11.366841     9A    -11.330846
      10A    -11.317713    11A    -11.254181    12A     -1.396823
      13A     -1.363825    14A     -1.344037    15A     -1.222897
      16A     -1.214873    17A     -1.183888    18A     -1.038571
      19A     -0.910295    20A     -0.881661    21A     -0.847872
      22A     -0.807114    23A     -0.737540    24A     -0.733071
      25A     -0.697717    26A     -0.672677    27A     -0.660621
      28A     -0.644450    29A     -0.614613    30A     -0.602806
      31A     -0.599707    32A     -0.549917    33A     -0.494394
      34A     -0.462069    35A     -0.439108    36A     -0.431727
      37A     -0.428837    38A     -0.415426    39A     -0.309724

  @DF-RHF Final Energy:  -539.58302654509600

   => Energetics <=

    Nuclear Repulsion Energy =            595.9349190484352903
    One-Electron Energy =               -1917.2826035673108436
    Two-Electron Energy =                 781.7646579737796628
    Total Energy =                       -539.5830265450960042
  Basis Set: (AUG-CC-PVTZ AUX)
    Blend: AUG-CC-PVTZ-RI
    Molecular point group: c1

    Geometry (in Angstrom), charge = 0, multiplicity = 1:

       Center              X                  Y                   Z               Mass
    ------------   -----------------  -----------------  -----------------  -----------------
         O            0.194834777318     2.660605453447    -0.005904815380    15.994914619570
         C            0.227369777318     1.436119453447     0.006877184620    12.000000000000
         N            1.484386777318     0.754202453447    -0.002546815380    14.003074004430
         C            1.688045777318    -0.603256546553     0.004471184620    12.000000000000
         N            0.761079977318    -1.402466146553     0.016268884620    14.003074004430
         C           -0.506306222682    -0.893174546553    -0.001036815380    12.000000000000
         C           -0.835126222682     0.461063453447     0.017746184620    12.000000000000
         N           -2.199433222682     0.650946453447     0.015908184620    14.003074004430
         C           -2.689694222682    -0.578793546553     0.003006184620    12.000000000000
         N           -1.711800222682    -1.544726546553    -0.004805815380    14.003074004430
         N            3.008170777318    -1.018762546553    -0.077235815380    14.003074004430
         H            2.282288777318     1.377563453447    -0.102003815380     1.007825032230
         H           -3.742431222682    -0.830254546553    -0.000901815380     1.007825032230
         H           -1.834398222682    -2.550604546553    -0.018528815380     1.007825032230
         H            3.081302777318    -2.020438546553     0.070531184620     1.007825032230
         H            3.660645777318    -0.501352546553     0.502966184620     1.007825032230

  Basis Set: AUG-CC-PVTZ
    Blend: AUG-CC-PVTZ
  Basis Set: (AUG-CC-PVTZ AUX)
    Blend: AUG-CC-PVTZ-JKFIT
	 Reference Energy          =    -539.5830265450960042 [Eh]
	 Singles Energy            =      -0.0000000000000000 [Eh]
	 Same-Spin Energy          =      -0.5721742623065393 [Eh]
	 Opposite-Spin Energy      =      -1.6608114607069737 [Eh]
	 Correlation Energy        =      -2.2329857230135133 [Eh]
	 Total Energy              =    -541.8160122681094890 [Eh]

	 ================> DF-SCS-MP2 Energies <==================
	-----------------------------------------------------------
	 SCS Same-Spin Scale       =       0.3333333333333333 [-]
	 SCS Opposite-Spin Scale   =       1.2000000000000000 [-]
	 SCS Same-Spin Energy      =      -0.1907247541021798 [Eh]
	 SCS Opposite-Spin Energy  =      -1.9929737528483684 [Eh]
	 SCS Correlation Energy    =      -2.1836985069505483 [Eh]
	 SCS Total Energy          =    -541.7667250520465814 [Eh]
	-----------------------------------------------------------

  Dipole Moment: [D]
     X:     2.2849      Y:    -5.8674      Z:     0.8511     Total:     6.3539

*** Psi4 exiting successfully. Buy a developer a beer!
