                               Psi4 1.3.2 release

  ==> Input File <==

--------------------------------------------------------------------------
#psi4
#
memory 32 gb

molecule  {
0 1
  O        0.1763910     2.6970700    -0.0085580
  C        0.2089260     1.4725840     0.0042240
  N        1.4659430     0.7906670    -0.0052000
  C        1.6696020    -0.5667920     0.0018180
  N        0.7040600    -1.4531590     0.0111340
  C       -0.5247500    -0.8567100    -0.0036900
  C       -0.8535700     0.4975280     0.0150930
  N       -2.1188318     0.6736260     0.0133884
  C       -2.7081380    -0.5423290     0.0003530
  N       -1.7302440    -1.5082620    -0.0074590
  N        2.9897270    -0.9822980    -0.0798890
  H        2.2638450     1.4140280    -0.1046570
  H       -3.7608750    -0.7937900    -0.0035550
  H       -1.8528420    -2.5141400    -0.0211820
  H        3.0628590    -1.9839740     0.0678780
  H        3.6422020    -0.4648880     0.5003130
units angstrom
no_reorient  #important for SAPT in psi4, default
symmetry c1  #important for SAPT in psi4, default
}

set PROPERTIES_ORIGIN ["COM"]
properties('MP2/aug-cc-pvtz', properties = ['dipole'])
--------------------------------------------------------------------------

    Molecular point group: c1
  Charge       = 0
  Multiplicity = 1
  Basis Set: AUG-CC-PVTZ
    Blend: AUG-CC-PVTZ
  Basis Set: (AUG-CC-PVTZ AUX)
    Blend: AUG-CC-PVTZ-JKFIT

    Orbital Energies [Eh]
    ---------------------

    Doubly Occupied:

       1A    -20.527266     2A    -15.639325     3A    -15.630942
       4A    -15.610066     5A    -15.570772     6A    -15.556932
       7A    -11.394973     8A    -11.368107     9A    -11.320017
      10A    -11.313046    11A    -11.245663    12A     -1.395855
      13A     -1.365584    14A     -1.336729    15A     -1.220754
      16A     -1.218463    17A     -1.188777    18A     -1.025938
      19A     -0.908248    20A     -0.884341    21A     -0.855031
      22A     -0.797418    23A     -0.740511    24A     -0.729957
      25A     -0.699404    26A     -0.673570    27A     -0.657591
      28A     -0.633446    29A     -0.618663    30A     -0.614197
      31A     -0.597844    32A     -0.548655    33A     -0.498741
      34A     -0.461060    35A     -0.445728    36A     -0.432017
      37A     -0.423600    38A     -0.421347    39A     -0.291342

  @DF-RHF Final Energy:  -539.57605191184484

   => Energetics <=

    Nuclear Repulsion Energy =            596.2190692622209554
    One-Electron Energy =               -1917.8663986224080418
    Two-Electron Energy =                 782.0712774483422436
    Total Energy =                       -539.5760519118448428
  Basis Set: (AUG-CC-PVTZ AUX)
    Blend: AUG-CC-PVTZ-RI
    Molecular point group: c1

    Geometry (in Angstrom), charge = 0, multiplicity = 1:

       Center              X                  Y                   Z               Mass
    ------------   -----------------  -----------------  -----------------  -----------------
         O            0.189228983273     2.669963344346    -0.005687115630    15.994914619570
         C            0.221763983273     1.445477344346     0.007094884370    12.000000000000
         N            1.478780983273     0.763560344346    -0.002329115630    14.003074004430
         C            1.682439983273    -0.593898655654     0.004688884370    12.000000000000
         N            0.716897983273    -1.480265655654     0.014004884370    14.003074004430
         C           -0.511912016727    -0.883816655654    -0.000819115630    12.000000000000
         C           -0.840732016727     0.470421344346     0.017963884370    12.000000000000
         N           -2.105993816727     0.646519344346     0.016259284370    14.003074004430
         C           -2.695300016727    -0.569435655654     0.003223884370    12.000000000000
         N           -1.717406016727    -1.535368655654    -0.004588115630    14.003074004430
         N            3.002564983273    -1.009404655654    -0.077018115630    14.003074004430
         H            2.276682983273     1.386921344346    -0.101786115630     1.007825032230
         H           -3.748037016727    -0.820896655654    -0.000684115630     1.007825032230
         H           -1.840004016727    -2.541246655654    -0.018311115630     1.007825032230
         H            3.075696983273    -2.011080655654     0.070748884370     1.007825032230
         H            3.655039983273    -0.491994655654     0.503183884370     1.007825032230

  Basis Set: AUG-CC-PVTZ
    Blend: AUG-CC-PVTZ
  Basis Set: (AUG-CC-PVTZ AUX)
    Blend: AUG-CC-PVTZ-JKFIT
	 Reference Energy          =    -539.5760519118448428 [Eh]
	 Singles Energy            =      -0.0000000000000000 [Eh]
	 Same-Spin Energy          =      -0.5750462144284230 [Eh]
	 Opposite-Spin Energy      =      -1.6646383879967810 [Eh]
	 Correlation Energy        =      -2.2396846024252040 [Eh]
	 Total Energy              =    -541.8157365142700428 [Eh]

	 ================> DF-SCS-MP2 Energies <==================
	-----------------------------------------------------------
	 SCS Same-Spin Scale       =       0.3333333333333333 [-]
	 SCS Opposite-Spin Scale   =       1.2000000000000000 [-]
	 SCS Same-Spin Energy      =      -0.1916820714761410 [Eh]
	 SCS Opposite-Spin Energy  =      -1.9975660655961371 [Eh]
	 SCS Correlation Energy    =      -2.1892481370722781 [Eh]
	 SCS Total Energy          =    -541.7653000489170836 [Eh]
	-----------------------------------------------------------

  Dipole Moment: [D]
     X:     2.4463      Y:    -5.5676      Z:     0.8459     Total:     6.1398

*** Psi4 exiting successfully. Buy a developer a beer!
