                               Psi4 1.3.2 release

  ==> Input File <==

--------------------------------------------------------------------------
#psi4
#
memory 32 gb

molecule  {
0 1
  O        0.1763910     2.6970700    -0.0085580
  C        0.2089260     1.4725840     0.0042240
  N        1.4659430     0.7906670    -0.0052000
  C        1.6696020    -0.5667920     0.0018180
  N        0.7040600    -1.4531590     0.0111340
  C       -0.5247500    -0.8567100    -0.0036900
  C       -0.8535700     0.4975280     0.0150930
  N       -2.2178770     0.6874110     0.0132550
  C       -2.7081380    -0.5423290     0.0003530
  N       -1.7302440    -1.5082620    -0.0074590
  N        2.9897270    -0.9822980    -0.0798890
  H        2.2638450     1.4140280    -0.1046570
  H       -3.7608750    -0.7937900    -0.0035550
  H       -1.8528420    -2.5141400    -0.0211820
  H        3.0556550    -1.8853017     0.0533219
  H        3.6422020    -0.4648880     0.5003130
units angstrom
no_reorient  #important for SAPT in psi4, default
symmetry c1  #important for SAPT in psi4, default
}

set PROPERTIES_ORIGIN ["COM"]
properties('MP2/aug-cc-pvtz', properties = ['dipole'])
--------------------------------------------------------------------------

    Molecular point group: c1
  Charge       = 0
  Multiplicity = 1
  Basis Set: AUG-CC-PVTZ
    Blend: AUG-CC-PVTZ
  Basis Set: (AUG-CC-PVTZ AUX)
    Blend: AUG-CC-PVTZ-JKFIT

    Orbital Energies [Eh]
    ---------------------

    Doubly Occupied:

       1A    -20.524701     2A    -15.636572     3A    -15.632283
       4A    -15.603015     5A    -15.574371     6A    -15.565620
       7A    -11.399114     8A    -11.368312     9A    -11.328035
      10A    -11.314667    11A    -11.251933    12A     -1.394321
      13A     -1.361476    14A     -1.339227    15A     -1.234152
      16A     -1.218971    17A     -1.178662    18A     -1.033507
      19A     -0.908370    20A     -0.890510    21A     -0.845327
      22A     -0.801339    23A     -0.744022    24A     -0.734820
      25A     -0.714611    26A     -0.678052    27A     -0.657512
      28A     -0.634384    29A     -0.615410    30A     -0.601842
      31A     -0.597391    32A     -0.548899    33A     -0.500208
      34A     -0.464519    35A     -0.443553    36A     -0.433651
      37A     -0.432986    38A     -0.412567    39A     -0.303465

  @DF-RHF Final Energy:  -539.58080988642143

   => Energetics <=

    Nuclear Repulsion Energy =            594.2398436303124072
    One-Electron Energy =               -1913.7965550104868271
    Two-Electron Energy =                 779.9759014937529855
    Total Energy =                       -539.5808098864214344
  Basis Set: (AUG-CC-PVTZ AUX)
    Blend: AUG-CC-PVTZ-RI
    Molecular point group: c1

    Geometry (in Angstrom), charge = 0, multiplicity = 1:

       Center              X                  Y                   Z               Mass
    ------------   -----------------  -----------------  -----------------  -----------------
         O            0.198459059966     2.668027045559    -0.005577628198    15.994914619570
         C            0.230994059966     1.443541045559     0.007204371802    12.000000000000
         N            1.488011059966     0.761624045559    -0.002219628198    14.003074004430
         C            1.691670059966    -0.595834954441     0.004798371802    12.000000000000
         N            0.726128059966    -1.482201954441     0.014114371802    14.003074004430
         C           -0.502681940034    -0.885752954441    -0.000709628198    12.000000000000
         C           -0.831501940034     0.468485045559     0.018073371802    12.000000000000
         N           -2.195808940034     0.658368045559     0.016235371802    14.003074004430
         C           -2.686069940034    -0.571371954441     0.003333371802    12.000000000000
         N           -1.708175940034    -1.537304954441    -0.004478628198    14.003074004430
         N            3.011795059966    -1.011340954441    -0.076908628198    14.003074004430
         H            2.285913059966     1.384985045559    -0.101676628198     1.007825032230
         H           -3.738806940034    -0.822832954441    -0.000574628198     1.007825032230
         H           -1.830773940034    -2.543182954441    -0.018201628198     1.007825032230
         H            3.077723059966    -1.914344654441     0.056302271802     1.007825032230
         H            3.664270059966    -0.493930954441     0.503293371802     1.007825032230

  Basis Set: AUG-CC-PVTZ
    Blend: AUG-CC-PVTZ
  Basis Set: (AUG-CC-PVTZ AUX)
    Blend: AUG-CC-PVTZ-JKFIT
	 Reference Energy          =    -539.5808098864214344 [Eh]
	 Singles Energy            =      -0.0000000000000000 [Eh]
	 Same-Spin Energy          =      -0.5724648286791079 [Eh]
	 Opposite-Spin Energy      =      -1.6617189993086114 [Eh]
	 Correlation Energy        =      -2.2341838279877191 [Eh]
	 Total Energy              =    -541.8149937144091837 [Eh]

	 ================> DF-SCS-MP2 Energies <==================
	-----------------------------------------------------------
	 SCS Same-Spin Scale       =       0.3333333333333333 [-]
	 SCS Opposite-Spin Scale   =       1.2000000000000000 [-]
	 SCS Same-Spin Energy      =      -0.1908216095597026 [Eh]
	 SCS Opposite-Spin Energy  =      -1.9940627991703337 [Eh]
	 SCS Correlation Energy    =      -2.1848844087300363 [Eh]
	 SCS Total Energy          =    -541.7656942951514338 [Eh]
	-----------------------------------------------------------

  Dipole Moment: [D]
     X:     2.6371      Y:    -5.5405      Z:     0.8421     Total:     6.1936

*** Psi4 exiting successfully. Buy a developer a beer!
