                               Psi4 1.4a3.dev225

  ==> Input File <==

--------------------------------------------------------------------------
#psi4
#
memory 32 gb

molecule  {
0 1
  O        0.1763800     2.6970850    -0.0086780
  C        0.2088860     1.4725900     0.0042210
  N        1.4659360     0.7906750    -0.0050880
  C        1.6696170    -0.5667500     0.0018210
  N        0.7040680    -1.4531450     0.0111020
  C       -0.5247290    -0.8567090    -0.0037110
  C       -0.8535850     0.4975420     0.0152200
  N       -2.2178950     0.6873840     0.0133320
  C       -2.7081200    -0.5423560     0.0003580
  N       -1.7302140    -1.5082770    -0.0075250
  N        2.9897250    -0.9823190    -0.0798750
  H        2.2637990     1.4140370    -0.1048620
  H       -3.7608500    -0.7938460    -0.0035590
  H       -1.8503621    -2.4943057    -0.0211517
  H        3.0628080    -1.9839860     0.0679760
  H        3.6422460    -0.4648460     0.5002060
units angstrom
no_reorient  #important for SAPT in psi4, default
symmetry c1  #important for SAPT in psi4, default
}

set PROPERTIES_ORIGIN ["COM"]
properties('MP2/aug-cc-pvtz', properties = ['dipole'])
--------------------------------------------------------------------------

    Molecular point group: c1
  Charge       = 0
  Multiplicity = 1
  Basis Set: AUG-CC-PVTZ
    Blend: AUG-CC-PVTZ
  Basis Set: (AUG-CC-PVTZ AUX)
    Blend: AUG-CC-PVTZ-JKFIT

    Orbital Energies [Eh]
    ---------------------

    Doubly Occupied:

       1A    -20.524527     2A    -15.634578     3A    -15.632115
       4A    -15.612475     5A    -15.573732     6A    -15.565494
       7A    -11.398734     8A    -11.368141     9A    -11.327756
      10A    -11.314482    11A    -11.251598    12A     -1.393767
      13A     -1.361684    14A     -1.336199    15A     -1.220929
      16A     -1.218535    17A     -1.180128    18A     -1.031588
      19A     -0.907513    20A     -0.885450    21A     -0.849053
      22A     -0.799814    23A     -0.740538    24A     -0.730492
      25A     -0.701501    26A     -0.674436    27A     -0.656557
      28A     -0.633985    29A     -0.615071    30A     -0.601697
      31A     -0.596958    32A     -0.548048    33A     -0.500013
      34A     -0.462682    35A     -0.443403    36A     -0.433315
      37A     -0.432746    38A     -0.412649    39A     -0.303060

  @DF-RHF Final Energy:  -539.58805347897749

   => Energetics <=

    Nuclear Repulsion Energy =            593.7834294902388592
    One-Electron Energy =               -1912.9920758913031023
    Two-Electron Energy =                 779.6205929220867574
    Total Energy =                       -539.5880534789774856
  Basis Set: (AUG-CC-PVTZ AUX)
    Blend: AUG-CC-PVTZ-RI
    Molecular point group: c1

    Geometry (in Angstrom), charge = 0, multiplicity = 1:

       Center              X                  Y                   Z               Mass
    ------------   -----------------  -----------------  -----------------  -----------------
         O            0.198383858805     2.668567530864    -0.005799341712    15.994914619570
         C            0.230889858805     1.444072530864     0.007099658288    12.000000000000
         N            1.487939858805     0.762157530864    -0.002209341712    14.003074004430
         C            1.691620858805    -0.595267469136     0.004699658288    12.000000000000
         N            0.726071858805    -1.481662469136     0.013980658288    14.003074004430
         C           -0.502725141195    -0.885226469136    -0.000832341712    12.000000000000
         C           -0.831581141195     0.469024530864     0.018098658288    12.000000000000
         N           -2.195891141195     0.658866530864     0.016210658288    14.003074004430
         C           -2.686116141195    -0.570873469136     0.003236658288    12.000000000000
         N           -1.708210141195    -1.536794469136    -0.004646341712    14.003074004430
         N            3.011728858805    -1.010836469136    -0.076996341712    14.003074004430
         H            2.285802858805     1.385519530864    -0.101983341712     1.007825032230
         H           -3.738846141195    -0.822363469136    -0.000680341712     1.007825032230
         H           -1.828358241195    -2.522823169136    -0.018273041712     1.007825032230
         H            3.084811858805    -2.012503469136     0.070854658288     1.007825032230
         H            3.664249858805    -0.493363469136     0.503084658288     1.007825032230

  Basis Set: AUG-CC-PVTZ
    Blend: AUG-CC-PVTZ
  Basis Set: (AUG-CC-PVTZ AUX)
    Blend: AUG-CC-PVTZ-JKFIT
	 Reference Energy          =    -539.5880534789774856 [Eh]
	 Singles Energy            =      -0.0000000000000000 [Eh]
	 Same-Spin Energy          =      -0.5728633071899285 [Eh]
	 Opposite-Spin Energy      =      -1.6628387386147367 [Eh]
	 Correlation Energy        =      -2.2357020458046653 [Eh]
	 Total Energy              =    -541.8237555247822002 [Eh]

	 ================> DF-SCS-MP2 Energies <==================
	-----------------------------------------------------------
	 SCS Same-Spin Scale       =       0.3333333333333333 [-]
	 SCS Opposite-Spin Scale   =       1.2000000000000000 [-]
	 SCS Same-Spin Energy      =      -0.1909544357299762 [Eh]
	 SCS Opposite-Spin Energy  =      -1.9954064863376839 [Eh]
	 SCS Correlation Energy    =      -2.1863609220676601 [Eh]
	 SCS Total Energy          =    -541.7744144010451919 [Eh]
	-----------------------------------------------------------

  Dipole Moment: [D]
     X:     2.6756      Y:    -5.6075      Z:     0.8438     Total:     6.2701

*** Psi4 exiting successfully. Buy a developer a beer!
