                               Psi4 1.3.2 release

  ==> Input File <==

--------------------------------------------------------------------------
#psi4
#
memory 32 gb

molecule  {
0 1
  O        0.1763910     2.6970700    -0.0085580
  C        0.2089260     1.4725840     0.0042240
  N        1.4659430     0.7906670    -0.0052000
  C        1.6696020    -0.5667920     0.0018180
  N        0.7040600    -1.4531590     0.0111340
  C       -0.5247500    -0.8567100    -0.0036900
  C       -0.8535700     0.4975280     0.0150930
  N       -2.2178770     0.6874110     0.0132550
  C       -2.7821996    -0.7281006    -0.0015961
  N       -1.7302440    -1.5082620    -0.0074590
  N        2.9897270    -0.9822980    -0.0798890
  H        2.2638450     1.4140280    -0.1046570
  H       -3.7608750    -0.7937900    -0.0035550
  H       -1.8528420    -2.5141400    -0.0211820
  H        3.0628590    -1.9839740     0.0678780
  H        3.6422020    -0.4648880     0.5003130
units angstrom
no_reorient  #important for SAPT in psi4, default
symmetry c1  #important for SAPT in psi4, default
}

set PROPERTIES_ORIGIN ["COM"]
properties('MP2/aug-cc-pvtz', properties = ['dipole'])
--------------------------------------------------------------------------

    Molecular point group: c1
  Charge       = 0
  Multiplicity = 1
  Basis Set: AUG-CC-PVTZ
    Blend: AUG-CC-PVTZ
  Basis Set: (AUG-CC-PVTZ AUX)
    Blend: AUG-CC-PVTZ-JKFIT

    Orbital Energies [Eh]
    ---------------------

    Doubly Occupied:

       1A    -20.530846     2A    -15.656424     3A    -15.633376
       4A    -15.610524     5A    -15.573976     6A    -15.569547
       7A    -11.395481     8A    -11.373094     9A    -11.322188
      10A    -11.319177    11A    -11.258065    12A     -1.396006
      13A     -1.364399    14A     -1.335979    15A     -1.221143
      16A     -1.212687    17A     -1.154765    18A     -1.026702
      19A     -0.923603    20A     -0.881360    21A     -0.852372
      22A     -0.806370    23A     -0.748010    24A     -0.736357
      25A     -0.708322    26A     -0.677147    27A     -0.660054
      28A     -0.647394    29A     -0.618242    30A     -0.600747
      31A     -0.574206    32A     -0.549461    33A     -0.490687
      34A     -0.459212    35A     -0.444975    36A     -0.432548
      37A     -0.423728    38A     -0.404265    39A     -0.285255

  @DF-RHF Final Energy:  -539.52808716610230

   => Energetics <=

    Nuclear Repulsion Energy =            590.9956189496186880
    One-Electron Energy =               -1907.2900249966135107
    Two-Electron Energy =                 776.7663188808926407
    Total Energy =                       -539.5280871661022957
  Basis Set: (AUG-CC-PVTZ AUX)
    Blend: AUG-CC-PVTZ-RI
    Molecular point group: c1

    Geometry (in Angstrom), charge = 0, multiplicity = 1:

       Center              X                  Y                   Z               Mass
    ------------   -----------------  -----------------  -----------------  -----------------
         O            0.204294758560     2.683443879143    -0.005519904053    15.994914619570
         C            0.236829758560     1.458957879143     0.007262095947    12.000000000000
         N            1.493846758560     0.777040879143    -0.002161904053    14.003074004430
         C            1.697505758560    -0.580418120857     0.004856095947    12.000000000000
         N            0.731963758560    -1.466785120857     0.014172095947    14.003074004430
         C           -0.496846241440    -0.870336120857    -0.000651904053    12.000000000000
         C           -0.825666241440     0.483901879143     0.018131095947    12.000000000000
         N           -2.189973241440     0.673784879143     0.016293095947    14.003074004430
         C           -2.754295841440    -0.741726720857     0.001441995947    12.000000000000
         N           -1.702340241440    -1.521888120857    -0.004420904053    14.003074004430
         N            3.017630758560    -0.995924120857    -0.076850904053    14.003074004430
         H            2.291748758560     1.400401879143    -0.101618904053     1.007825032230
         H           -3.732971241440    -0.807416120857    -0.000516904053     1.007825032230
         H           -1.824938241440    -2.527766120857    -0.018143904053     1.007825032230
         H            3.090762758560    -1.997600120857     0.070916095947     1.007825032230
         H            3.670105758560    -0.478514120857     0.503351095947     1.007825032230

  Basis Set: AUG-CC-PVTZ
    Blend: AUG-CC-PVTZ
  Basis Set: (AUG-CC-PVTZ AUX)
    Blend: AUG-CC-PVTZ-JKFIT
	 Reference Energy          =    -539.5280871661022957 [Eh]
	 Singles Energy            =      -0.0000000000000000 [Eh]
	 Same-Spin Energy          =      -0.5792881951054190 [Eh]
	 Opposite-Spin Energy      =      -1.6752112310570708 [Eh]
	 Correlation Energy        =      -2.2544994261624898 [Eh]
	 Total Energy              =    -541.7825865922648063 [Eh]

	 ================> DF-SCS-MP2 Energies <==================
	-----------------------------------------------------------
	 SCS Same-Spin Scale       =       0.3333333333333333 [-]
	 SCS Opposite-Spin Scale   =       1.2000000000000000 [-]
	 SCS Same-Spin Energy      =      -0.1930960650351397 [Eh]
	 SCS Opposite-Spin Energy  =      -2.0102534772684848 [Eh]
	 SCS Correlation Energy    =      -2.2033495423036245 [Eh]
	 SCS Total Energy          =    -541.7314367084059086 [Eh]
	-----------------------------------------------------------

  Dipole Moment: [D]
     X:     2.8383      Y:    -5.8246      Z:     0.8427     Total:     6.5339

*** Psi4 exiting successfully. Buy a developer a beer!
