                               Psi4 1.3.2 release

  ==> Input File <==

--------------------------------------------------------------------------
#psi4
#
memory 32 gb

molecule  {
0 1
  O        0.1763910     2.6970700    -0.0085580
  C        0.2089260     1.4725840     0.0042240
  N        1.4659430     0.7906670    -0.0052000
  C        1.6696020    -0.5667920     0.0018180
  N        0.7040600    -1.4531590     0.0111340
  C       -0.5247500    -0.8567100    -0.0036900
  C       -0.9272453     0.4299160     0.0158467
  N       -2.2178770     0.6874110     0.0132550
  C       -2.7081380    -0.5423290     0.0003530
  N       -1.7302440    -1.5082620    -0.0074590
  N        2.9897270    -0.9822980    -0.0798890
  H        2.2638450     1.4140280    -0.1046570
  H       -3.7608750    -0.7937900    -0.0035550
  H       -1.8528420    -2.5141400    -0.0211820
  H        3.0628590    -1.9839740     0.0678780
  H        3.6422020    -0.4648880     0.5003130
units angstrom
no_reorient  #important for SAPT in psi4, default
symmetry c1  #important for SAPT in psi4, default
}

set PROPERTIES_ORIGIN ["COM"]
properties('MP2/aug-cc-pvtz', properties = ['dipole'])
--------------------------------------------------------------------------

    Molecular point group: c1
  Charge       = 0
  Multiplicity = 1
  Basis Set: AUG-CC-PVTZ
    Blend: AUG-CC-PVTZ
  Basis Set: (AUG-CC-PVTZ AUX)
    Blend: AUG-CC-PVTZ-JKFIT

    Orbital Energies [Eh]
    ---------------------

    Doubly Occupied:

       1A    -20.533011     2A    -15.632783     3A    -15.631950
       4A    -15.610848     5A    -15.571376     6A    -15.562230
       7A    -11.396185     8A    -11.375116     9A    -11.312543
      10A    -11.311584    11A    -11.252469    12A     -1.395756
      13A     -1.369551    14A     -1.338047    15A     -1.221749
      16A     -1.219056    17A     -1.185377    18A     -1.026531
      19A     -0.895785    20A     -0.880773    21A     -0.854912
      22A     -0.797707    23A     -0.738857    24A     -0.728554
      25A     -0.699994    26A     -0.671858    27A     -0.656094
      28A     -0.634108    29A     -0.616444    30A     -0.600582
      31A     -0.591639    32A     -0.546035    33A     -0.503214
      34A     -0.462539    35A     -0.452800    36A     -0.434443
      37A     -0.429730    38A     -0.417740    39A     -0.300209

  @DF-RHF Final Energy:  -539.57421336597190

   => Energetics <=

    Nuclear Repulsion Energy =            594.0443148559842257
    One-Electron Energy =               -1913.5167028703328924
    Two-Electron Energy =                 779.8981746483768802
    Total Energy =                       -539.5742133659719002
  Basis Set: (AUG-CC-PVTZ AUX)
    Blend: AUG-CC-PVTZ-RI
    Molecular point group: c1

    Geometry (in Angstrom), charge = 0, multiplicity = 1:

       Center              X                  Y                   Z               Mass
    ------------   -----------------  -----------------  -----------------  -----------------
         O            0.204264069265     2.674056783875    -0.005734625845    15.994914619570
         C            0.236799069265     1.449570783875     0.007047374155    12.000000000000
         N            1.493816069265     0.767653783875    -0.002376625845    14.003074004430
         C            1.697475069265    -0.589805216125     0.004641374155    12.000000000000
         N            0.731933069265    -1.476172216125     0.013957374155    14.003074004430
         C           -0.496876930735    -0.879723216125    -0.000866625845    12.000000000000
         C           -0.899372230735     0.406902783875     0.018670074155    12.000000000000
         N           -2.190003930735     0.664397783875     0.016078374155    14.003074004430
         C           -2.680264930735    -0.565342216125     0.003176374155    12.000000000000
         N           -1.702370930735    -1.531275216125    -0.004635625845    14.003074004430
         N            3.017600069265    -1.005311216125    -0.077065625845    14.003074004430
         H            2.291718069265     1.391014783875    -0.101833625845     1.007825032230
         H           -3.733001930735    -0.816803216125    -0.000731625845     1.007825032230
         H           -1.824968930735    -2.537153216125    -0.018358625845     1.007825032230
         H            3.090732069265    -2.006987216125     0.070701374155     1.007825032230
         H            3.670075069265    -0.487901216125     0.503136374155     1.007825032230

  Basis Set: AUG-CC-PVTZ
    Blend: AUG-CC-PVTZ
  Basis Set: (AUG-CC-PVTZ AUX)
    Blend: AUG-CC-PVTZ-JKFIT
	 Reference Energy          =    -539.5742133659719002 [Eh]
	 Singles Energy            =      -0.0000000000000000 [Eh]
	 Same-Spin Energy          =      -0.5730612360005620 [Eh]
	 Opposite-Spin Energy      =      -1.6630682529555774 [Eh]
	 Correlation Energy        =      -2.2361294889561396 [Eh]
	 Total Energy              =    -541.8103428549280807 [Eh]

	 ================> DF-SCS-MP2 Energies <==================
	-----------------------------------------------------------
	 SCS Same-Spin Scale       =       0.3333333333333333 [-]
	 SCS Opposite-Spin Scale   =       1.2000000000000000 [-]
	 SCS Same-Spin Energy      =      -0.1910204120001873 [Eh]
	 SCS Opposite-Spin Energy  =      -1.9956819035466928 [Eh]
	 SCS Correlation Energy    =      -2.1867023155468801 [Eh]
	 SCS Total Energy          =    -541.7609156815187816 [Eh]
	-----------------------------------------------------------

  Dipole Moment: [D]
     X:     2.7099      Y:    -5.3420      Z:     0.8447     Total:     6.0493

*** Psi4 exiting successfully. Buy a developer a beer!
