                               Psi4 1.3.2 release

  ==> Input File <==

--------------------------------------------------------------------------
#psi4
#
memory 32 gb

molecule  {
0 1
  O        0.1763910     2.6970700    -0.0085580
  C        0.2089260     1.4725840     0.0042240
  N        1.4659430     0.7906670    -0.0052000
  C        1.6696020    -0.5667920     0.0018180
  N        0.7040600    -1.4531590     0.0111340
  C       -0.5247500    -0.8567100    -0.0036900
  C       -0.8535700     0.4975280     0.0150930
  N       -2.2178770     0.6874110     0.0132550
  C       -2.7081380    -0.5423290     0.0003530
  N       -1.7302440    -1.5082620    -0.0074590
  N        2.9897270    -0.9822980    -0.0798890
  H        2.2638450     1.4140280    -0.1046570
  H       -3.7608750    -0.7937900    -0.0035550
  H       -1.8286470    -2.3156274    -0.0184737
  H        3.0628590    -1.9839740     0.0678780
  H        3.6422020    -0.4648880     0.5003130
units angstrom
no_reorient  #important for SAPT in psi4, default
symmetry c1  #important for SAPT in psi4, default
}

set PROPERTIES_ORIGIN ["COM"]
properties('MP2/aug-cc-pvtz', properties = ['dipole'])
--------------------------------------------------------------------------

    Molecular point group: c1
  Charge       = 0
  Multiplicity = 1
  Basis Set: AUG-CC-PVTZ
    Blend: AUG-CC-PVTZ
  Basis Set: (AUG-CC-PVTZ AUX)
    Blend: AUG-CC-PVTZ-JKFIT

    Orbital Energies [Eh]
    ---------------------

    Doubly Occupied:

       1A    -20.525528     2A    -15.633150     3A    -15.617051
       4A    -15.613232     5A    -15.574816     6A    -15.567174
       7A    -11.399837     8A    -11.369144     9A    -11.329344
      10A    -11.316077    11A    -11.252757    12A     -1.396501
      13A     -1.371388    14A     -1.339337    15A     -1.222977
      16A     -1.220733    17A     -1.201205    18A     -1.033757
      19A     -0.921355    20A     -0.890411    21A     -0.881911
      22A     -0.803472    23A     -0.742193    24A     -0.732050
      25A     -0.708940    26A     -0.681856    27A     -0.658270
      28A     -0.635670    29A     -0.617980    30A     -0.603675
      31A     -0.599434    32A     -0.549048    33A     -0.501674
      34A     -0.463639    35A     -0.444856    36A     -0.434741
      37A     -0.433815    38A     -0.416569    39A     -0.304294

  @DF-RHF Final Energy:  -539.54334266016008

   => Energetics <=

    Nuclear Repulsion Energy =            595.1275428862893477
    One-Electron Energy =               -1915.3220491773688536
    Two-Electron Energy =                 780.6511636309194273
    Total Energy =                       -539.5433426601600786
  Basis Set: (AUG-CC-PVTZ AUX)
    Blend: AUG-CC-PVTZ-RI
    Molecular point group: c1

    Geometry (in Angstrom), charge = 0, multiplicity = 1:

       Center              X                  Y                   Z               Mass
    ------------   -----------------  -----------------  -----------------  -----------------
         O            0.198249560980     2.667360895630    -0.005692818946    15.994914619570
         C            0.230784560980     1.442874895630     0.007089181054    12.000000000000
         N            1.487801560980     0.760957895630    -0.002334818946    14.003074004430
         C            1.691460560980    -0.596501104370     0.004683181054    12.000000000000
         N            0.725918560980    -1.482868104370     0.013999181054    14.003074004430
         C           -0.502891439020    -0.886419104370    -0.000824818946    12.000000000000
         C           -0.831711439020     0.467818895630     0.017958181054    12.000000000000
         N           -2.196018439020     0.657701895630     0.016120181054    14.003074004430
         C           -2.686279439020    -0.572038104370     0.003218181054    12.000000000000
         N           -1.708385439020    -1.537971104370    -0.004593818946    14.003074004430
         N            3.011585560980    -1.012007104370    -0.077023818946    14.003074004430
         H            2.285703560980     1.384318895630    -0.101791818946     1.007825032230
         H           -3.739016439020    -0.823499104370    -0.000689818946     1.007825032230
         H           -1.806788439020    -2.345336504370    -0.015608518946     1.007825032230
         H            3.084717560980    -2.013683104370     0.070743181054     1.007825032230
         H            3.664060560980    -0.494597104370     0.503178181054     1.007825032230

  Basis Set: AUG-CC-PVTZ
    Blend: AUG-CC-PVTZ
  Basis Set: (AUG-CC-PVTZ AUX)
    Blend: AUG-CC-PVTZ-JKFIT
	 Reference Energy          =    -539.5433426601600786 [Eh]
	 Singles Energy            =      -0.0000000000000000 [Eh]
	 Same-Spin Energy          =      -0.5715578608518528 [Eh]
	 Opposite-Spin Energy      =      -1.6605363160920563 [Eh]
	 Correlation Energy        =      -2.2320941769439093 [Eh]
	 Total Energy              =    -541.7754368371039391 [Eh]

	 ================> DF-SCS-MP2 Energies <==================
	-----------------------------------------------------------
	 SCS Same-Spin Scale       =       0.3333333333333333 [-]
	 SCS Opposite-Spin Scale   =       1.2000000000000000 [-]
	 SCS Same-Spin Energy      =      -0.1905192869506176 [Eh]
	 SCS Opposite-Spin Energy  =      -1.9926435793104675 [Eh]
	 SCS Correlation Energy    =      -2.1831628662610854 [Eh]
	 SCS Total Energy          =    -541.7265055264211924 [Eh]
	-----------------------------------------------------------

  Dipole Moment: [D]
     X:     2.7394      Y:    -5.3679      Z:     0.8474     Total:     6.0858

*** Psi4 exiting successfully. Buy a developer a beer!
