                               Psi4 1.4a3.dev225

  ==> Input File <==

--------------------------------------------------------------------------
#psi4
#
memory 32 gb

molecule  {
0 1
  O        1.6269320     1.1045440    -0.3563700
  O        1.6269410    -1.1045380    -0.3563700
  N        1.2303420     0.0000010     0.0570950
  C       -1.2290370    -0.0000020     0.4263420
  C        0.1538230    -0.0000020     1.0857690
  C       -1.4714760    -1.2642140    -0.3967350
  C       -1.4714800     1.2642120    -0.3967320
  H       -1.9318800    -0.0000060     1.2712410
  H        0.3118450     0.8984460     1.6853920
  H        0.3118480    -0.8984510     1.6853890
  H       -0.7185609    -1.3016323    -1.1882638
  H       -2.5029200    -1.2793330    -0.7603930
  H       -1.3046420    -2.1677380     0.1971180
  H       -1.3046550     2.1677340     0.1971270
  H       -0.8055150     1.3049140    -1.2625460
  H       -2.5029220     1.2793270    -0.7603950
units angstrom
no_reorient  #important for SAPT in psi4, default
symmetry c1  #important for SAPT in psi4, default
}

set PROPERTIES_ORIGIN ["COM"]
properties('MP2/aug-cc-pvtz', properties = ['dipole'])
--------------------------------------------------------------------------

    Molecular point group: c1
  Charge       = 0
  Multiplicity = 1
  Basis Set: AUG-CC-PVTZ
    Blend: AUG-CC-PVTZ
  Basis Set: (AUG-CC-PVTZ AUX)
    Blend: AUG-CC-PVTZ-JKFIT

    Orbital Energies [Eh]
    ---------------------

    Doubly Occupied:

       1A    -20.606804     2A    -20.606590     3A    -15.846293
       4A    -11.306163     5A    -11.263771     6A    -11.228055
       7A    -11.228009     8A     -1.584957     9A     -1.385674
      10A     -1.144258    11A     -1.042023    12A     -0.948101
      13A     -0.881050    14A     -0.803833    15A     -0.738975
      16A     -0.729192    17A     -0.706269    18A     -0.637323
      19A     -0.630047    20A     -0.608442    21A     -0.558689
      22A     -0.545133    23A     -0.518064    24A     -0.501311
      25A     -0.496644    26A     -0.484651    27A     -0.474631
      28A     -0.448972

  @DF-RHF Final Energy:  -360.89786338287064

   => Energetics <=

    Nuclear Repulsion Energy =            328.7020949851931846
    One-Electron Energy =               -1143.2920654949507480
    Two-Electron Energy =                 453.6921071268869241
    Total Energy =                       -360.8978633828706393
  Basis Set: (AUG-CC-PVTZ AUX)
    Blend: AUG-CC-PVTZ-RI
    Molecular point group: c1

    Geometry (in Angstrom), charge = 0, multiplicity = 1:

       Center              X                  Y                   Z               Mass
    ------------   -----------------  -----------------  -----------------  -----------------
         O            1.524792879443     1.104511746165    -0.347598871824    15.994914619570
         O            1.524801879443    -1.104570253835    -0.347598871824    15.994914619570
         N            1.128202879443    -0.000031253835     0.065866128176    14.003074004430
         C           -1.331176120557    -0.000034253835     0.435113128176    12.000000000000
         C            0.051683879443    -0.000034253835     1.094540128176    12.000000000000
         C           -1.573615120557    -1.264246253835    -0.387963871824    12.000000000000
         C           -1.573619120557     1.264179746165    -0.387960871824    12.000000000000
         H           -2.034019120557    -0.000038253835     1.280012128176     1.007825032230
         H            0.209705879443     0.898413746165     1.694163128176     1.007825032230
         H            0.209708879443    -0.898483253835     1.694160128176     1.007825032230
         H           -0.820700020557    -1.301664553835    -1.179492671824     1.007825032230
         H           -2.605059120557    -1.279365253835    -0.751621871824     1.007825032230
         H           -1.406781120557    -2.167770253835     0.205889128176     1.007825032230
         H           -1.406794120557     2.167701746165     0.205898128176     1.007825032230
         H           -0.907654120557     1.304881746165    -1.253774871824     1.007825032230
         H           -2.605061120557     1.279294746165    -0.751623871824     1.007825032230

  Basis Set: AUG-CC-PVTZ
    Blend: AUG-CC-PVTZ
  Basis Set: (AUG-CC-PVTZ AUX)
    Blend: AUG-CC-PVTZ-JKFIT
	 Reference Energy          =    -360.8978633828706393 [Eh]
	 Singles Energy            =      -0.0000000000000000 [Eh]
	 Same-Spin Energy          =      -0.3690973629025411 [Eh]
	 Opposite-Spin Energy      =      -1.1814663625127830 [Eh]
	 Correlation Energy        =      -1.5505637254153242 [Eh]
	 Total Energy              =    -362.4484271082859550 [Eh]

	 ================> DF-SCS-MP2 Energies <==================
	-----------------------------------------------------------
	 SCS Same-Spin Scale       =       0.3333333333333333 [-]
	 SCS Opposite-Spin Scale   =       1.2000000000000000 [-]
	 SCS Same-Spin Energy      =      -0.1230324543008470 [Eh]
	 SCS Opposite-Spin Energy  =      -1.4177596350153396 [Eh]
	 SCS Correlation Energy    =      -1.5407920893161866 [Eh]
	 SCS Total Energy          =    -362.4386554721868379 [Eh]
	-----------------------------------------------------------

  Dipole Moment: [D]
     X:    -2.9604      Y:     0.0038      Z:     2.2002     Total:     3.6885

*** Psi4 exiting successfully. Buy a developer a beer!
