                               Psi4 1.4a3.dev225

  ==> Input File <==

--------------------------------------------------------------------------
#psi4
#
memory 32 gb

molecule  {
0 1
  O        1.6269320     1.1045440    -0.3563700
  O        1.6269410    -1.1045380    -0.3563700
  N        1.2303420     0.0000010     0.0570950
  C       -1.2290370    -0.0000020     0.4263420
  C        0.1538230    -0.0000020     1.0857690
  C       -1.4714760    -1.2642140    -0.3967350
  C       -1.4714800     1.2642120    -0.3967320
  H       -1.9318800    -0.0000060     1.2712410
  H        0.3118450     0.8984460     1.6853920
  H        0.3118480    -0.8984510     1.6853890
  H       -0.8055150    -1.3049070    -1.2625520
  H       -2.5029200    -1.2793330    -0.7603930
  H       -1.3046420    -2.1677380     0.1971180
  H       -1.3310665     2.1555436     0.2218657
  H       -0.8055150     1.3049140    -1.2625460
  H       -2.5029220     1.2793270    -0.7603950
units angstrom
no_reorient  #important for SAPT in psi4, default
symmetry c1  #important for SAPT in psi4, default
}

set PROPERTIES_ORIGIN ["COM"]
properties('MP2/aug-cc-pvtz', properties = ['dipole'])
--------------------------------------------------------------------------

    Molecular point group: c1
  Charge       = 0
  Multiplicity = 1
  Basis Set: AUG-CC-PVTZ
    Blend: AUG-CC-PVTZ
  Basis Set: (AUG-CC-PVTZ AUX)
    Blend: AUG-CC-PVTZ-JKFIT

    Orbital Energies [Eh]
    ---------------------

    Doubly Occupied:

       1A    -20.605996     2A    -20.605945     3A    -15.845640
       4A    -11.305942     5A    -11.264380     6A    -11.228377
       7A    -11.228043     8A     -1.584160     9A     -1.384851
      10A     -1.143890    11A     -1.041843    12A     -0.947971
      13A     -0.881152    14A     -0.803860    15A     -0.738345
      16A     -0.728554    17A     -0.705184    18A     -0.638048
      19A     -0.629521    20A     -0.607297    21A     -0.558948
      22A     -0.543845    23A     -0.517218    24A     -0.500605
      25A     -0.500325    26A     -0.483934    27A     -0.474752
      28A     -0.448232

  @DF-RHF Final Energy:  -360.89925067413765

   => Energetics <=

    Nuclear Repulsion Energy =            328.4816421190518554
    One-Electron Energy =               -1142.8680634604202169
    Two-Electron Energy =                 453.4871706672306573
    Total Energy =                       -360.8992506741376474
  Basis Set: (AUG-CC-PVTZ AUX)
    Blend: AUG-CC-PVTZ-RI
    Molecular point group: c1

    Geometry (in Angstrom), charge = 0, multiplicity = 1:

       Center              X                  Y                   Z               Mass
    ------------   -----------------  -----------------  -----------------  -----------------
         O            1.525901447263     1.104662974687    -0.347114342291    15.994914619570
         O            1.525910447263    -1.104419025313    -0.347114342291    15.994914619570
         N            1.129311447263     0.000119974687     0.066350657709    14.003074004430
         C           -1.330067552737     0.000116974687     0.435597657709    12.000000000000
         C            0.052792447263     0.000116974687     1.095024657709    12.000000000000
         C           -1.572506552737    -1.264095025313    -0.387479342291    12.000000000000
         C           -1.572510552737     1.264330974687    -0.387476342291    12.000000000000
         H           -2.032910552737     0.000112974687     1.280496657709     1.007825032230
         H            0.210814447263     0.898564974687     1.694647657709     1.007825032230
         H            0.210817447263    -0.898332025313     1.694644657709     1.007825032230
         H           -0.906545552737    -1.304788025313    -1.253296342291     1.007825032230
         H           -2.603950552737    -1.279214025313    -0.751137342291     1.007825032230
         H           -1.405672552737    -2.167619025313     0.206373657709     1.007825032230
         H           -1.432097052737     2.155662574687     0.231121357709     1.007825032230
         H           -0.906545552737     1.305032974687    -1.253290342291     1.007825032230
         H           -2.603952552737     1.279445974687    -0.751139342291     1.007825032230

  Basis Set: AUG-CC-PVTZ
    Blend: AUG-CC-PVTZ
  Basis Set: (AUG-CC-PVTZ AUX)
    Blend: AUG-CC-PVTZ-JKFIT
	 Reference Energy          =    -360.8992506741376474 [Eh]
	 Singles Energy            =      -0.0000000000000000 [Eh]
	 Same-Spin Energy          =      -0.3689076378627099 [Eh]
	 Opposite-Spin Energy      =      -1.1812549459964918 [Eh]
	 Correlation Energy        =      -1.5501625838592017 [Eh]
	 Total Energy              =    -362.4494132579968664 [Eh]

	 ================> DF-SCS-MP2 Energies <==================
	-----------------------------------------------------------
	 SCS Same-Spin Scale       =       0.3333333333333333 [-]
	 SCS Opposite-Spin Scale   =       1.2000000000000000 [-]
	 SCS Same-Spin Energy      =      -0.1229692126209033 [Eh]
	 SCS Opposite-Spin Energy  =      -1.4175059351957902 [Eh]
	 SCS Correlation Energy    =      -1.5404751478166934 [Eh]
	 SCS Total Energy          =    -362.4397258219543687 [Eh]
	-----------------------------------------------------------

  Dipole Moment: [D]
     X:    -3.0006      Y:    -0.0003      Z:     2.1740     Total:     3.7054

*** Psi4 exiting successfully. Buy a developer a beer!
