                               Psi4 1.4a3.dev225

  ==> Input File <==

--------------------------------------------------------------------------
#psi4
#
memory 32 gb

molecule  {
0 1
  O        1.6269320     1.1045440    -0.3563700
  O        1.6269410    -1.1045380    -0.3563700
  N        1.2303420     0.0000010     0.0570950
  C       -1.2481308     0.0076623     0.4433063
  C        0.1538230    -0.0000020     1.0857690
  C       -1.4714760    -1.2642140    -0.3967350
  C       -1.4714800     1.2642120    -0.3967320
  H       -1.9318800    -0.0000060     1.2712410
  H        0.3118450     0.8984460     1.6853920
  H        0.3118480    -0.8984510     1.6853890
  H       -0.8055150    -1.3049070    -1.2625520
  H       -2.5029200    -1.2793330    -0.7603930
  H       -1.3046420    -2.1677380     0.1971180
  H       -1.3046550     2.1677340     0.1971270
  H       -0.8055150     1.3049140    -1.2625460
  H       -2.5029220     1.2793270    -0.7603950
units angstrom
no_reorient  #important for SAPT in psi4, default
symmetry c1  #important for SAPT in psi4, default
}

set PROPERTIES_ORIGIN ["COM"]
properties('MP2/aug-cc-pvtz', properties = ['dipole'])
--------------------------------------------------------------------------

    Molecular point group: c1
  Charge       = 0
  Multiplicity = 1
  Basis Set: AUG-CC-PVTZ
    Blend: AUG-CC-PVTZ
  Basis Set: (AUG-CC-PVTZ AUX)
    Blend: AUG-CC-PVTZ-JKFIT

    Orbital Energies [Eh]
    ---------------------

    Doubly Occupied:

       1A    -20.606025     2A    -20.605965     3A    -15.846006
       4A    -11.305579     5A    -11.263915     6A    -11.228489
       7A    -11.228191     8A     -1.584102     9A     -1.384849
      10A     -1.141743    11A     -1.041311    12A     -0.946720
      13A     -0.881207    14A     -0.806287    15A     -0.737082
      16A     -0.728414    17A     -0.706636    18A     -0.636851
      19A     -0.629566    20A     -0.606726    21A     -0.558189
      22A     -0.543718    23A     -0.519373    24A     -0.500021
      25A     -0.497252    26A     -0.483131    27A     -0.477981
      28A     -0.448075

  @DF-RHF Final Energy:  -360.89889653074977

   => Energetics <=

    Nuclear Repulsion Energy =            328.1565038764844644
    One-Electron Energy =               -1142.2239880603156053
    Two-Electron Energy =                 453.1685876530813175
    Total Energy =                       -360.8988965307497665
  Basis Set: (AUG-CC-PVTZ AUX)
    Blend: AUG-CC-PVTZ-RI
    Molecular point group: c1

    Geometry (in Angstrom), charge = 0, multiplicity = 1:

       Center              X                  Y                   Z               Mass
    ------------   -----------------  -----------------  -----------------  -----------------
         O            1.527866330720     1.103651388978    -0.348847638909    15.994914619570
         O            1.527875330720    -1.105430611022    -0.348847638909    15.994914619570
         N            1.131276330720    -0.000891611022     0.064617361091    14.003074004430
         C           -1.347196469280     0.006769688978     0.450828661091    12.000000000000
         C            0.054757330720    -0.000894611022     1.093291361091    12.000000000000
         C           -1.570541669280    -1.265106611022    -0.389212638909    12.000000000000
         C           -1.570545669280     1.263319388978    -0.389209638909    12.000000000000
         H           -2.030945669280    -0.000898611022     1.278763361091     1.007825032230
         H            0.212779330720     0.897553388978     1.692914361091     1.007825032230
         H            0.212782330720    -0.899343611022     1.692911361091     1.007825032230
         H           -0.904580669280    -1.305799611022    -1.255029638909     1.007825032230
         H           -2.601985669280    -1.280225611022    -0.752870638909     1.007825032230
         H           -1.403707669280    -2.168630611022     0.204640361091     1.007825032230
         H           -1.403720669280     2.166841388978     0.204649361091     1.007825032230
         H           -0.904580669280     1.304021388978    -1.255023638909     1.007825032230
         H           -2.601987669280     1.278434388978    -0.752872638909     1.007825032230

  Basis Set: AUG-CC-PVTZ
    Blend: AUG-CC-PVTZ
  Basis Set: (AUG-CC-PVTZ AUX)
    Blend: AUG-CC-PVTZ-JKFIT
	 Reference Energy          =    -360.8988965307497665 [Eh]
	 Singles Energy            =      -0.0000000000000000 [Eh]
	 Same-Spin Energy          =      -0.3687549010055098 [Eh]
	 Opposite-Spin Energy      =      -1.1811089489069975 [Eh]
	 Correlation Energy        =      -1.5498638499125073 [Eh]
	 Total Energy              =    -362.4487603806622928 [Eh]

	 ================> DF-SCS-MP2 Energies <==================
	-----------------------------------------------------------
	 SCS Same-Spin Scale       =       0.3333333333333333 [-]
	 SCS Opposite-Spin Scale   =       1.2000000000000000 [-]
	 SCS Same-Spin Energy      =      -0.1229183003351699 [Eh]
	 SCS Opposite-Spin Energy  =      -1.4173307386883969 [Eh]
	 SCS Correlation Energy    =      -1.5402490390235668 [Eh]
	 SCS Total Energy          =    -362.4391455697733591 [Eh]
	-----------------------------------------------------------

  Dipole Moment: [D]
     X:    -2.9995      Y:     0.0055      Z:     2.1697     Total:     3.7020

*** Psi4 exiting successfully. Buy a developer a beer!
