                               Psi4 1.4a3.dev225

  ==> Input File <==

--------------------------------------------------------------------------
#psi4
#
memory 32 gb

molecule  {
0 1
  O        1.6269320     1.1045440    -0.3563700
  O        1.6269410    -1.1045380    -0.3563700
  N        1.2303420     0.0000010     0.0570950
  C       -1.2290370    -0.0000020     0.4263420
  C        0.1538230    -0.0000020     1.0857690
  C       -1.5482100    -1.2901628    -0.3273676
  C       -1.4714800     1.2642120    -0.3967320
  H       -1.9318800    -0.0000060     1.2712410
  H        0.3118450     0.8984460     1.6853920
  H        0.3118480    -0.8984510     1.6853890
  H       -0.8055150    -1.3049070    -1.2625520
  H       -2.5029200    -1.2793330    -0.7603930
  H       -1.3046420    -2.1677380     0.1971180
  H       -1.3046550     2.1677340     0.1971270
  H       -0.8055150     1.3049140    -1.2625460
  H       -2.5029220     1.2793270    -0.7603950
units angstrom
no_reorient  #important for SAPT in psi4, default
symmetry c1  #important for SAPT in psi4, default
}

set PROPERTIES_ORIGIN ["COM"]
properties('MP2/aug-cc-pvtz', properties = ['dipole'])
--------------------------------------------------------------------------

    Molecular point group: c1
  Charge       = 0
  Multiplicity = 1
  Basis Set: AUG-CC-PVTZ
    Blend: AUG-CC-PVTZ
  Basis Set: (AUG-CC-PVTZ AUX)
    Blend: AUG-CC-PVTZ-JKFIT

    Orbital Energies [Eh]
    ---------------------

    Doubly Occupied:

       1A    -20.605894     2A    -20.605728     3A    -15.845444
       4A    -11.307170     5A    -11.265070     6A    -11.229959
       7A    -11.229234     8A     -1.583912     9A     -1.384615
      10A     -1.143543    11A     -1.042391    12A     -0.950298
      13A     -0.881127    14A     -0.803934    15A     -0.738765
      16A     -0.728491    17A     -0.705112    18A     -0.640812
      19A     -0.625194    20A     -0.618854    21A     -0.557782
      22A     -0.543784    23A     -0.513204    24A     -0.506849
      25A     -0.496755    26A     -0.486262    27A     -0.464064
      28A     -0.447012

  @DF-RHF Final Energy:  -360.88843759895622

   => Energetics <=

    Nuclear Repulsion Energy =            327.8361386425654018
    One-Electron Energy =               -1141.5466385320492009
    Two-Electron Energy =                 452.8220622905275832
    Total Energy =                       -360.8884375989562159
  Basis Set: (AUG-CC-PVTZ AUX)
    Blend: AUG-CC-PVTZ-RI
    Molecular point group: c1

    Geometry (in Angstrom), charge = 0, multiplicity = 1:

       Center              X                  Y                   Z               Mass
    ------------   -----------------  -----------------  -----------------  -----------------
         O            1.534577567489     1.107565072009    -0.354949103018    15.994914619570
         O            1.534586567489    -1.101516927991    -0.354949103018    15.994914619570
         N            1.137987567489     0.003022072009     0.058515896982    14.003074004430
         C           -1.321391432511     0.003019072009     0.427762896982    12.000000000000
         C            0.061468567489     0.003019072009     1.087189896982    12.000000000000
         C           -1.640564432511    -1.287141727991    -0.325946703018    12.000000000000
         C           -1.563834432511     1.267233072009    -0.395311103018    12.000000000000
         H           -2.024234432511     0.003015072009     1.272661896982     1.007825032230
         H            0.219490567489     0.901467072009     1.686812896982     1.007825032230
         H            0.219493567489    -0.895429927991     1.686809896982     1.007825032230
         H           -0.897869432511    -1.301885927991    -1.261131103018     1.007825032230
         H           -2.595274432511    -1.276311927991    -0.758972103018     1.007825032230
         H           -1.396996432511    -2.164716927991     0.198538896982     1.007825032230
         H           -1.397009432511     2.170755072009     0.198547896982     1.007825032230
         H           -0.897869432511     1.307935072009    -1.261125103018     1.007825032230
         H           -2.595276432511     1.282348072009    -0.758974103018     1.007825032230

  Basis Set: AUG-CC-PVTZ
    Blend: AUG-CC-PVTZ
  Basis Set: (AUG-CC-PVTZ AUX)
    Blend: AUG-CC-PVTZ-JKFIT
	 Reference Energy          =    -360.8884375989562159 [Eh]
	 Singles Energy            =      -0.0000000000000000 [Eh]
	 Same-Spin Energy          =      -0.3690951380628480 [Eh]
	 Opposite-Spin Energy      =      -1.1817214072437137 [Eh]
	 Correlation Energy        =      -1.5508165453065617 [Eh]
	 Total Energy              =    -362.4392541442628044 [Eh]

	 ================> DF-SCS-MP2 Energies <==================
	-----------------------------------------------------------
	 SCS Same-Spin Scale       =       0.3333333333333333 [-]
	 SCS Opposite-Spin Scale   =       1.2000000000000000 [-]
	 SCS Same-Spin Energy      =      -0.1230317126876160 [Eh]
	 SCS Opposite-Spin Energy  =      -1.4180656886924563 [Eh]
	 SCS Correlation Energy    =      -1.5410974013800722 [Eh]
	 SCS Total Energy          =    -362.4295350003362728 [Eh]
	-----------------------------------------------------------

  Dipole Moment: [D]
     X:    -3.0093      Y:     0.0043      Z:     2.2043     Total:     3.7302

*** Psi4 exiting successfully. Buy a developer a beer!
