                               Psi4 1.4a3.dev225

  ==> Input File <==

--------------------------------------------------------------------------
#psi4
#
memory 32 gb

molecule  {
0 1
  O        1.6269320     1.1045440    -0.3563700
  O        1.6269410    -1.1045380    -0.3563700
  N        1.2303420     0.0000010     0.0570950
  C       -1.2290370    -0.0000020     0.4263420
  C        0.1538230    -0.0000020     1.0857690
  C       -1.4714760    -1.2642140    -0.3967350
  C       -1.4714800     1.2642120    -0.3967320
  H       -1.9318800    -0.0000060     1.2712410
  H        0.3118450     0.8984460     1.6853920
  H        0.3118480    -0.8984510     1.6853890
  H       -0.8055150    -1.3049070    -1.2625520
  H       -2.5029200    -1.2793330    -0.7603930
  H       -1.3046420    -2.1677380     0.1971180
  H       -1.2267675     2.1976478     0.1186945
  H       -0.8055150     1.3049140    -1.2625460
  H       -2.5029220     1.2793270    -0.7603950
units angstrom
no_reorient  #important for SAPT in psi4, default
symmetry c1  #important for SAPT in psi4, default
}

set PROPERTIES_ORIGIN ["COM"]
properties('MP2/aug-cc-pvtz', properties = ['dipole'])
--------------------------------------------------------------------------

    Molecular point group: c1
  Charge       = 0
  Multiplicity = 1
  Basis Set: AUG-CC-PVTZ
    Blend: AUG-CC-PVTZ
  Basis Set: (AUG-CC-PVTZ AUX)
    Blend: AUG-CC-PVTZ-JKFIT

    Orbital Energies [Eh]
    ---------------------

    Doubly Occupied:

       1A    -20.606206     2A    -20.606140     3A    -15.845840
       4A    -11.306069     5A    -11.265381     6A    -11.228709
       7A    -11.227791     8A     -1.584340     9A     -1.385056
      10A     -1.143855    11A     -1.041737    12A     -0.948033
      13A     -0.881590    14A     -0.805119    15A     -0.738261
      16A     -0.728763    17A     -0.706327    18A     -0.637955
      19A     -0.627109    20A     -0.610183    21A     -0.553737
      22A     -0.546079    23A     -0.516427    24A     -0.502158
      25A     -0.498428    26A     -0.485890    27A     -0.474474
      28A     -0.448360

  @DF-RHF Final Energy:  -360.89817725257342

   => Energetics <=

    Nuclear Repulsion Energy =            328.5014589042922353
    One-Electron Energy =               -1142.8992351261351814
    Two-Electron Energy =                 453.4995989692695275
    Total Energy =                       -360.8981772525734186
  Basis Set: (AUG-CC-PVTZ AUX)
    Blend: AUG-CC-PVTZ-RI
    Molecular point group: c1

    Geometry (in Angstrom), charge = 0, multiplicity = 1:

       Center              X                  Y                   Z               Mass
    ------------   -----------------  -----------------  -----------------  -----------------
         O            1.524881538975     1.104251250485    -0.346105462416    15.994914619570
         O            1.524890538975    -1.104830749515    -0.346105462416    15.994914619570
         N            1.128291538975    -0.000291749515     0.067359537584    14.003074004430
         C           -1.331087461025    -0.000294749515     0.436606537584    12.000000000000
         C            0.051772538975    -0.000294749515     1.096033537584    12.000000000000
         C           -1.573526461025    -1.264506749515    -0.386470462416    12.000000000000
         C           -1.573530461025     1.263919250485    -0.386467462416    12.000000000000
         H           -2.033930461025    -0.000298749515     1.281505537584     1.007825032230
         H            0.209794538975     0.898153250485     1.695656537584     1.007825032230
         H            0.209797538975    -0.898743749515     1.695653537584     1.007825032230
         H           -0.907565461025    -1.305199749515    -1.252287462416     1.007825032230
         H           -2.604970461025    -1.279625749515    -0.750128462416     1.007825032230
         H           -1.406692461025    -2.168030749515     0.207382537584     1.007825032230
         H           -1.328817961025     2.197355050485     0.128959037584     1.007825032230
         H           -0.907565461025     1.304621250485    -1.252281462416     1.007825032230
         H           -2.604972461025     1.279034250485    -0.750130462416     1.007825032230

  Basis Set: AUG-CC-PVTZ
    Blend: AUG-CC-PVTZ
  Basis Set: (AUG-CC-PVTZ AUX)
    Blend: AUG-CC-PVTZ-JKFIT
	 Reference Energy          =    -360.8981772525734186 [Eh]
	 Singles Energy            =      -0.0000000000000000 [Eh]
	 Same-Spin Energy          =      -0.3689759882932908 [Eh]
	 Opposite-Spin Energy      =      -1.1812870904173698 [Eh]
	 Correlation Energy        =      -1.5502630787106606 [Eh]
	 Total Energy              =    -362.4484403312840755 [Eh]

	 ================> DF-SCS-MP2 Energies <==================
	-----------------------------------------------------------
	 SCS Same-Spin Scale       =       0.3333333333333333 [-]
	 SCS Opposite-Spin Scale   =       1.2000000000000000 [-]
	 SCS Same-Spin Energy      =      -0.1229919960977636 [Eh]
	 SCS Opposite-Spin Energy  =      -1.4175445085008438 [Eh]
	 SCS Correlation Energy    =      -1.5405365045986075 [Eh]
	 SCS Total Energy          =    -362.4387137571720245 [Eh]
	-----------------------------------------------------------

  Dipole Moment: [D]
     X:    -2.9577      Y:    -0.0014      Z:     2.1508     Total:     3.6570

*** Psi4 exiting successfully. Buy a developer a beer!
