                               Psi4 1.4a3.dev225

  ==> Input File <==

--------------------------------------------------------------------------
#psi4
#
memory 32 gb

molecule  {
0 1
  O        1.6269320     1.1045440    -0.3563700
  O        1.6269410    -1.1045380    -0.3563700
  N        1.2303420     0.0000010     0.0570950
  C       -1.2290370    -0.0000020     0.4263420
  C        0.1538230    -0.0000020     1.0857690
  C       -1.4714760    -1.2642140    -0.3967350
  C       -1.4714800     1.2642120    -0.3967320
  H       -1.9318800    -0.0000060     1.2712410
  H        0.3118450     0.8984460     1.6853920
  H        0.3118480    -0.8984510     1.6853890
  H       -0.7933298    -1.3056516    -1.2783940
  H       -2.5029200    -1.2793330    -0.7603930
  H       -1.3046420    -2.1677380     0.1971180
  H       -1.3046550     2.1677340     0.1971270
  H       -0.8055150     1.3049140    -1.2625460
  H       -2.5029220     1.2793270    -0.7603950
units angstrom
no_reorient  #important for SAPT in psi4, default
symmetry c1  #important for SAPT in psi4, default
}

set PROPERTIES_ORIGIN ["COM"]
properties('MP2/aug-cc-pvtz', properties = ['dipole'])
--------------------------------------------------------------------------

    Molecular point group: c1
  Charge       = 0
  Multiplicity = 1
  Basis Set: AUG-CC-PVTZ
    Blend: AUG-CC-PVTZ
  Basis Set: (AUG-CC-PVTZ AUX)
    Blend: AUG-CC-PVTZ-JKFIT

    Orbital Energies [Eh]
    ---------------------

    Doubly Occupied:

       1A    -20.605980     2A    -20.605929     3A    -15.845638
       4A    -11.306009     5A    -11.264820     6A    -11.230541
       7A    -11.228231     8A     -1.584143     9A     -1.384840
      10A     -1.143798    11A     -1.041515    12A     -0.946921
      13A     -0.880910    14A     -0.803707    15A     -0.738308
      16A     -0.728547    17A     -0.705200    18A     -0.637903
      19A     -0.628342    20A     -0.608124    21A     -0.555267
      22A     -0.544599    23A     -0.516242    24A     -0.501037
      25A     -0.500014    26A     -0.484545    27A     -0.474415
      28A     -0.448088

  @DF-RHF Final Energy:  -360.89885261372075

   => Energetics <=

    Nuclear Repulsion Energy =            328.4122146325308336
    One-Electron Energy =               -1142.7349104175741559
    Two-Electron Energy =                 453.4238431713226305
    Total Energy =                       -360.8988526137207486
  Basis Set: (AUG-CC-PVTZ AUX)
    Blend: AUG-CC-PVTZ-RI
    Molecular point group: c1

    Geometry (in Angstrom), charge = 0, multiplicity = 1:

       Center              X                  Y                   Z               Mass
    ------------   -----------------  -----------------  -----------------  -----------------
         O            1.525524021840     1.104551049680    -0.346717515933    15.994914619570
         O            1.525533021840    -1.104530950320    -0.346717515933    15.994914619570
         N            1.128934021840     0.000008049680     0.066747484067    14.003074004430
         C           -1.330444978160     0.000005049680     0.435994484067    12.000000000000
         C            0.052415021840     0.000005049680     1.095421484067    12.000000000000
         C           -1.572883978160    -1.264206950320    -0.387082515933    12.000000000000
         C           -1.572887978160     1.264219049680    -0.387079515933    12.000000000000
         H           -2.033287978160     0.000001049680     1.280893484067     1.007825032230
         H            0.210437021840     0.898453049680     1.695044484067     1.007825032230
         H            0.210440021840    -0.898443950320     1.695041484067     1.007825032230
         H           -0.894737778160    -1.305644550320    -1.268741515933     1.007825032230
         H           -2.604327978160    -1.279325950320    -0.750740515933     1.007825032230
         H           -1.406049978160    -2.167730950320     0.206770484067     1.007825032230
         H           -1.406062978160     2.167741049680     0.206779484067     1.007825032230
         H           -0.906922978160     1.304921049680    -1.252893515933     1.007825032230
         H           -2.604329978160     1.279334049680    -0.750742515933     1.007825032230

  Basis Set: AUG-CC-PVTZ
    Blend: AUG-CC-PVTZ
  Basis Set: (AUG-CC-PVTZ AUX)
    Blend: AUG-CC-PVTZ-JKFIT
	 Reference Energy          =    -360.8988526137207486 [Eh]
	 Singles Energy            =      -0.0000000000000000 [Eh]
	 Same-Spin Energy          =      -0.3689308240944260 [Eh]
	 Opposite-Spin Energy      =      -1.1813892433118012 [Eh]
	 Correlation Energy        =      -1.5503200674062272 [Eh]
	 Total Energy              =    -362.4491726811269814 [Eh]

	 ================> DF-SCS-MP2 Energies <==================
	-----------------------------------------------------------
	 SCS Same-Spin Scale       =       0.3333333333333333 [-]
	 SCS Opposite-Spin Scale   =       1.2000000000000000 [-]
	 SCS Same-Spin Energy      =      -0.1229769413648086 [Eh]
	 SCS Opposite-Spin Energy  =      -1.4176670919741614 [Eh]
	 SCS Correlation Energy    =      -1.5406440333389702 [Eh]
	 SCS Total Energy          =    -362.4394966470597410 [Eh]
	-----------------------------------------------------------

  Dipole Moment: [D]
     X:    -2.9938      Y:     0.0007      Z:     2.1767     Total:     3.7014

*** Psi4 exiting successfully. Buy a developer a beer!
