                               Psi4 1.4a3.dev225

  ==> Input File <==

--------------------------------------------------------------------------
#psi4
#
memory 32 gb

molecule  {
0 1
  O        1.6533745     1.0838765    -0.3839373
  O        1.6269410    -1.1045380    -0.3563700
  N        1.2303420     0.0000010     0.0570950
  C       -1.2290370    -0.0000020     0.4263420
  C        0.1538230    -0.0000020     1.0857690
  C       -1.4714760    -1.2642140    -0.3967350
  C       -1.4714800     1.2642120    -0.3967320
  H       -1.9318800    -0.0000060     1.2712410
  H        0.3118450     0.8984460     1.6853920
  H        0.3118480    -0.8984510     1.6853890
  H       -0.8055150    -1.3049070    -1.2625520
  H       -2.5029200    -1.2793330    -0.7603930
  H       -1.3046420    -2.1677380     0.1971180
  H       -1.3046550     2.1677340     0.1971270
  H       -0.8055150     1.3049140    -1.2625460
  H       -2.5029220     1.2793270    -0.7603950
units angstrom
no_reorient  #important for SAPT in psi4, default
symmetry c1  #important for SAPT in psi4, default
}

set PROPERTIES_ORIGIN ["COM"]
properties('MP2/aug-cc-pvtz', properties = ['dipole'])
--------------------------------------------------------------------------

    Molecular point group: c1
  Charge       = 0
  Multiplicity = 1
  Basis Set: AUG-CC-PVTZ
    Blend: AUG-CC-PVTZ
  Basis Set: (AUG-CC-PVTZ AUX)
    Blend: AUG-CC-PVTZ-JKFIT

    Orbital Energies [Eh]
    ---------------------

    Doubly Occupied:

       1A    -20.604407     2A    -20.603442     3A    -15.844837
       4A    -11.307950     5A    -11.265450     6A    -11.228842
       7A    -11.228574     8A     -1.584198     9A     -1.380636
      10A     -1.145519    11A     -1.043079    12A     -0.948452
      13A     -0.881452    14A     -0.803622    15A     -0.738363
      16A     -0.727173    17A     -0.705388    18A     -0.638188
      19A     -0.629240    20A     -0.608651    21A     -0.557536
      22A     -0.545011    23A     -0.517930    24A     -0.501016
      25A     -0.499853    26A     -0.483049    27A     -0.476236
      28A     -0.445995

  @DF-RHF Final Energy:  -360.89936932330005

   => Energetics <=

    Nuclear Repulsion Energy =            328.2973838957432804
    One-Electron Energy =               -1142.5053229182790346
    Two-Electron Energy =                 453.3085696992357612
    Total Energy =                       -360.8993693233000499
  Basis Set: (AUG-CC-PVTZ AUX)
    Blend: AUG-CC-PVTZ-RI
    Molecular point group: c1

    Geometry (in Angstrom), charge = 0, multiplicity = 1:

       Center              X                  Y                   Z               Mass
    ------------   -----------------  -----------------  -----------------  -----------------
         O            1.547981933082     1.087083761395    -0.370161422562    15.994914619570
         O            1.521548433082    -1.101330738605    -0.342594122562    15.994914619570
         N            1.124949433082     0.003208261395     0.070870877438    14.003074004430
         C           -1.334429566918     0.003205261395     0.440117877438    12.000000000000
         C            0.048430433082     0.003205261395     1.099544877438    12.000000000000
         C           -1.576868566918    -1.261006738605    -0.382959122562    12.000000000000
         C           -1.576872566918     1.267419261395    -0.382956122562    12.000000000000
         H           -2.037272566918     0.003201261395     1.285016877438     1.007825032230
         H            0.206452433082     0.901653261395     1.699167877438     1.007825032230
         H            0.206455433082    -0.895243738605     1.699164877438     1.007825032230
         H           -0.910907566918    -1.301699738605    -1.248776122562     1.007825032230
         H           -2.608312566918    -1.276125738605    -0.746617122562     1.007825032230
         H           -1.410034566918    -2.164530738605     0.210893877438     1.007825032230
         H           -1.410047566918     2.170941261395     0.210902877438     1.007825032230
         H           -0.910907566918     1.308121261395    -1.248770122562     1.007825032230
         H           -2.608314566918     1.282534261395    -0.746619122562     1.007825032230

  Basis Set: AUG-CC-PVTZ
    Blend: AUG-CC-PVTZ
  Basis Set: (AUG-CC-PVTZ AUX)
    Blend: AUG-CC-PVTZ-JKFIT
	 Reference Energy          =    -360.8993693233000499 [Eh]
	 Singles Energy            =      -0.0000000000000000 [Eh]
	 Same-Spin Energy          =      -0.3687853600307094 [Eh]
	 Opposite-Spin Energy      =      -1.1810485657795273 [Eh]
	 Correlation Energy        =      -1.5498339258102367 [Eh]
	 Total Energy              =    -362.4492032491102691 [Eh]

	 ================> DF-SCS-MP2 Energies <==================
	-----------------------------------------------------------
	 SCS Same-Spin Scale       =       0.3333333333333333 [-]
	 SCS Opposite-Spin Scale   =       1.2000000000000000 [-]
	 SCS Same-Spin Energy      =      -0.1229284533435698 [Eh]
	 SCS Opposite-Spin Energy  =      -1.4172582789354327 [Eh]
	 SCS Correlation Energy    =      -1.5401867322790024 [Eh]
	 SCS Total Energy          =    -362.4395560555790325 [Eh]
	-----------------------------------------------------------

  Dipole Moment: [D]
     X:    -3.0602      Y:     0.0227      Z:     2.2214     Total:     3.7815

*** Psi4 exiting successfully. Buy a developer a beer!
