                               Psi4 1.4a3.dev225

  ==> Input File <==

--------------------------------------------------------------------------
#psi4
#
memory 32 gb

molecule  {
0 1
  O        1.6269320     1.1045440    -0.3563700
  O        1.6269410    -1.1045380    -0.3563700
  N        1.1984691    -0.0887681     0.0903240
  C       -1.2290370    -0.0000020     0.4263420
  C        0.1538230    -0.0000020     1.0857690
  C       -1.4714760    -1.2642140    -0.3967350
  C       -1.4714800     1.2642120    -0.3967320
  H       -1.9318800    -0.0000060     1.2712410
  H        0.3118450     0.8984460     1.6853920
  H        0.3118480    -0.8984510     1.6853890
  H       -0.8055150    -1.3049070    -1.2625520
  H       -2.5029200    -1.2793330    -0.7603930
  H       -1.3046420    -2.1677380     0.1971180
  H       -1.3046550     2.1677340     0.1971270
  H       -0.8055150     1.3049140    -1.2625460
  H       -2.5029220     1.2793270    -0.7603950
units angstrom
no_reorient  #important for SAPT in psi4, default
symmetry c1  #important for SAPT in psi4, default
}

set PROPERTIES_ORIGIN ["COM"]
properties('MP2/aug-cc-pvtz', properties = ['dipole'])
--------------------------------------------------------------------------

    Molecular point group: c1
  Charge       = 0
  Multiplicity = 1
  Basis Set: AUG-CC-PVTZ
    Blend: AUG-CC-PVTZ
  Basis Set: (AUG-CC-PVTZ AUX)
    Blend: AUG-CC-PVTZ-JKFIT

    Orbital Energies [Eh]
    ---------------------

    Doubly Occupied:

       1A    -20.638830     2A    -20.572919     3A    -15.843887
       4A    -11.306646     5A    -11.266908     6A    -11.232088
       7A    -11.226217     8A     -1.600135     9A     -1.344771
      10A     -1.154786    11A     -1.052960    12A     -0.949064
      13A     -0.884404    14A     -0.808534    15A     -0.744451
      16A     -0.729583    17A     -0.707943    18A     -0.635246
      19A     -0.629148    20A     -0.608451    21A     -0.557152
      22A     -0.546018    23A     -0.518331    24A     -0.502243
      25A     -0.497540    26A     -0.483860    27A     -0.466328
      28A     -0.438376

  @DF-RHF Final Energy:  -360.88180123390640

   => Energetics <=

    Nuclear Repulsion Energy =            328.6105030343018711
    One-Electron Energy =               -1143.0909724022753835
    Two-Electron Energy =                 453.5986681340670543
    Total Energy =                       -360.8818012339064012
  Basis Set: (AUG-CC-PVTZ AUX)
    Blend: AUG-CC-PVTZ-RI
    Molecular point group: c1

    Geometry (in Angstrom), charge = 0, multiplicity = 1:

       Center              X                  Y                   Z               Mass
    ------------   -----------------  -----------------  -----------------  -----------------
         O            1.529973704705     1.116604705115    -0.351387208995    15.994914619570
         O            1.529982704705    -1.092477294885    -0.351387208995    15.994914619570
         N            1.101510804705    -0.076707394885     0.095306791005    14.003074004430
         C           -1.325995295295     0.012058705115     0.431324791005    12.000000000000
         C            0.056864704705     0.012058705115     1.090751791005    12.000000000000
         C           -1.568434295295    -1.252153294885    -0.391752208995    12.000000000000
         C           -1.568438295295     1.276272705115    -0.391749208995    12.000000000000
         H           -2.028838295295     0.012054705115     1.276223791005     1.007825032230
         H            0.214886704705     0.910506705115     1.690374791005     1.007825032230
         H            0.214889704705    -0.886390294885     1.690371791005     1.007825032230
         H           -0.902473295295    -1.292846294885    -1.257569208995     1.007825032230
         H           -2.599878295295    -1.267272294885    -0.755410208995     1.007825032230
         H           -1.401600295295    -2.155677294885     0.202100791005     1.007825032230
         H           -1.401613295295     2.179794705115     0.202109791005     1.007825032230
         H           -0.902473295295     1.316974705115    -1.257563208995     1.007825032230
         H           -2.599880295295     1.291387705115    -0.755412208995     1.007825032230

  Basis Set: AUG-CC-PVTZ
    Blend: AUG-CC-PVTZ
  Basis Set: (AUG-CC-PVTZ AUX)
    Blend: AUG-CC-PVTZ-JKFIT
	 Reference Energy          =    -360.8818012339064012 [Eh]
	 Singles Energy            =      -0.0000000000000000 [Eh]
	 Same-Spin Energy          =      -0.3693103856844490 [Eh]
	 Opposite-Spin Energy      =      -1.1821882121289935 [Eh]
	 Correlation Energy        =      -1.5514985978134423 [Eh]
	 Total Energy              =    -362.4332998317198644 [Eh]

	 ================> DF-SCS-MP2 Energies <==================
	-----------------------------------------------------------
	 SCS Same-Spin Scale       =       0.3333333333333333 [-]
	 SCS Opposite-Spin Scale   =       1.2000000000000000 [-]
	 SCS Same-Spin Energy      =      -0.1231034618948163 [Eh]
	 SCS Opposite-Spin Energy  =      -1.4186258545547921 [Eh]
	 SCS Correlation Energy    =      -1.5417293164496084 [Eh]
	 SCS Total Energy          =    -362.4235305503560198 [Eh]
	-----------------------------------------------------------

  Dipole Moment: [D]
     X:    -3.1630      Y:    -0.4709      Z:     2.2755     Total:     3.9248

*** Psi4 exiting successfully. Buy a developer a beer!
