                               Psi4 1.4a3.dev225

  ==> Input File <==

--------------------------------------------------------------------------
#psi4
#
memory 32 gb

molecule  {
0 1
  O        1.6269320     1.1045440    -0.3563700
  O        1.6269410    -1.1045380    -0.3563700
  N        1.2303420     0.0000010     0.0570950
  C       -1.2290370    -0.0000020     0.4263420
  C        0.1538230    -0.0000020     1.0857690
  C       -1.4714760    -1.2642140    -0.3967350
  C       -1.4714800     1.2642120    -0.3967320
  H       -1.9318800    -0.0000060     1.2712410
  H        0.3118450     0.8984460     1.6853920
  H        0.3118480    -0.8984510     1.6853890
  H       -0.8055150    -1.3049070    -1.2625520
  H       -2.5972210    -1.2807153    -0.7936409
  H       -1.3046420    -2.1677380     0.1971180
  H       -1.3046550     2.1677340     0.1971270
  H       -0.8055150     1.3049140    -1.2625460
  H       -2.5029220     1.2793270    -0.7603950
units angstrom
no_reorient  #important for SAPT in psi4, default
symmetry c1  #important for SAPT in psi4, default
}

set PROPERTIES_ORIGIN ["COM"]
properties('MP2/aug-cc-pvtz', properties = ['dipole'])
--------------------------------------------------------------------------

    Molecular point group: c1
  Charge       = 0
  Multiplicity = 1
  Basis Set: AUG-CC-PVTZ
    Blend: AUG-CC-PVTZ
  Basis Set: (AUG-CC-PVTZ AUX)
    Blend: AUG-CC-PVTZ-JKFIT

    Orbital Energies [Eh]
    ---------------------

    Doubly Occupied:

       1A    -20.606770     2A    -20.606710     3A    -15.846405
       4A    -11.307025     5A    -11.265669     6A    -11.240175
       7A    -11.228270     8A     -1.584931     9A     -1.385616
      10A     -1.144349    11A     -1.040750    12A     -0.943820
      13A     -0.880176    14A     -0.803423    15A     -0.738197
      16A     -0.729189    17A     -0.706131    18A     -0.637396
      19A     -0.627831    20A     -0.606269    21A     -0.558023
      22A     -0.535591    23A     -0.515271    24A     -0.501980
      25A     -0.497016    26A     -0.485373    27A     -0.474479
      28A     -0.448730

  @DF-RHF Final Energy:  -360.89290555111188

   => Energetics <=

    Nuclear Repulsion Energy =            328.0505791549185801
    One-Electron Energy =               -1141.9958443864700257
    Two-Electron Energy =                 453.0523596804396220
    Total Energy =                       -360.8929055511118804
  Basis Set: (AUG-CC-PVTZ AUX)
    Blend: AUG-CC-PVTZ-RI
    Molecular point group: c1

    Geometry (in Angstrom), charge = 0, multiplicity = 1:

       Center              X                  Y                   Z               Mass
    ------------   -----------------  -----------------  -----------------  -----------------
         O            1.526565318094     1.104557285555    -0.346547308916    15.994914619570
         O            1.526574318094    -1.104524714445    -0.346547308916    15.994914619570
         N            1.129975318094     0.000014285555     0.066917691084    14.003074004430
         C           -1.329403681906     0.000011285555     0.436164691084    12.000000000000
         C            0.053456318094     0.000011285555     1.095591691084    12.000000000000
         C           -1.571842681906    -1.264200714445    -0.386912308916    12.000000000000
         C           -1.571846681906     1.264225285555    -0.386909308916    12.000000000000
         H           -2.032246681906     0.000007285555     1.281063691084     1.007825032230
         H            0.211478318094     0.898459285555     1.695214691084     1.007825032230
         H            0.211481318094    -0.898437714445     1.695211691084     1.007825032230
         H           -0.905881681906    -1.304893714445    -1.252729308916     1.007825032230
         H           -2.697587681906    -1.280702014445    -0.783818208916     1.007825032230
         H           -1.405008681906    -2.167724714445     0.206940691084     1.007825032230
         H           -1.405021681906     2.167747285555     0.206949691084     1.007825032230
         H           -0.905881681906     1.304927285555    -1.252723308916     1.007825032230
         H           -2.603288681906     1.279340285555    -0.750572308916     1.007825032230

  Basis Set: AUG-CC-PVTZ
    Blend: AUG-CC-PVTZ
  Basis Set: (AUG-CC-PVTZ AUX)
    Blend: AUG-CC-PVTZ-JKFIT
	 Reference Energy          =    -360.8929055511118804 [Eh]
	 Singles Energy            =      -0.0000000000000000 [Eh]
	 Same-Spin Energy          =      -0.3688965373089563 [Eh]
	 Opposite-Spin Energy      =      -1.1819673184518549 [Eh]
	 Correlation Energy        =      -1.5508638557608112 [Eh]
	 Total Energy              =    -362.4437694068727183 [Eh]

	 ================> DF-SCS-MP2 Energies <==================
	-----------------------------------------------------------
	 SCS Same-Spin Scale       =       0.3333333333333333 [-]
	 SCS Opposite-Spin Scale   =       1.2000000000000000 [-]
	 SCS Same-Spin Energy      =      -0.1229655124363188 [Eh]
	 SCS Opposite-Spin Energy  =      -1.4183607821422257 [Eh]
	 SCS Correlation Energy    =      -1.5413262945785444 [Eh]
	 SCS Total Energy          =    -362.4342318456904195 [Eh]
	-----------------------------------------------------------

  Dipole Moment: [D]
     X:    -2.9223      Y:     0.0187      Z:     2.1979     Total:     3.6566

*** Psi4 exiting successfully. Buy a developer a beer!
