                               Psi4 1.4a3.dev225

  ==> Input File <==

--------------------------------------------------------------------------
#psi4
#
memory 32 gb

molecule  {
0 1
  O        1.6135275     1.1143746    -0.3423953
  O        1.6269410    -1.1045380    -0.3563700
  N        1.2303420     0.0000010     0.0570950
  C       -1.2290370    -0.0000020     0.4263420
  C        0.1538230    -0.0000020     1.0857690
  C       -1.4714760    -1.2642140    -0.3967350
  C       -1.4714800     1.2642120    -0.3967320
  H       -1.9318800    -0.0000060     1.2712410
  H        0.3118450     0.8984460     1.6853920
  H        0.3118480    -0.8984510     1.6853890
  H       -0.8055150    -1.3049070    -1.2625520
  H       -2.5029200    -1.2793330    -0.7603930
  H       -1.3046420    -2.1677380     0.1971180
  H       -1.3046550     2.1677340     0.1971270
  H       -0.8055150     1.3049140    -1.2625460
  H       -2.5029220     1.2793270    -0.7603950
units angstrom
no_reorient  #important for SAPT in psi4, default
symmetry c1  #important for SAPT in psi4, default
}

set PROPERTIES_ORIGIN ["COM"]
properties('MP2/aug-cc-pvtz', properties = ['dipole'])
--------------------------------------------------------------------------

    Molecular point group: c1
  Charge       = 0
  Multiplicity = 1
  Basis Set: AUG-CC-PVTZ
    Blend: AUG-CC-PVTZ
  Basis Set: (AUG-CC-PVTZ AUX)
    Blend: AUG-CC-PVTZ-JKFIT

    Orbital Energies [Eh]
    ---------------------

    Doubly Occupied:

       1A    -20.607273     2A    -20.606768     3A    -15.846071
       4A    -11.304969     5A    -11.264192     6A    -11.228046
       7A    -11.227918     8A     -1.584220     9A     -1.386968
      10A     -1.143028    11A     -1.041139    12A     -0.947689
      13A     -0.881160    14A     -0.804410    15A     -0.738288
      16A     -0.729279    17A     -0.705451    18A     -0.637921
      19A     -0.628598    20A     -0.607697    21A     -0.557352
      22A     -0.544363    23A     -0.516405    24A     -0.501692
      25A     -0.499773    26A     -0.485021    27A     -0.473957
      28A     -0.449351

  @DF-RHF Final Energy:  -360.89911048788645

   => Energetics <=

    Nuclear Repulsion Energy =            328.5857739421159636
    One-Electron Energy =               -1143.0717673648230175
    Two-Electron Energy =                 453.5868829348205509
    Total Energy =                       -360.8991104878864462
  Basis Set: (AUG-CC-PVTZ AUX)
    Blend: AUG-CC-PVTZ-RI
    Molecular point group: c1

    Geometry (in Angstrom), charge = 0, multiplicity = 1:

       Center              X                  Y                   Z               Mass
    ------------   -----------------  -----------------  -----------------  -----------------
         O            1.514318988768     1.112848708367    -0.335066533795    15.994914619570
         O            1.527732488768    -1.106063891633    -0.349041233795    15.994914619570
         N            1.131133488768    -0.001524891633     0.064423766205    14.003074004430
         C           -1.328245511232    -0.001527891633     0.433670766205    12.000000000000
         C            0.054614488768    -0.001527891633     1.093097766205    12.000000000000
         C           -1.570684511232    -1.265739891633    -0.389406233795    12.000000000000
         C           -1.570688511232     1.262686108367    -0.389403233795    12.000000000000
         H           -2.031088511232    -0.001531891633     1.278569766205     1.007825032230
         H            0.212636488768     0.896920108367     1.692720766205     1.007825032230
         H            0.212639488768    -0.899976891633     1.692717766205     1.007825032230
         H           -0.904723511232    -1.306432891633    -1.255223233795     1.007825032230
         H           -2.602128511232    -1.280858891633    -0.753064233795     1.007825032230
         H           -1.403850511232    -2.169263891633     0.204446766205     1.007825032230
         H           -1.403863511232     2.166208108367     0.204455766205     1.007825032230
         H           -0.904723511232     1.303388108367    -1.255217233795     1.007825032230
         H           -2.602130511232     1.277801108367    -0.753066233795     1.007825032230

  Basis Set: AUG-CC-PVTZ
    Blend: AUG-CC-PVTZ
  Basis Set: (AUG-CC-PVTZ AUX)
    Blend: AUG-CC-PVTZ-JKFIT
	 Reference Energy          =    -360.8991104878864462 [Eh]
	 Singles Energy            =      -0.0000000000000000 [Eh]
	 Same-Spin Energy          =      -0.3689712791971204 [Eh]
	 Opposite-Spin Energy      =      -1.1813407168612946 [Eh]
	 Correlation Energy        =      -1.5503119960584151 [Eh]
	 Total Energy              =    -362.4494224839448862 [Eh]

	 ================> DF-SCS-MP2 Energies <==================
	-----------------------------------------------------------
	 SCS Same-Spin Scale       =       0.3333333333333333 [-]
	 SCS Opposite-Spin Scale   =       1.2000000000000000 [-]
	 SCS Same-Spin Energy      =      -0.1229904263990401 [Eh]
	 SCS Opposite-Spin Energy  =      -1.4176088602335535 [Eh]
	 SCS Correlation Energy    =      -1.5405992866325935 [Eh]
	 SCS Total Energy          =    -362.4397097745190308 [Eh]
	-----------------------------------------------------------

  Dipole Moment: [D]
     X:    -2.9553      Y:    -0.0105      Z:     2.1427     Total:     3.6504

*** Psi4 exiting successfully. Buy a developer a beer!
