                               Psi4 1.4a3.dev225

  ==> Input File <==

--------------------------------------------------------------------------
#psi4
#
memory 32 gb

molecule  {
0 1
  O        1.6269320     1.1045440    -0.3563700
  O        1.6269410    -1.1045380    -0.3563700
  N        1.2303420     0.0000010     0.0570950
  C       -1.2290370    -0.0000020     0.4263420
  C        0.1538230    -0.0000020     1.0857690
  C       -1.4714760    -1.2642140    -0.3967350
  C       -1.4714800     1.2642120    -0.3967320
  H       -1.9318800    -0.0000060     1.2712410
  H        0.3118450     0.8984460     1.6853920
  H        0.3118480    -0.8984510     1.6853890
  H       -0.8124124    -1.2881216    -1.2684360
  H       -2.5029200    -1.2793330    -0.7603930
  H       -1.3046420    -2.1677380     0.1971180
  H       -1.3046550     2.1677340     0.1971270
  H       -0.8055150     1.3049140    -1.2625460
  H       -2.5029220     1.2793270    -0.7603950
units angstrom
no_reorient  #important for SAPT in psi4, default
symmetry c1  #important for SAPT in psi4, default
}

set PROPERTIES_ORIGIN ["COM"]
properties('MP2/aug-cc-pvtz', properties = ['dipole'])
--------------------------------------------------------------------------

    Molecular point group: c1
  Charge       = 0
  Multiplicity = 1
  Basis Set: AUG-CC-PVTZ
    Blend: AUG-CC-PVTZ
  Basis Set: (AUG-CC-PVTZ AUX)
    Blend: AUG-CC-PVTZ-JKFIT

    Orbital Energies [Eh]
    ---------------------

    Doubly Occupied:

       1A    -20.605993     2A    -20.605939     3A    -15.845628
       4A    -11.305939     5A    -11.264487     6A    -11.228318
       7A    -11.228257     8A     -1.584150     9A     -1.384841
      10A     -1.143880    11A     -1.041853    12A     -0.947889
      13A     -0.881251    14A     -0.804030    15A     -0.738283
      16A     -0.728548    17A     -0.705288    18A     -0.638034
      19A     -0.629192    20A     -0.608001    21A     -0.557489
      22A     -0.544373    23A     -0.516847    24A     -0.501251
      25A     -0.500257    26A     -0.484423    27A     -0.474592
      28A     -0.448219

  @DF-RHF Final Energy:  -360.89935211748849

   => Energetics <=

    Nuclear Repulsion Energy =            328.4944268816895487
    One-Electron Energy =               -1142.8930525964035496
    Two-Electron Energy =                 453.4992735972254536
    Total Energy =                       -360.8993521174884904
  Basis Set: (AUG-CC-PVTZ AUX)
    Blend: AUG-CC-PVTZ-RI
    Molecular point group: c1

    Geometry (in Angstrom), charge = 0, multiplicity = 1:

       Center              X                  Y                   Z               Mass
    ------------   -----------------  -----------------  -----------------  -----------------
         O            1.525710624798     1.104379629127    -0.346814892195    15.994914619570
         O            1.525719624798    -1.104702370873    -0.346814892195    15.994914619570
         N            1.129120624798    -0.000163370873     0.066650107805    14.003074004430
         C           -1.330258375202    -0.000166370873     0.435897107805    12.000000000000
         C            0.052601624798    -0.000166370873     1.095324107805    12.000000000000
         C           -1.572697375202    -1.264378370873    -0.387179892195    12.000000000000
         C           -1.572701375202     1.264047629127    -0.387176892195    12.000000000000
         H           -2.033101375202    -0.000170370873     1.280796107805     1.007825032230
         H            0.210623624798     0.898281629127     1.694947107805     1.007825032230
         H            0.210626624798    -0.898615370873     1.694944107805     1.007825032230
         H           -0.913633775202    -1.288285970873    -1.258880892195     1.007825032230
         H           -2.604141375202    -1.279497370873    -0.750837892195     1.007825032230
         H           -1.405863375202    -2.167902370873     0.206673107805     1.007825032230
         H           -1.405876375202     2.167569629127     0.206682107805     1.007825032230
         H           -0.906736375202     1.304749629127    -1.252990892195     1.007825032230
         H           -2.604143375202     1.279162629127    -0.750839892195     1.007825032230

  Basis Set: AUG-CC-PVTZ
    Blend: AUG-CC-PVTZ
  Basis Set: (AUG-CC-PVTZ AUX)
    Blend: AUG-CC-PVTZ-JKFIT
	 Reference Energy          =    -360.8993521174884904 [Eh]
	 Singles Energy            =      -0.0000000000000000 [Eh]
	 Same-Spin Energy          =      -0.3689117300793988 [Eh]
	 Opposite-Spin Energy      =      -1.1812526766231359 [Eh]
	 Correlation Energy        =      -1.5501644067025346 [Eh]
	 Total Energy              =    -362.4495165241910399 [Eh]

	 ================> DF-SCS-MP2 Energies <==================
	-----------------------------------------------------------
	 SCS Same-Spin Scale       =       0.3333333333333333 [-]
	 SCS Opposite-Spin Scale   =       1.2000000000000000 [-]
	 SCS Same-Spin Energy      =      -0.1229705766931329 [Eh]
	 SCS Opposite-Spin Energy  =      -1.4175032119477631 [Eh]
	 SCS Correlation Energy    =      -1.5404737886408959 [Eh]
	 SCS Total Energy          =    -362.4398259061293857 [Eh]
	-----------------------------------------------------------

  Dipole Moment: [D]
     X:    -2.9954      Y:     0.0023      Z:     2.1685     Total:     3.6980

*** Psi4 exiting successfully. Buy a developer a beer!
