                               Psi4 1.4a3.dev225

  ==> Input File <==

--------------------------------------------------------------------------
#psi4
#
memory 32 gb

molecule  {
0 1
  O        1.6269320     1.1045440    -0.3563700
  O        1.6823172    -1.0619302    -0.4079545
  N        1.2303420     0.0000010     0.0570950
  C       -1.2290370    -0.0000020     0.4263420
  C        0.1538230    -0.0000020     1.0857690
  C       -1.4714760    -1.2642140    -0.3967350
  C       -1.4714800     1.2642120    -0.3967320
  H       -1.9318800    -0.0000060     1.2712410
  H        0.3118450     0.8984460     1.6853920
  H        0.3118480    -0.8984510     1.6853890
  H       -0.8055150    -1.3049070    -1.2625520
  H       -2.5029200    -1.2793330    -0.7603930
  H       -1.3046420    -2.1677380     0.1971180
  H       -1.3046550     2.1677340     0.1971270
  H       -0.8055150     1.3049140    -1.2625460
  H       -2.5029220     1.2793270    -0.7603950
units angstrom
no_reorient  #important for SAPT in psi4, default
symmetry c1  #important for SAPT in psi4, default
}

set PROPERTIES_ORIGIN ["COM"]
properties('MP2/aug-cc-pvtz', properties = ['dipole'])
--------------------------------------------------------------------------

    Molecular point group: c1
  Charge       = 0
  Multiplicity = 1
  Basis Set: AUG-CC-PVTZ
    Blend: AUG-CC-PVTZ
  Basis Set: (AUG-CC-PVTZ AUX)
    Blend: AUG-CC-PVTZ-JKFIT

    Orbital Energies [Eh]
    ---------------------

    Doubly Occupied:

       1A    -20.602710     2A    -20.600809     3A    -15.843930
       4A    -11.309897     5A    -11.266264     6A    -11.229511
       7A    -11.228915     8A     -1.584279     9A     -1.376253
      10A     -1.147143    11A     -1.044323    12A     -0.948979
      13A     -0.881720    14A     -0.803086    15A     -0.738419
      16A     -0.725686    17A     -0.705271    18A     -0.638396
      19A     -0.629691    20A     -0.609275    21A     -0.557705
      22A     -0.545505    23A     -0.518945    24A     -0.501828
      25A     -0.499093    26A     -0.480937    27A     -0.477597
      28A     -0.443656

  @DF-RHF Final Energy:  -360.89854743236816

   => Energetics <=

    Nuclear Repulsion Energy =            328.1086049412551233
    One-Electron Energy =               -1142.1346613504038032
    Two-Electron Energy =                 453.1275089767804616
    Total Energy =                       -360.8985474323681615
  Basis Set: (AUG-CC-PVTZ AUX)
    Blend: AUG-CC-PVTZ-RI
    Molecular point group: c1

    Geometry (in Angstrom), charge = 0, multiplicity = 1:

       Center              X                  Y                   Z               Mass
    ------------   -----------------  -----------------  -----------------  -----------------
         O            1.517049067132     1.097931250384    -0.338866772894    15.994914619570
         O            1.572434267132    -1.068542949616    -0.390451272894    15.994914619570
         N            1.120459067132    -0.006611749616     0.074598227106    14.003074004430
         C           -1.338919932868    -0.006614749616     0.443845227106    12.000000000000
         C            0.043940067132    -0.006614749616     1.103272227106    12.000000000000
         C           -1.581358932868    -1.270826749616    -0.379231772894    12.000000000000
         C           -1.581362932868     1.257599250384    -0.379228772894    12.000000000000
         H           -2.041762932868    -0.006618749616     1.288744227106     1.007825032230
         H            0.201962067132     0.891833250384     1.702895227106     1.007825032230
         H            0.201965067132    -0.905063749616     1.702892227106     1.007825032230
         H           -0.915397932868    -1.311519749616    -1.245048772894     1.007825032230
         H           -2.612802932868    -1.285945749616    -0.742889772894     1.007825032230
         H           -1.414524932868    -2.174350749616     0.214621227106     1.007825032230
         H           -1.414537932868     2.161121250384     0.214630227106     1.007825032230
         H           -0.915397932868     1.298301250384    -1.245042772894     1.007825032230
         H           -2.612804932868     1.272714250384    -0.742891772894     1.007825032230

  Basis Set: AUG-CC-PVTZ
    Blend: AUG-CC-PVTZ
  Basis Set: (AUG-CC-PVTZ AUX)
    Blend: AUG-CC-PVTZ-JKFIT
	 Reference Energy          =    -360.8985474323681615 [Eh]
	 Singles Energy            =      -0.0000000000000000 [Eh]
	 Same-Spin Energy          =      -0.3686760518307444 [Eh]
	 Opposite-Spin Energy      =      -1.1808952018127468 [Eh]
	 Correlation Energy        =      -1.5495712536434911 [Eh]
	 Total Energy              =    -362.4481186860116395 [Eh]

	 ================> DF-SCS-MP2 Energies <==================
	-----------------------------------------------------------
	 SCS Same-Spin Scale       =       0.3333333333333333 [-]
	 SCS Opposite-Spin Scale   =       1.2000000000000000 [-]
	 SCS Same-Spin Energy      =      -0.1228920172769148 [Eh]
	 SCS Opposite-Spin Energy  =      -1.4170742421752960 [Eh]
	 SCS Correlation Energy    =      -1.5399662594522108 [Eh]
	 SCS Total Energy          =    -362.4385136918203898 [Eh]
	-----------------------------------------------------------

  Dipole Moment: [D]
     X:    -3.1315      Y:    -0.0472      Z:     2.2698     Total:     3.8679

*** Psi4 exiting successfully. Buy a developer a beer!
