                               Psi4 1.4a3.dev225

  ==> Input File <==

--------------------------------------------------------------------------
#psi4
#
memory 32 gb

molecule  {
0 1
  O        1.6269320     1.1045440    -0.3563700
  O        1.6269410    -1.1045380    -0.3563700
  N        1.2303420     0.0000010     0.0570950
  C       -1.2290370    -0.0000020     0.4263420
  C        0.1538230    -0.0000020     1.0857690
  C       -1.4714760    -1.2642140    -0.3967350
  C       -1.4714800     1.2642120    -0.3967320
  H       -1.9318800    -0.0000060     1.2712410
  H        0.3118450     0.8984460     1.6853920
  H        0.3118480    -0.8984510     1.6853890
  H       -0.8055150    -1.3049070    -1.2625520
  H       -2.5029200    -1.2793330    -0.7603930
  H       -1.3076920    -2.1512203     0.1862615
  H       -1.3046550     2.1677340     0.1971270
  H       -0.8055150     1.3049140    -1.2625460
  H       -2.5029220     1.2793270    -0.7603950
units angstrom
no_reorient  #important for SAPT in psi4, default
symmetry c1  #important for SAPT in psi4, default
}

set PROPERTIES_ORIGIN ["COM"]
properties('MP2/aug-cc-pvtz', properties = ['dipole'])
--------------------------------------------------------------------------

    Molecular point group: c1
  Charge       = 0
  Multiplicity = 1
  Basis Set: AUG-CC-PVTZ
    Blend: AUG-CC-PVTZ
  Basis Set: (AUG-CC-PVTZ AUX)
    Blend: AUG-CC-PVTZ-JKFIT

    Orbital Energies [Eh]
    ---------------------

    Doubly Occupied:

       1A    -20.606033     2A    -20.605982     3A    -15.845676
       4A    -11.305967     5A    -11.264420     6A    -11.228034
       7A    -11.225756     8A     -1.584188     9A     -1.384888
      10A     -1.143916    11A     -1.042002    12A     -0.949212
      13A     -0.881399    14A     -0.804386    15A     -0.738419
      16A     -0.728595    17A     -0.705500    18A     -0.637965
      19A     -0.629173    20A     -0.609558    21A     -0.557619
      22A     -0.544980    23A     -0.516872    24A     -0.501858
      25A     -0.500136    26A     -0.484752    27A     -0.474676
      28A     -0.448244

  @DF-RHF Final Energy:  -360.89942404260603

   => Energetics <=

    Nuclear Repulsion Energy =            328.5726258767879813
    One-Electron Energy =               -1143.0436902452563572
    Two-Electron Energy =                 453.5716403258624041
    Total Energy =                       -360.8994240426060287
  Basis Set: (AUG-CC-PVTZ AUX)
    Blend: AUG-CC-PVTZ-RI
    Molecular point group: c1

    Geometry (in Angstrom), charge = 0, multiplicity = 1:

       Center              X                  Y                   Z               Mass
    ------------   -----------------  -----------------  -----------------  -----------------
         O            1.525673002240     1.104382246884    -0.346766267625    15.994914619570
         O            1.525682002240    -1.104699753116    -0.346766267625    15.994914619570
         N            1.129083002240    -0.000160753116     0.066698732375    14.003074004430
         C           -1.330295997760    -0.000163753116     0.435945732375    12.000000000000
         C            0.052564002240    -0.000163753116     1.095372732375    12.000000000000
         C           -1.572734997760    -1.264375753116    -0.387131267625    12.000000000000
         C           -1.572738997760     1.264050246884    -0.387128267625    12.000000000000
         H           -2.033138997760    -0.000167753116     1.280844732375     1.007825032230
         H            0.210586002240     0.898284246884     1.694995732375     1.007825032230
         H            0.210589002240    -0.898612753116     1.694992732375     1.007825032230
         H           -0.906773997760    -1.305068753116    -1.252948267625     1.007825032230
         H           -2.604178997760    -1.279494753116    -0.750789267625     1.007825032230
         H           -1.408950997760    -2.151382053116     0.195865232375     1.007825032230
         H           -1.405913997760     2.167572246884     0.206730732375     1.007825032230
         H           -0.906773997760     1.304752246884    -1.252942267625     1.007825032230
         H           -2.604180997760     1.279165246884    -0.750791267625     1.007825032230

  Basis Set: AUG-CC-PVTZ
    Blend: AUG-CC-PVTZ
  Basis Set: (AUG-CC-PVTZ AUX)
    Blend: AUG-CC-PVTZ-JKFIT
	 Reference Energy          =    -360.8994240426060287 [Eh]
	 Singles Energy            =      -0.0000000000000000 [Eh]
	 Same-Spin Energy          =      -0.3689058942223282 [Eh]
	 Opposite-Spin Energy      =      -1.1811119612993932 [Eh]
	 Correlation Energy        =      -1.5500178555217214 [Eh]
	 Total Energy              =    -362.4494418981277590 [Eh]

	 ================> DF-SCS-MP2 Energies <==================
	-----------------------------------------------------------
	 SCS Same-Spin Scale       =       0.3333333333333333 [-]
	 SCS Opposite-Spin Scale   =       1.2000000000000000 [-]
	 SCS Same-Spin Energy      =      -0.1229686314074427 [Eh]
	 SCS Opposite-Spin Energy  =      -1.4173343535592717 [Eh]
	 SCS Correlation Energy    =      -1.5403029849667145 [Eh]
	 SCS Total Energy          =    -362.4397270275727578 [Eh]
	-----------------------------------------------------------

  Dipole Moment: [D]
     X:    -2.9897      Y:    -0.0111      Z:     2.1736     Total:     3.6964

*** Psi4 exiting successfully. Buy a developer a beer!
