                               Psi4 1.4a3.dev225

  ==> Input File <==

--------------------------------------------------------------------------
#psi4
#
memory 32 gb

molecule  {
0 1
  O        1.6269320     1.1045440    -0.3563700
  O        1.6269410    -1.1045380    -0.3563700
  N        1.2303420     0.0000010     0.0570950
  C       -1.2290370    -0.0000020     0.4263420
  C        0.1538230    -0.0000020     1.0857690
  C       -1.5860170    -1.3007868    -0.2912851
  C       -1.4714800     1.2642120    -0.3967320
  H       -1.9318800    -0.0000060     1.2712410
  H        0.3118450     0.8984460     1.6853920
  H        0.3118480    -0.8984510     1.6853890
  H       -0.8055150    -1.3049070    -1.2625520
  H       -2.5029200    -1.2793330    -0.7603930
  H       -1.3046420    -2.1677380     0.1971180
  H       -1.3046550     2.1677340     0.1971270
  H       -0.8055150     1.3049140    -1.2625460
  H       -2.5029220     1.2793270    -0.7603950
units angstrom
no_reorient  #important for SAPT in psi4, default
symmetry c1  #important for SAPT in psi4, default
}

set PROPERTIES_ORIGIN ["COM"]
properties('MP2/aug-cc-pvtz', properties = ['dipole'])
--------------------------------------------------------------------------

    Molecular point group: c1
  Charge       = 0
  Multiplicity = 1
  Basis Set: AUG-CC-PVTZ
    Blend: AUG-CC-PVTZ
  Basis Set: (AUG-CC-PVTZ AUX)
    Blend: AUG-CC-PVTZ-JKFIT

    Orbital Energies [Eh]
    ---------------------

    Doubly Occupied:

       1A    -20.605901     2A    -20.605630     3A    -15.845375
       4A    -11.307899     5A    -11.265914     6A    -11.232278
       7A    -11.229872     8A     -1.583825     9A     -1.384527
      10A     -1.143678    11A     -1.042999    12A     -0.951907
      13A     -0.881380    14A     -0.804396    15A     -0.738982
      16A     -0.728511    17A     -0.705555    18A     -0.643466
      19A     -0.624834    20A     -0.623233    21A     -0.562888
      22A     -0.540897    23A     -0.513257    24A     -0.509273
      25A     -0.494202    26A     -0.486623    27A     -0.455735
      28A     -0.444313

  @DF-RHF Final Energy:  -360.87612321595810

   => Energetics <=

    Nuclear Repulsion Energy =            327.5264985978623145
    One-Electron Energy =               -1140.8905401475988128
    Two-Electron Energy =                 452.4879183337783957
    Total Energy =                       -360.8761232159581027
  Basis Set: (AUG-CC-PVTZ AUX)
    Blend: AUG-CC-PVTZ-RI
    Molecular point group: c1

    Geometry (in Angstrom), charge = 0, multiplicity = 1:

       Center              X                  Y                   Z               Mass
    ------------   -----------------  -----------------  -----------------  -----------------
         O            1.538979559996     1.108802059033    -0.359150306358    15.994914619570
         O            1.538988559996    -1.100279940967    -0.359150306358    15.994914619570
         N            1.142389559996     0.004259059033     0.054314693642    14.003074004430
         C           -1.316989440004     0.004256059033     0.423561693642    12.000000000000
         C            0.065870559996     0.004256059033     1.082988693642    12.000000000000
         C           -1.673969440004    -1.296528740967    -0.294065406358    12.000000000000
         C           -1.559432440004     1.268470059033    -0.399512306358    12.000000000000
         H           -2.019832440004     0.004252059033     1.268460693642     1.007825032230
         H            0.223892559996     0.902704059033     1.682611693642     1.007825032230
         H            0.223895559996    -0.894192940967     1.682608693642     1.007825032230
         H           -0.893467440004    -1.300648940967    -1.265332306358     1.007825032230
         H           -2.590872440004    -1.275074940967    -0.763173306358     1.007825032230
         H           -1.392594440004    -2.163479940967     0.194337693642     1.007825032230
         H           -1.392607440004     2.171992059033     0.194346693642     1.007825032230
         H           -0.893467440004     1.309172059033    -1.265326306358     1.007825032230
         H           -2.590874440004     1.283585059033    -0.763175306358     1.007825032230

  Basis Set: AUG-CC-PVTZ
    Blend: AUG-CC-PVTZ
  Basis Set: (AUG-CC-PVTZ AUX)
    Blend: AUG-CC-PVTZ-JKFIT
	 Reference Energy          =    -360.8761232159581027 [Eh]
	 Singles Energy            =      -0.0000000000000000 [Eh]
	 Same-Spin Energy          =      -0.3693436831702940 [Eh]
	 Opposite-Spin Energy      =      -1.1823992176648357 [Eh]
	 Correlation Energy        =      -1.5517429008351298 [Eh]
	 Total Energy              =    -362.4278661167932114 [Eh]

	 ================> DF-SCS-MP2 Energies <==================
	-----------------------------------------------------------
	 SCS Same-Spin Scale       =       0.3333333333333333 [-]
	 SCS Opposite-Spin Scale   =       1.2000000000000000 [-]
	 SCS Same-Spin Energy      =      -0.1231145610567647 [Eh]
	 SCS Opposite-Spin Energy  =      -1.4188790611978028 [Eh]
	 SCS Correlation Energy    =      -1.5419936222545676 [Eh]
	 SCS Total Energy          =    -362.4181168382126543 [Eh]
	-----------------------------------------------------------

  Dipole Moment: [D]
     X:    -3.0184      Y:     0.0137      Z:     2.2297     Total:     3.7527

*** Psi4 exiting successfully. Buy a developer a beer!
