                               Psi4 1.4a3.dev225

  ==> Input File <==

--------------------------------------------------------------------------
#psi4
#
memory 32 gb

molecule  {
0 1
  O        1.6269320     1.1045440    -0.3563700
  O        1.6269410    -1.1045380    -0.3563700
  N        1.2303420     0.0000010     0.0570950
  C       -1.2290370    -0.0000020     0.4263420
  C        0.1538230    -0.0000020     1.0857690
  C       -1.4714760    -1.2642140    -0.3967350
  C       -1.4714800     1.2642120    -0.3967320
  H       -1.9190896    -0.0000059     1.2558655
  H        0.3118450     0.8984460     1.6853920
  H        0.3118480    -0.8984510     1.6853890
  H       -0.8055150    -1.3049070    -1.2625520
  H       -2.5029200    -1.2793330    -0.7603930
  H       -1.3046420    -2.1677380     0.1971180
  H       -1.3046550     2.1677340     0.1971270
  H       -0.8055150     1.3049140    -1.2625460
  H       -2.5029220     1.2793270    -0.7603950
units angstrom
no_reorient  #important for SAPT in psi4, default
symmetry c1  #important for SAPT in psi4, default
}

set PROPERTIES_ORIGIN ["COM"]
properties('MP2/aug-cc-pvtz', properties = ['dipole'])
--------------------------------------------------------------------------

    Molecular point group: c1
  Charge       = 0
  Multiplicity = 1
  Basis Set: AUG-CC-PVTZ
    Blend: AUG-CC-PVTZ
  Basis Set: (AUG-CC-PVTZ AUX)
    Blend: AUG-CC-PVTZ-JKFIT

    Orbital Energies [Eh]
    ---------------------

    Doubly Occupied:

       1A    -20.605928     2A    -20.605878     3A    -15.845594
       4A    -11.305835     5A    -11.262146     6A    -11.228054
       7A    -11.228038     8A     -1.584089     9A     -1.384789
      10A     -1.144288    11A     -1.042130    12A     -0.947798
      13A     -0.881685    14A     -0.805587    15A     -0.738218
      16A     -0.728499    17A     -0.706231    18A     -0.637927
      19A     -0.629898    20A     -0.607904    21A     -0.557310
      22A     -0.544467    23A     -0.517716    24A     -0.500825
      25A     -0.500275    26A     -0.484384    27A     -0.475656
      28A     -0.448165

  @DF-RHF Final Energy:  -360.89947953410115

   => Energetics <=

    Nuclear Repulsion Energy =            328.5901792291030006
    One-Electron Energy =               -1143.0806866792377150
    Two-Electron Energy =                 453.5910279160335676
    Total Energy =                       -360.8994795341011468
  Basis Set: (AUG-CC-PVTZ AUX)
    Blend: AUG-CC-PVTZ-RI
    Molecular point group: c1

    Geometry (in Angstrom), charge = 0, multiplicity = 1:

       Center              X                  Y                   Z               Mass
    ------------   -----------------  -----------------  -----------------  -----------------
         O            1.525518103773     1.104543767485    -0.346722077695    15.994914619570
         O            1.525527103773    -1.104538232515    -0.346722077695    15.994914619570
         N            1.128928103773     0.000000767485     0.066742922305    14.003074004430
         C           -1.330450896227    -0.000002232515     0.435989922305    12.000000000000
         C            0.052409103773    -0.000002232515     1.095416922305    12.000000000000
         C           -1.572889896227    -1.264214232515    -0.387087077695    12.000000000000
         C           -1.572893896227     1.264211767485    -0.387084077695    12.000000000000
         H           -2.020503496227    -0.000006132515     1.265513422305     1.007825032230
         H            0.210431103773     0.898445767485     1.695039922305     1.007825032230
         H            0.210434103773    -0.898451232515     1.695036922305     1.007825032230
         H           -0.906928896227    -1.304907232515    -1.252904077695     1.007825032230
         H           -2.604333896227    -1.279333232515    -0.750745077695     1.007825032230
         H           -1.406055896227    -2.167738232515     0.206765922305     1.007825032230
         H           -1.406068896227     2.167733767485     0.206774922305     1.007825032230
         H           -0.906928896227     1.304913767485    -1.252898077695     1.007825032230
         H           -2.604335896227     1.279326767485    -0.750747077695     1.007825032230

  Basis Set: AUG-CC-PVTZ
    Blend: AUG-CC-PVTZ
  Basis Set: (AUG-CC-PVTZ AUX)
    Blend: AUG-CC-PVTZ-JKFIT
	 Reference Energy          =    -360.8994795341011468 [Eh]
	 Singles Energy            =      -0.0000000000000000 [Eh]
	 Same-Spin Energy          =      -0.3688934532146556 [Eh]
	 Opposite-Spin Energy      =      -1.1810981349289031 [Eh]
	 Correlation Energy        =      -1.5499915881435586 [Eh]
	 Total Energy              =    -362.4494711222446881 [Eh]

	 ================> DF-SCS-MP2 Energies <==================
	-----------------------------------------------------------
	 SCS Same-Spin Scale       =       0.3333333333333333 [-]
	 SCS Opposite-Spin Scale   =       1.2000000000000000 [-]
	 SCS Same-Spin Energy      =      -0.1229644844048852 [Eh]
	 SCS Opposite-Spin Energy  =      -1.4173177619146837 [Eh]
	 SCS Correlation Energy    =      -1.5402822463195689 [Eh]
	 SCS Total Energy          =    -362.4397617804207243 [Eh]
	-----------------------------------------------------------

  Dipole Moment: [D]
     X:    -2.9966      Y:    -0.0000      Z:     2.1798     Total:     3.7055

*** Psi4 exiting successfully. Buy a developer a beer!
