                               Psi4 1.4a3.dev225

  ==> Input File <==

--------------------------------------------------------------------------
#psi4
#
memory 32 gb

molecule  {
0 1
  O        1.6269320     1.1045440    -0.3563700
  O        1.6269410    -1.1045380    -0.3563700
  N        1.2303420     0.0000010     0.0570950
  C       -1.2290370    -0.0000020     0.4263420
  C        0.1538230    -0.0000020     1.0857690
  C       -1.4714760    -1.2642140    -0.3967350
  C       -1.4714800     1.2642120    -0.3967320
  H       -1.9318800    -0.0000060     1.2712410
  H        0.3118450     0.8984460     1.6853920
  H        0.3118480    -0.8984510     1.6853890
  H       -0.8055150    -1.3049070    -1.2625520
  H       -2.6915219    -1.2820975    -0.8268887
  H       -1.3046420    -2.1677380     0.1971180
  H       -1.3046550     2.1677340     0.1971270
  H       -0.8055150     1.3049140    -1.2625460
  H       -2.5029220     1.2793270    -0.7603950
units angstrom
no_reorient  #important for SAPT in psi4, default
symmetry c1  #important for SAPT in psi4, default
}

set PROPERTIES_ORIGIN ["COM"]
properties('MP2/aug-cc-pvtz', properties = ['dipole'])
--------------------------------------------------------------------------

    Molecular point group: c1
  Charge       = 0
  Multiplicity = 1
  Basis Set: AUG-CC-PVTZ
    Blend: AUG-CC-PVTZ
  Basis Set: (AUG-CC-PVTZ AUX)
    Blend: AUG-CC-PVTZ-JKFIT

    Orbital Energies [Eh]
    ---------------------

    Doubly Occupied:

       1A    -20.607669     2A    -20.607579     3A    -15.847286
       4A    -11.308315     5A    -11.266967     6A    -11.251369
       7A    -11.228397     8A     -1.585822     9A     -1.386494
      10A     -1.145186    11A     -1.040452    12A     -0.941419
      13A     -0.879669    14A     -0.803236    15A     -0.738486
      16A     -0.729955    17A     -0.706997    18A     -0.637816
      19A     -0.627639    20A     -0.605004    21A     -0.559172
      22A     -0.530191    23A     -0.513520    24A     -0.503191
      25A     -0.491038    26A     -0.486276    27A     -0.472838
      28A     -0.449142

  @DF-RHF Final Energy:  -360.87939545258536

   => Energetics <=

    Nuclear Repulsion Energy =            327.6607037803843809
    One-Electron Energy =               -1141.1779492380383090
    Two-Electron Energy =                 452.6378500050685147
    Total Energy =                       -360.8793954525853565
  Basis Set: (AUG-CC-PVTZ AUX)
    Blend: AUG-CC-PVTZ-RI
    Molecular point group: c1

    Geometry (in Angstrom), charge = 0, multiplicity = 1:

       Center              X                  Y                   Z               Mass
    ------------   -----------------  -----------------  -----------------  -----------------
         O            1.527487457995     1.104570801670    -0.346222188763    15.994914619570
         O            1.527496457995    -1.104511198330    -0.346222188763    15.994914619570
         N            1.130897457995     0.000027801670     0.067242811237    14.003074004430
         C           -1.328481542005     0.000024801670     0.436489811237    12.000000000000
         C            0.054378457995     0.000024801670     1.095916811237    12.000000000000
         C           -1.570920542005    -1.264187198330    -0.386587188763    12.000000000000
         C           -1.570924542005     1.264238801670    -0.386584188763    12.000000000000
         H           -2.031324542005     0.000020801670     1.281388811237     1.007825032230
         H            0.212400457995     0.898472801670     1.695539811237     1.007825032230
         H            0.212403457995    -0.898424198330     1.695536811237     1.007825032230
         H           -0.904959542005    -1.304880198330    -1.252404188763     1.007825032230
         H           -2.790966442005    -1.282070698330    -0.816740888763     1.007825032230
         H           -1.404086542005    -2.167711198330     0.207265811237     1.007825032230
         H           -1.404099542005     2.167760801670     0.207274811237     1.007825032230
         H           -0.904959542005     1.304940801670    -1.252398188763     1.007825032230
         H           -2.602366542005     1.279353801670    -0.750247188763     1.007825032230

  Basis Set: AUG-CC-PVTZ
    Blend: AUG-CC-PVTZ
  Basis Set: (AUG-CC-PVTZ AUX)
    Blend: AUG-CC-PVTZ-JKFIT
	 Reference Energy          =    -360.8793954525853565 [Eh]
	 Singles Energy            =      -0.0000000000000000 [Eh]
	 Same-Spin Energy          =      -0.3688824478271363 [Eh]
	 Opposite-Spin Energy      =      -1.1828431770352759 [Eh]
	 Correlation Energy        =      -1.5517256248624123 [Eh]
	 Total Energy              =    -362.4311210774477559 [Eh]

	 ================> DF-SCS-MP2 Energies <==================
	-----------------------------------------------------------
	 SCS Same-Spin Scale       =       0.3333333333333333 [-]
	 SCS Opposite-Spin Scale   =       1.2000000000000000 [-]
	 SCS Same-Spin Energy      =      -0.1229608159423788 [Eh]
	 SCS Opposite-Spin Energy  =      -1.4194118124423309 [Eh]
	 SCS Correlation Energy    =      -1.5423726283847097 [Eh]
	 SCS Total Energy          =    -362.4217680809700823 [Eh]
	-----------------------------------------------------------

  Dipole Moment: [D]
     X:    -2.8401      Y:     0.0412      Z:     2.2321     Total:     3.6125

*** Psi4 exiting successfully. Buy a developer a beer!
