                               Psi4 1.4a3.dev225

  ==> Input File <==

--------------------------------------------------------------------------
#psi4
#
memory 32 gb

molecule  {
0 1
  O        1.6269320     1.1045440    -0.3563700
  O        1.6269410    -1.1045380    -0.3563700
  N        1.2940877     0.1775392    -0.0093631
  C       -1.2290370    -0.0000020     0.4263420
  C        0.1538230    -0.0000020     1.0857690
  C       -1.4714760    -1.2642140    -0.3967350
  C       -1.4714800     1.2642120    -0.3967320
  H       -1.9318800    -0.0000060     1.2712410
  H        0.3118450     0.8984460     1.6853920
  H        0.3118480    -0.8984510     1.6853890
  H       -0.8055150    -1.3049070    -1.2625520
  H       -2.5029200    -1.2793330    -0.7603930
  H       -1.3046420    -2.1677380     0.1971180
  H       -1.3046550     2.1677340     0.1971270
  H       -0.8055150     1.3049140    -1.2625460
  H       -2.5029220     1.2793270    -0.7603950
units angstrom
no_reorient  #important for SAPT in psi4, default
symmetry c1  #important for SAPT in psi4, default
}

set PROPERTIES_ORIGIN ["COM"]
properties('MP2/aug-cc-pvtz', properties = ['dipole'])
--------------------------------------------------------------------------

    Molecular point group: c1
  Charge       = 0
  Multiplicity = 1
  Basis Set: AUG-CC-PVTZ
    Blend: AUG-CC-PVTZ
  Basis Set: (AUG-CC-PVTZ AUX)
    Blend: AUG-CC-PVTZ-JKFIT

    Orbital Energies [Eh]
    ---------------------

    Doubly Occupied:

       1A    -20.669426     2A    -20.542057     3A    -15.834538
       4A    -11.300405     5A    -11.259767     6A    -11.232073
       7A    -11.220263     8A     -1.743124     9A     -1.333514
      10A     -1.125359    11A     -1.018258    12A     -0.945826
      13A     -0.888646    14A     -0.832653    15A     -0.783464
      16A     -0.761205    17A     -0.736291    18A     -0.641650
      19A     -0.637234    20A     -0.609156    21A     -0.554753
      22A     -0.541935    23A     -0.506480    24A     -0.499191
      25A     -0.492598    26A     -0.469155    27A     -0.438233
      28A     -0.424381

  @DF-RHF Final Energy:  -360.83828162930786

   => Energetics <=

    Nuclear Repulsion Energy =            329.1536541259202409
    One-Electron Energy =               -1143.9006011580836457
    Two-Electron Energy =                 453.9086654028556040
    Total Energy =                       -360.8382816293078577
  Basis Set: (AUG-CC-PVTZ AUX)
    Blend: AUG-CC-PVTZ-RI
    Molecular point group: c1

    Geometry (in Angstrom), charge = 0, multiplicity = 1:

       Center              X                  Y                   Z               Mass
    ------------   -----------------  -----------------  -----------------  -----------------
         O            1.516982135822     1.080421895158    -0.337842858561    15.994914619570
         O            1.516991135822    -1.128660104842    -0.337842858561    15.994914619570
         N            1.184137835822     0.153417095158     0.009164041439    14.003074004430
         C           -1.338986864178    -0.024124104842     0.444869141439    12.000000000000
         C            0.043873135822    -0.024124104842     1.104296141439    12.000000000000
         C           -1.581425864178    -1.288336104842    -0.378207858561    12.000000000000
         C           -1.581429864178     1.240089895158    -0.378204858561    12.000000000000
         H           -2.041829864178    -0.024128104842     1.289768141439     1.007825032230
         H            0.201895135822     0.874323895158     1.703919141439     1.007825032230
         H            0.201898135822    -0.922573104842     1.703916141439     1.007825032230
         H           -0.915464864178    -1.329029104842    -1.244024858561     1.007825032230
         H           -2.612869864178    -1.303455104842    -0.741865858561     1.007825032230
         H           -1.414591864178    -2.191860104842     0.215645141439     1.007825032230
         H           -1.414604864178     2.143611895158     0.215654141439     1.007825032230
         H           -0.915464864178     1.280791895158    -1.244018858561     1.007825032230
         H           -2.612871864178     1.255204895158    -0.741867858561     1.007825032230

  Basis Set: AUG-CC-PVTZ
    Blend: AUG-CC-PVTZ
  Basis Set: (AUG-CC-PVTZ AUX)
    Blend: AUG-CC-PVTZ-JKFIT
	 Reference Energy          =    -360.8382816293078577 [Eh]
	 Singles Energy            =      -0.0000000000000000 [Eh]
	 Same-Spin Energy          =      -0.3626759400721932 [Eh]
	 Opposite-Spin Energy      =      -1.1680486648908397 [Eh]
	 Correlation Energy        =      -1.5307246049630328 [Eh]
	 Total Energy              =    -362.3690062342708984 [Eh]

	 ================> DF-SCS-MP2 Energies <==================
	-----------------------------------------------------------
	 SCS Same-Spin Scale       =       0.3333333333333333 [-]
	 SCS Opposite-Spin Scale   =       1.2000000000000000 [-]
	 SCS Same-Spin Energy      =      -0.1208919800240644 [Eh]
	 SCS Opposite-Spin Energy  =      -1.4016583978690076 [Eh]
	 SCS Correlation Energy    =      -1.5225503778930720 [Eh]
	 SCS Total Energy          =    -362.3608320072009406 [Eh]
	-----------------------------------------------------------

  Dipole Moment: [D]
     X:    -2.7401      Y:     1.5299      Z:     1.9771     Total:     3.7092

*** Psi4 exiting successfully. Buy a developer a beer!
