                               Psi4 1.4a3.dev225

  ==> Input File <==

--------------------------------------------------------------------------
#psi4
#
memory 32 gb

molecule  {
0 1
  O        1.6269320     1.1045440    -0.3563700
  O        1.6269410    -1.1045380    -0.3563700
  N        1.2303420     0.0000010     0.0570950
  C       -1.2290370    -0.0000020     0.4263420
  C        0.1538230    -0.0000020     1.0857690
  C       -1.4714760    -1.2642140    -0.3967350
  C       -1.4635461     1.2228409    -0.3697971
  H       -1.9318800    -0.0000060     1.2712410
  H        0.3118450     0.8984460     1.6853920
  H        0.3118480    -0.8984510     1.6853890
  H       -0.8055150    -1.3049070    -1.2625520
  H       -2.5029200    -1.2793330    -0.7603930
  H       -1.3046420    -2.1677380     0.1971180
  H       -1.3046550     2.1677340     0.1971270
  H       -0.8055150     1.3049140    -1.2625460
  H       -2.5029220     1.2793270    -0.7603950
units angstrom
no_reorient  #important for SAPT in psi4, default
symmetry c1  #important for SAPT in psi4, default
}

set PROPERTIES_ORIGIN ["COM"]
properties('MP2/aug-cc-pvtz', properties = ['dipole'])
--------------------------------------------------------------------------

    Molecular point group: c1
  Charge       = 0
  Multiplicity = 1
  Basis Set: AUG-CC-PVTZ
    Blend: AUG-CC-PVTZ
  Basis Set: (AUG-CC-PVTZ AUX)
    Blend: AUG-CC-PVTZ-JKFIT

    Orbital Energies [Eh]
    ---------------------

    Doubly Occupied:

       1A    -20.606086     2A    -20.605970     3A    -15.845749
       4A    -11.306176     5A    -11.262741     6A    -11.230448
       7A    -11.228430     8A     -1.584234     9A     -1.384908
      10A     -1.148147    11A     -1.045596    12A     -0.947759
      13A     -0.880637    14A     -0.804023    15A     -0.738718
      16A     -0.728679    17A     -0.706947    18A     -0.639518
      19A     -0.631285    20A     -0.608381    21A     -0.555464
      22A     -0.541240    23A     -0.513913    24A     -0.509161
      25A     -0.495504    26A     -0.485295    27A     -0.473133
      28A     -0.447944

  @DF-RHF Final Energy:  -360.89620897100860

   => Energetics <=

    Nuclear Repulsion Energy =            329.2510349407589274
    One-Electron Energy =               -1144.3823104174571199
    Two-Electron Energy =                 454.2350665056895878
    Total Energy =                       -360.8962089710086047
  Basis Set: (AUG-CC-PVTZ AUX)
    Blend: AUG-CC-PVTZ-RI
    Molecular point group: c1

    Geometry (in Angstrom), charge = 0, multiplicity = 1:

       Center              X                  Y                   Z               Mass
    ------------   -----------------  -----------------  -----------------  -----------------
         O            1.524719407322     1.109360740775    -0.350008548437    15.994914619570
         O            1.524728407322    -1.099721259225    -0.350008548437    15.994914619570
         N            1.128129407322     0.004817740775     0.063456451563    14.003074004430
         C           -1.331249592678     0.004814740775     0.432703451563    12.000000000000
         C            0.051610407322     0.004814740775     1.092130451563    12.000000000000
         C           -1.573688592678    -1.259397259225    -0.390373548437    12.000000000000
         C           -1.565758692678     1.227657640775    -0.363435648437    12.000000000000
         H           -2.034092592678     0.004810740775     1.277602451563     1.007825032230
         H            0.209632407322     0.903262740775     1.691753451563     1.007825032230
         H            0.209635407322    -0.893634259225     1.691750451563     1.007825032230
         H           -0.907727592678    -1.300090259225    -1.256190548437     1.007825032230
         H           -2.605132592678    -1.274516259225    -0.754031548437     1.007825032230
         H           -1.406854592678    -2.162921259225     0.203479451563     1.007825032230
         H           -1.406867592678     2.172550740775     0.203488451563     1.007825032230
         H           -0.907727592678     1.309730740775    -1.256184548437     1.007825032230
         H           -2.605134592678     1.284143740775    -0.754033548437     1.007825032230

  Basis Set: AUG-CC-PVTZ
    Blend: AUG-CC-PVTZ
  Basis Set: (AUG-CC-PVTZ AUX)
    Blend: AUG-CC-PVTZ-JKFIT
	 Reference Energy          =    -360.8962089710086047 [Eh]
	 Singles Energy            =      -0.0000000000000000 [Eh]
	 Same-Spin Energy          =      -0.3694077329038951 [Eh]
	 Opposite-Spin Energy      =      -1.1817860675669873 [Eh]
	 Correlation Energy        =      -1.5511938004708825 [Eh]
	 Total Energy              =    -362.4474027714794602 [Eh]

	 ================> DF-SCS-MP2 Energies <==================
	-----------------------------------------------------------
	 SCS Same-Spin Scale       =       0.3333333333333333 [-]
	 SCS Opposite-Spin Scale   =       1.2000000000000000 [-]
	 SCS Same-Spin Energy      =      -0.1231359109679650 [Eh]
	 SCS Opposite-Spin Energy  =      -1.4181432810803847 [Eh]
	 SCS Correlation Energy    =      -1.5412791920483497 [Eh]
	 SCS Total Energy          =    -362.4374881630569689 [Eh]
	-----------------------------------------------------------

  Dipole Moment: [D]
     X:    -2.9906      Y:     0.0045      Z:     2.1660     Total:     3.6926

*** Psi4 exiting successfully. Buy a developer a beer!
