                               Psi4 1.4a3.dev225

  ==> Input File <==

--------------------------------------------------------------------------
#psi4
#
memory 32 gb

molecule  {
0 1
  O        1.6269320     1.1045440    -0.3563700
  O        1.6269410    -1.1045380    -0.3563700
  N        1.2303420     0.0000010     0.0570950
  C       -1.2290370    -0.0000020     0.4263420
  C        0.1538230    -0.0000020     1.0857690
  C       -1.4714760    -1.2642140    -0.3967350
  C       -1.4714800     1.2642120    -0.3967320
  H       -1.9318800    -0.0000060     1.2712410
  H        0.3118450     0.8984460     1.6853920
  H        0.3118480    -0.8984510     1.6853890
  H       -0.8055150    -1.3049070    -1.2625520
  H       -2.5217802    -1.2796095    -0.7670426
  H       -1.3046420    -2.1677380     0.1971180
  H       -1.3046550     2.1677340     0.1971270
  H       -0.8055150     1.3049140    -1.2625460
  H       -2.5029220     1.2793270    -0.7603950
units angstrom
no_reorient  #important for SAPT in psi4, default
symmetry c1  #important for SAPT in psi4, default
}

set PROPERTIES_ORIGIN ["COM"]
properties('MP2/aug-cc-pvtz', properties = ['dipole'])
--------------------------------------------------------------------------

    Molecular point group: c1
  Charge       = 0
  Multiplicity = 1
  Basis Set: AUG-CC-PVTZ
    Blend: AUG-CC-PVTZ
  Basis Set: (AUG-CC-PVTZ AUX)
    Blend: AUG-CC-PVTZ-JKFIT

    Orbital Energies [Eh]
    ---------------------

    Doubly Occupied:

       1A    -20.606168     2A    -20.606118     3A    -15.845811
       4A    -11.306161     5A    -11.264807     6A    -11.230670
       7A    -11.228229     8A     -1.584328     9A     -1.385023
      10A     -1.143933    11A     -1.041513    12A     -0.946959
      13A     -0.880988    14A     -0.803960    15A     -0.738255
      16A     -0.728700    17A     -0.705565    18A     -0.637753
      19A     -0.628568    20A     -0.607641    21A     -0.557463
      22A     -0.542621    23A     -0.516650    24A     -0.501181
      25A     -0.499757    26A     -0.484678    27A     -0.474730
      28A     -0.448347

  @DF-RHF Final Energy:  -360.89888531195493

   => Energetics <=

    Nuclear Repulsion Energy =            328.3936831016242195
    One-Electron Energy =               -1142.6919881602293572
    Two-Electron Energy =                 453.3994197466502101
    Total Energy =                       -360.8988853119549276
  Basis Set: (AUG-CC-PVTZ AUX)
    Blend: AUG-CC-PVTZ-RI
    Molecular point group: c1

    Geometry (in Angstrom), charge = 0, multiplicity = 1:

       Center              X                  Y                   Z               Mass
    ------------   -----------------  -----------------  -----------------  -----------------
         O            1.525827605391     1.104546472272    -0.346807405624    15.994914619570
         O            1.525836605391    -1.104535527728    -0.346807405624    15.994914619570
         N            1.129237605391     0.000003472272     0.066657594376    14.003074004430
         C           -1.330141394609     0.000000472272     0.435904594376    12.000000000000
         C            0.052718605391     0.000000472272     1.095331594376    12.000000000000
         C           -1.572580394609    -1.264211527728    -0.387172405624    12.000000000000
         C           -1.572584394609     1.264214472272    -0.387169405624    12.000000000000
         H           -2.032984394609    -0.000003527728     1.280803594376     1.007825032230
         H            0.210740605391     0.898448472272     1.694954594376     1.007825032230
         H            0.210743605391    -0.898448527728     1.694951594376     1.007825032230
         H           -0.906619394609    -1.304904527728    -1.252989405624     1.007825032230
         H           -2.622884594609    -1.279607027728    -0.757480005624     1.007825032230
         H           -1.405746394609    -2.167735527728     0.206680594376     1.007825032230
         H           -1.405759394609     2.167736472272     0.206689594376     1.007825032230
         H           -0.906619394609     1.304916472272    -1.252983405624     1.007825032230
         H           -2.604026394609     1.279329472272    -0.750832405624     1.007825032230

  Basis Set: AUG-CC-PVTZ
    Blend: AUG-CC-PVTZ
  Basis Set: (AUG-CC-PVTZ AUX)
    Blend: AUG-CC-PVTZ-JKFIT
	 Reference Energy          =    -360.8988853119549276 [Eh]
	 Singles Energy            =      -0.0000000000000000 [Eh]
	 Same-Spin Energy          =      -0.3689025116599626 [Eh]
	 Opposite-Spin Energy      =      -1.1813653104428483 [Eh]
	 Correlation Energy        =      -1.5502678221028110 [Eh]
	 Total Energy              =    -362.4491531340577239 [Eh]

	 ================> DF-SCS-MP2 Energies <==================
	-----------------------------------------------------------
	 SCS Same-Spin Scale       =       0.3333333333333333 [-]
	 SCS Opposite-Spin Scale   =       1.2000000000000000 [-]
	 SCS Same-Spin Energy      =      -0.1229675038866542 [Eh]
	 SCS Opposite-Spin Energy  =      -1.4176383725314179 [Eh]
	 SCS Correlation Energy    =      -1.5406058764180721 [Eh]
	 SCS Total Energy          =    -362.4394911883729833 [Eh]
	-----------------------------------------------------------

  Dipole Moment: [D]
     X:    -2.9781      Y:     0.0034      Z:     2.1745     Total:     3.6875

*** Psi4 exiting successfully. Buy a developer a beer!
