                               Psi4 1.4a3.dev225

  ==> Input File <==

--------------------------------------------------------------------------
#psi4
#
memory 32 gb

molecule  {
0 1
  O        1.6269320     1.1045440    -0.3563700
  O        1.6269410    -1.1045380    -0.3563700
  N        1.2303420     0.0000010     0.0570950
  C       -1.2290370    -0.0000020     0.4263420
  C        0.1538230    -0.0000020     1.0857690
  C       -1.4907849    -1.2712841    -0.3797562
  C       -1.4714800     1.2642120    -0.3967320
  H       -1.9318800    -0.0000060     1.2712410
  H        0.3118450     0.8984460     1.6853920
  H        0.3118480    -0.8984510     1.6853890
  H       -0.8055150    -1.3049070    -1.2625520
  H       -2.5029200    -1.2793330    -0.7603930
  H       -1.3046420    -2.1677380     0.1971180
  H       -1.3046550     2.1677340     0.1971270
  H       -0.8055150     1.3049140    -1.2625460
  H       -2.5029220     1.2793270    -0.7603950
units angstrom
no_reorient  #important for SAPT in psi4, default
symmetry c1  #important for SAPT in psi4, default
}

set PROPERTIES_ORIGIN ["COM"]
properties('MP2/aug-cc-pvtz', properties = ['dipole'])
--------------------------------------------------------------------------

    Molecular point group: c1
  Charge       = 0
  Multiplicity = 1
  Basis Set: AUG-CC-PVTZ
    Blend: AUG-CC-PVTZ
  Basis Set: (AUG-CC-PVTZ AUX)
    Blend: AUG-CC-PVTZ-JKFIT

    Orbital Energies [Eh]
    ---------------------

    Doubly Occupied:

       1A    -20.605975     2A    -20.605915     3A    -15.845606
       4A    -11.306233     5A    -11.264563     6A    -11.228441
       7A    -11.228298     8A     -1.584108     9A     -1.384808
      10A     -1.143709    11A     -1.041862    12A     -0.948385
      13A     -0.881119    14A     -0.803920    15A     -0.738425
      16A     -0.728548    17A     -0.705185    18A     -0.638405
      19A     -0.627974    20A     -0.610445    21A     -0.553516
      22A     -0.547526    23A     -0.515372    24A     -0.502510
      25A     -0.500096    26A     -0.485161    27A     -0.473138
      28A     -0.448082

  @DF-RHF Final Energy:  -360.89868801737168

   => Energetics <=

    Nuclear Repulsion Energy =            328.3176513382238113
    One-Electron Energy =               -1142.5380291847616263
    Two-Electron Energy =                 453.3216898291660755
    Total Energy =                       -360.8986880173716827
  Basis Set: (AUG-CC-PVTZ AUX)
    Blend: AUG-CC-PVTZ-RI
    Molecular point group: c1

    Geometry (in Angstrom), charge = 0, multiplicity = 1:

       Center              X                  Y                   Z               Mass
    ------------   -----------------  -----------------  -----------------  -----------------
         O            1.527891375515     1.105366963300    -0.348849327192    15.994914619570
         O            1.527900375515    -1.103715036700    -0.348849327192    15.994914619570
         N            1.131301375515     0.000823963300     0.064615672808    14.003074004430
         C           -1.328077624485     0.000820963300     0.433862672808    12.000000000000
         C            0.054782375515     0.000820963300     1.093289672808    12.000000000000
         C           -1.589825524485    -1.270461136700    -0.372235527192    12.000000000000
         C           -1.570520624485     1.265034963300    -0.389211327192    12.000000000000
         H           -2.030920624485     0.000816963300     1.278761672808     1.007825032230
         H            0.212804375515     0.899268963300     1.692912672808     1.007825032230
         H            0.212807375515    -0.897628036700     1.692909672808     1.007825032230
         H           -0.904555624485    -1.304084036700    -1.255031327192     1.007825032230
         H           -2.601960624485    -1.278510036700    -0.752872327192     1.007825032230
         H           -1.403682624485    -2.166915036700     0.204638672808     1.007825032230
         H           -1.403695624485     2.168556963300     0.204647672808     1.007825032230
         H           -0.904555624485     1.305736963300    -1.255025327192     1.007825032230
         H           -2.601962624485     1.280149963300    -0.752874327192     1.007825032230

  Basis Set: AUG-CC-PVTZ
    Blend: AUG-CC-PVTZ
  Basis Set: (AUG-CC-PVTZ AUX)
    Blend: AUG-CC-PVTZ-JKFIT
	 Reference Energy          =    -360.8986880173716827 [Eh]
	 Singles Energy            =      -0.0000000000000000 [Eh]
	 Same-Spin Energy          =      -0.3689127718258985 [Eh]
	 Opposite-Spin Energy      =      -1.1812425984744230 [Eh]
	 Correlation Energy        =      -1.5501553703003215 [Eh]
	 Total Energy              =    -362.4488433876720137 [Eh]

	 ================> DF-SCS-MP2 Energies <==================
	-----------------------------------------------------------
	 SCS Same-Spin Scale       =       0.3333333333333333 [-]
	 SCS Opposite-Spin Scale   =       1.2000000000000000 [-]
	 SCS Same-Spin Energy      =      -0.1229709239419662 [Eh]
	 SCS Opposite-Spin Energy  =      -1.4174911181693075 [Eh]
	 SCS Correlation Energy    =      -1.5404620421112736 [Eh]
	 SCS Total Energy          =    -362.4391500594829836 [Eh]
	-----------------------------------------------------------

  Dipole Moment: [D]
     X:    -2.9951      Y:    -0.0009      Z:     2.1755     Total:     3.7018

*** Psi4 exiting successfully. Buy a developer a beer!
