                               Psi4 1.4a3.dev225

  ==> Input File <==

--------------------------------------------------------------------------
#psi4
#
memory 32 gb

molecule  {
0 1
  O        1.6269320     1.1045440    -0.3563700
  O        1.6269410    -1.1045380    -0.3563700
  N        1.2303420     0.0000010     0.0570950
  C       -1.3057970     0.0329417     0.4926436
  C        0.1538230    -0.0000020     1.0857690
  C       -1.4714760    -1.2642140    -0.3967350
  C       -1.4714800     1.2642120    -0.3967320
  H       -1.9318800    -0.0000060     1.2712410
  H        0.3118450     0.8984460     1.6853920
  H        0.3118480    -0.8984510     1.6853890
  H       -0.8055150    -1.3049070    -1.2625520
  H       -2.5029200    -1.2793330    -0.7603930
  H       -1.3046420    -2.1677380     0.1971180
  H       -1.3046550     2.1677340     0.1971270
  H       -0.8055150     1.3049140    -1.2625460
  H       -2.5029220     1.2793270    -0.7603950
units angstrom
no_reorient  #important for SAPT in psi4, default
symmetry c1  #important for SAPT in psi4, default
}

set PROPERTIES_ORIGIN ["COM"]
properties('MP2/aug-cc-pvtz', properties = ['dipole'])
--------------------------------------------------------------------------

    Molecular point group: c1
  Charge       = 0
  Multiplicity = 1
  Basis Set: AUG-CC-PVTZ
    Blend: AUG-CC-PVTZ
  Basis Set: (AUG-CC-PVTZ AUX)
    Blend: AUG-CC-PVTZ-JKFIT

    Orbital Energies [Eh]
    ---------------------

    Doubly Occupied:

       1A    -20.605956     2A    -20.605824     3A    -15.846887
       4A    -11.304741     5A    -11.262931     6A    -11.229736
       7A    -11.228772     8A     -1.583828     9A     -1.384699
      10A     -1.135712    11A     -1.040545    12A     -0.943288
      13A     -0.881573    14A     -0.814330    15A     -0.733776
      16A     -0.727876    17A     -0.710261    18A     -0.634448
      19A     -0.630860    20A     -0.603381    21A     -0.560927
      22A     -0.541864    23A     -0.532020    24A     -0.496567
      25A     -0.491335    26A     -0.481698    27A     -0.473361
      28A     -0.447429

  @DF-RHF Final Energy:  -360.88690057291478

   => Energetics <=

    Nuclear Repulsion Energy =            327.1638054826929078
    One-Electron Energy =               -1140.2321621284902449
    Two-Electron Energy =                 452.1814560728826109
    Total Energy =                       -360.8869005729147830
  Basis Set: (AUG-CC-PVTZ AUX)
    Blend: AUG-CC-PVTZ-RI
    Molecular point group: c1

    Geometry (in Angstrom), charge = 0, multiplicity = 1:

       Center              X                  Y                   Z               Mass
    ------------   -----------------  -----------------  -----------------  -----------------
         O            1.534580594754     1.100708025860    -0.354592141910    15.994914619570
         O            1.534589594754    -1.108373974140    -0.354592141910    15.994914619570
         N            1.137990594754    -0.003834974140     0.058872858090    14.003074004430
         C           -1.398148405246     0.029105725860     0.494421458090    12.000000000000
         C            0.061471594754    -0.003837974140     1.087546858090    12.000000000000
         C           -1.563827405246    -1.268049974140    -0.394957141910    12.000000000000
         C           -1.563831405246     1.260376025860    -0.394954141910    12.000000000000
         H           -2.024231405246    -0.003841974140     1.273018858090     1.007825032230
         H            0.219493594754     0.894610025860     1.687169858090     1.007825032230
         H            0.219496594754    -0.902286974140     1.687166858090     1.007825032230
         H           -0.897866405246    -1.308742974140    -1.260774141910     1.007825032230
         H           -2.595271405246    -1.283168974140    -0.758615141910     1.007825032230
         H           -1.396993405246    -2.171573974140     0.198895858090     1.007825032230
         H           -1.397006405246     2.163898025860     0.198904858090     1.007825032230
         H           -0.897866405246     1.301078025860    -1.260768141910     1.007825032230
         H           -2.595273405246     1.275491025860    -0.758617141910     1.007825032230

  Basis Set: AUG-CC-PVTZ
    Blend: AUG-CC-PVTZ
  Basis Set: (AUG-CC-PVTZ AUX)
    Blend: AUG-CC-PVTZ-JKFIT
	 Reference Energy          =    -360.8869005729147830 [Eh]
	 Singles Energy            =      -0.0000000000000000 [Eh]
	 Same-Spin Energy          =      -0.3685226397436476 [Eh]
	 Opposite-Spin Energy      =      -1.1813076386887960 [Eh]
	 Correlation Energy        =      -1.5498302784324436 [Eh]
	 Total Energy              =    -362.4367308513472494 [Eh]

	 ================> DF-SCS-MP2 Energies <==================
	-----------------------------------------------------------
	 SCS Same-Spin Scale       =       0.3333333333333333 [-]
	 SCS Opposite-Spin Scale   =       1.2000000000000000 [-]
	 SCS Same-Spin Energy      =      -0.1228408799145492 [Eh]
	 SCS Opposite-Spin Energy  =      -1.4175691664265551 [Eh]
	 SCS Correlation Energy    =      -1.5404100463411043 [Eh]
	 SCS Total Energy          =    -362.4273106192558771 [Eh]
	-----------------------------------------------------------

  Dipole Moment: [D]
     X:    -3.0271      Y:     0.0251      Z:     2.1625     Total:     3.7203

*** Psi4 exiting successfully. Buy a developer a beer!
