                               Psi4 1.4a3.dev225

  ==> Input File <==

--------------------------------------------------------------------------
#psi4
#
memory 32 gb

molecule  {
0 1
  O        1.6269320     1.1045440    -0.3563700
  O        1.6269410    -1.1045380    -0.3563700
  N        1.2239674    -0.0177528     0.0637408
  C       -1.2290370    -0.0000020     0.4263420
  C        0.1538230    -0.0000020     1.0857690
  C       -1.4714760    -1.2642140    -0.3967350
  C       -1.4714800     1.2642120    -0.3967320
  H       -1.9318800    -0.0000060     1.2712410
  H        0.3118450     0.8984460     1.6853920
  H        0.3118480    -0.8984510     1.6853890
  H       -0.8055150    -1.3049070    -1.2625520
  H       -2.5029200    -1.2793330    -0.7603930
  H       -1.3046420    -2.1677380     0.1971180
  H       -1.3046550     2.1677340     0.1971270
  H       -0.8055150     1.3049140    -1.2625460
  H       -2.5029220     1.2793270    -0.7603950
units angstrom
no_reorient  #important for SAPT in psi4, default
symmetry c1  #important for SAPT in psi4, default
}

set PROPERTIES_ORIGIN ["COM"]
properties('MP2/aug-cc-pvtz', properties = ['dipole'])
--------------------------------------------------------------------------

    Molecular point group: c1
  Charge       = 0
  Multiplicity = 1
  Basis Set: AUG-CC-PVTZ
    Blend: AUG-CC-PVTZ
  Basis Set: (AUG-CC-PVTZ AUX)
    Blend: AUG-CC-PVTZ-JKFIT

    Orbital Energies [Eh]
    ---------------------

    Doubly Occupied:

       1A    -20.612786     2A    -20.599319     3A    -15.845788
       4A    -11.306121     5A    -11.265054     6A    -11.229009
       7A    -11.227802     8A     -1.582794     9A     -1.380009
      10A     -1.146040    11A     -1.044160    12A     -0.948153
      13A     -0.881701    14A     -0.804191    15A     -0.738434
      16A     -0.728199    17A     -0.704802    18A     -0.637418
      19A     -0.628393    20A     -0.607894    21A     -0.557415
      22A     -0.544742    23A     -0.517670    24A     -0.500880
      25A     -0.500019    26A     -0.484159    27A     -0.475766
      28A     -0.446968

  @DF-RHF Final Energy:  -360.89764255401883

   => Energetics <=

    Nuclear Repulsion Energy =            328.4922069626209691
    One-Electron Energy =               -1142.8883205500781060
    Two-Electron Energy =                 453.4984710334383635
    Total Energy =                       -360.8976425540188302
  Basis Set: (AUG-CC-PVTZ AUX)
    Blend: AUG-CC-PVTZ-RI
    Molecular point group: c1

    Geometry (in Angstrom), charge = 0, multiplicity = 1:

       Center              X                  Y                   Z               Mass
    ------------   -----------------  -----------------  -----------------  -----------------
         O            1.526509285431     1.106955953076    -0.347775385836    15.994914619570
         O            1.526518285431    -1.102126046924    -0.347775385836    15.994914619570
         N            1.123544685431    -0.015340846924     0.072335414164    14.003074004430
         C           -1.329459714569     0.002409953076     0.434936614164    12.000000000000
         C            0.053400285431     0.002409953076     1.094363614164    12.000000000000
         C           -1.571898714569    -1.261802046924    -0.388140385836    12.000000000000
         C           -1.571902714569     1.266623953076    -0.388137385836    12.000000000000
         H           -2.032302714569     0.002405953076     1.279835614164     1.007825032230
         H            0.211422285431     0.900857953076     1.693986614164     1.007825032230
         H            0.211425285431    -0.896039046924     1.693983614164     1.007825032230
         H           -0.905937714569    -1.302495046924    -1.253957385836     1.007825032230
         H           -2.603342714569    -1.276921046924    -0.751798385836     1.007825032230
         H           -1.405064714569    -2.165326046924     0.205712614164     1.007825032230
         H           -1.405077714569     2.170145953076     0.205721614164     1.007825032230
         H           -0.905937714569     1.307325953076    -1.253951385836     1.007825032230
         H           -2.603344714569     1.281738953076    -0.751800385836     1.007825032230

  Basis Set: AUG-CC-PVTZ
    Blend: AUG-CC-PVTZ
  Basis Set: (AUG-CC-PVTZ AUX)
    Blend: AUG-CC-PVTZ-JKFIT
	 Reference Energy          =    -360.8976425540188302 [Eh]
	 Singles Energy            =      -0.0000000000000000 [Eh]
	 Same-Spin Energy          =      -0.3691890721796224 [Eh]
	 Opposite-Spin Energy      =      -1.1818387315106109 [Eh]
	 Correlation Energy        =      -1.5510278036902334 [Eh]
	 Total Energy              =    -362.4486703577090907 [Eh]

	 ================> DF-SCS-MP2 Energies <==================
	-----------------------------------------------------------
	 SCS Same-Spin Scale       =       0.3333333333333333 [-]
	 SCS Opposite-Spin Scale   =       1.2000000000000000 [-]
	 SCS Same-Spin Energy      =      -0.1230630240598741 [Eh]
	 SCS Opposite-Spin Energy  =      -1.4182064778127330 [Eh]
	 SCS Correlation Energy    =      -1.5412695018726070 [Eh]
	 SCS Total Energy          =    -362.4389120558914215 [Eh]
	-----------------------------------------------------------

  Dipole Moment: [D]
     X:    -3.0183      Y:    -0.0883      Z:     2.1871     Total:     3.7284

*** Psi4 exiting successfully. Buy a developer a beer!
