                               Psi4 1.4a3.dev225

  ==> Input File <==

--------------------------------------------------------------------------
#psi4
#
memory 32 gb

molecule  {
0 1
  O        1.6269320     1.1045440    -0.3563700
  O        1.6269410    -1.1045380    -0.3563700
  N        1.2303420     0.0000010     0.0570950
  C       -1.2290370    -0.0000020     0.4263420
  C        0.1538230    -0.0000020     1.0857690
  C       -1.4714760    -1.2642140    -0.3967350
  C       -1.4714800     1.2642120    -0.3967320
  H       -1.9318800    -0.0000060     1.2712410
  H        0.2828943     0.7338442     1.5755370
  H        0.3118480    -0.8984510     1.6853890
  H       -0.8055150    -1.3049070    -1.2625520
  H       -2.5029200    -1.2793330    -0.7603930
  H       -1.3046420    -2.1677380     0.1971180
  H       -1.3046550     2.1677340     0.1971270
  H       -0.8055150     1.3049140    -1.2625460
  H       -2.5029220     1.2793270    -0.7603950
units angstrom
no_reorient  #important for SAPT in psi4, default
symmetry c1  #important for SAPT in psi4, default
}

set PROPERTIES_ORIGIN ["COM"]
properties('MP2/aug-cc-pvtz', properties = ['dipole'])
--------------------------------------------------------------------------

    Molecular point group: c1
  Charge       = 0
  Multiplicity = 1
  Basis Set: AUG-CC-PVTZ
    Blend: AUG-CC-PVTZ
  Basis Set: (AUG-CC-PVTZ AUX)
    Blend: AUG-CC-PVTZ-JKFIT

    Orbital Energies [Eh]
    ---------------------

    Doubly Occupied:

       1A    -20.606376     2A    -20.605373     3A    -15.844847
       4A    -11.283914     5A    -11.264084     6A    -11.228536
       7A    -11.227542     8A     -1.584102     9A     -1.384779
      10A     -1.153921    11A     -1.047253    12A     -0.948056
      13A     -0.891973    14A     -0.808655    15A     -0.755610
      16A     -0.730467    17A     -0.708541    18A     -0.655513
      19A     -0.628582    20A     -0.610203    21A     -0.558868
      22A     -0.548261    23A     -0.516821    24A     -0.501367
      25A     -0.500798    26A     -0.487094    27A     -0.474536
      28A     -0.448244

  @DF-RHF Final Energy:  -360.86576748348119

   => Energetics <=

    Nuclear Repulsion Energy =            329.6289999494041467
    One-Electron Energy =               -1144.9809005475028698
    Two-Electron Energy =                 454.4861331146175303
    Total Energy =                       -360.8657674834811928
  Basis Set: (AUG-CC-PVTZ AUX)
    Blend: AUG-CC-PVTZ-RI
    Molecular point group: c1

    Geometry (in Angstrom), charge = 0, multiplicity = 1:

       Center              X                  Y                   Z               Mass
    ------------   -----------------  -----------------  -----------------  -----------------
         O            1.525926277330     1.106153359544    -0.345798191318    15.994914619570
         O            1.525935277330    -1.102928640456    -0.345798191318    15.994914619570
         N            1.129336277330     0.001610359544     0.067666808682    14.003074004430
         C           -1.330042722670     0.001607359544     0.436913808682    12.000000000000
         C            0.052817277330     0.001607359544     1.096340808682    12.000000000000
         C           -1.572481722670    -1.262604640456    -0.386163191318    12.000000000000
         C           -1.572485722670     1.265821359544    -0.386160191318    12.000000000000
         H           -2.032885722670     0.001603359544     1.281812808682     1.007825032230
         H            0.181888577330     0.735453559544     1.586108808682     1.007825032230
         H            0.210842277330    -0.896841640456     1.695960808682     1.007825032230
         H           -0.906520722670    -1.303297640456    -1.251980191318     1.007825032230
         H           -2.603925722670    -1.277723640456    -0.749821191318     1.007825032230
         H           -1.405647722670    -2.166128640456     0.207689808682     1.007825032230
         H           -1.405660722670     2.169343359544     0.207698808682     1.007825032230
         H           -0.906520722670     1.306523359544    -1.251974191318     1.007825032230
         H           -2.603927722670     1.280936359544    -0.749823191318     1.007825032230

  Basis Set: AUG-CC-PVTZ
    Blend: AUG-CC-PVTZ
  Basis Set: (AUG-CC-PVTZ AUX)
    Blend: AUG-CC-PVTZ-JKFIT
	 Reference Energy          =    -360.8657674834811928 [Eh]
	 Singles Energy            =      -0.0000000000000000 [Eh]
	 Same-Spin Energy          =      -0.3686180875192667 [Eh]
	 Opposite-Spin Energy      =      -1.1802092860259927 [Eh]
	 Correlation Energy        =      -1.5488273735452593 [Eh]
	 Total Energy              =    -362.4145948570264295 [Eh]

	 ================> DF-SCS-MP2 Energies <==================
	-----------------------------------------------------------
	 SCS Same-Spin Scale       =       0.3333333333333333 [-]
	 SCS Opposite-Spin Scale   =       1.2000000000000000 [-]
	 SCS Same-Spin Energy      =      -0.1228726958397556 [Eh]
	 SCS Opposite-Spin Energy  =      -1.4162511432311913 [Eh]
	 SCS Correlation Energy    =      -1.5391238390709467 [Eh]
	 SCS Total Energy          =    -362.4048913225521460 [Eh]
	-----------------------------------------------------------

  Dipole Moment: [D]
     X:    -2.9892      Y:    -0.0000      Z:     2.1956     Total:     3.7089

*** Psi4 exiting successfully. Buy a developer a beer!
