                               Psi4 1.4a3.dev225

  ==> Input File <==

--------------------------------------------------------------------------
#psi4
#
memory 32 gb

molecule  {
0 1
  O        1.5448370     1.1583796    -0.2707831
  O        1.6269410    -1.1045380    -0.3563700
  N        1.2303420     0.0000010     0.0570950
  C       -1.2290370    -0.0000020     0.4263420
  C        0.1538230    -0.0000020     1.0857690
  C       -1.4714760    -1.2642140    -0.3967350
  C       -1.4714800     1.2642120    -0.3967320
  H       -1.9318800    -0.0000060     1.2712410
  H        0.3118450     0.8984460     1.6853920
  H        0.3118480    -0.8984510     1.6853890
  H       -0.8055150    -1.3049070    -1.2625520
  H       -2.5029200    -1.2793330    -0.7603930
  H       -1.3046420    -2.1677380     0.1971180
  H       -1.3046550     2.1677340     0.1971270
  H       -0.8055150     1.3049140    -1.2625460
  H       -2.5029220     1.2793270    -0.7603950
units angstrom
no_reorient  #important for SAPT in psi4, default
symmetry c1  #important for SAPT in psi4, default
}

set PROPERTIES_ORIGIN ["COM"]
properties('MP2/aug-cc-pvtz', properties = ['dipole'])
--------------------------------------------------------------------------

    Molecular point group: c1
  Charge       = 0
  Multiplicity = 1
  Basis Set: AUG-CC-PVTZ
    Blend: AUG-CC-PVTZ
  Basis Set: (AUG-CC-PVTZ AUX)
    Blend: AUG-CC-PVTZ-JKFIT

    Orbital Energies [Eh]
    ---------------------

    Doubly Occupied:

       1A    -20.613388     2A    -20.610167     3A    -15.847737
       4A    -11.299905     5A    -11.262005     6A    -11.227090
       7A    -11.226405     8A     -1.584634     9A     -1.396900
      10A     -1.138683    11A     -1.037704    12A     -0.946399
      13A     -0.880946    14A     -0.805661    15A     -0.738238
      16A     -0.732390    17A     -0.705316    18A     -0.637737
      19A     -0.627428    20A     -0.606010    21A     -0.557192
      22A     -0.543536    23A     -0.513756    24A     -0.505569
      25A     -0.497645    26A     -0.485780    27A     -0.469622
      28A     -0.454480

  @DF-RHF Final Energy:  -360.89461824515627

   => Energetics <=

    Nuclear Repulsion Energy =            329.1699884567244112
    One-Electron Energy =               -1144.2245667282575141
    Two-Electron Energy =                 454.1599600263767798
    Total Energy =                       -360.8946182451562663
  Basis Set: (AUG-CC-PVTZ AUX)
    Blend: AUG-CC-PVTZ-RI
    Molecular point group: c1

    Geometry (in Angstrom), charge = 0, multiplicity = 1:

       Center              X                  Y                   Z               Mass
    ------------   -----------------  -----------------  -----------------  -----------------
         O            1.456288911814     1.150024351817    -0.274568190111    15.994914619570
         O            1.538392911814    -1.112893248183    -0.360155090111    15.994914619570
         N            1.141793911814    -0.008354248183     0.053309909889    14.003074004430
         C           -1.317585088186    -0.008357248183     0.422556909889    12.000000000000
         C            0.065274911814    -0.008357248183     1.081983909889    12.000000000000
         C           -1.560024088186    -1.272569248183    -0.400520090111    12.000000000000
         C           -1.560028088186     1.255856751817    -0.400517090111    12.000000000000
         H           -2.020428088186    -0.008361248183     1.267455909889     1.007825032230
         H            0.223296911814     0.890090751817     1.681606909889     1.007825032230
         H            0.223299911814    -0.906806248183     1.681603909889     1.007825032230
         H           -0.894063088186    -1.313262248183    -1.266337090111     1.007825032230
         H           -2.591468088186    -1.287688248183    -0.764178090111     1.007825032230
         H           -1.393190088186    -2.176093248183     0.193332909889     1.007825032230
         H           -1.393203088186     2.159378751817     0.193341909889     1.007825032230
         H           -0.894063088186     1.296558751817    -1.266331090111     1.007825032230
         H           -2.591470088186     1.270971751817    -0.764180090111     1.007825032230

  Basis Set: AUG-CC-PVTZ
    Blend: AUG-CC-PVTZ
  Basis Set: (AUG-CC-PVTZ AUX)
    Blend: AUG-CC-PVTZ-JKFIT
	 Reference Energy          =    -360.8946182451562663 [Eh]
	 Singles Energy            =      -0.0000000000000000 [Eh]
	 Same-Spin Energy          =      -0.3693740382663450 [Eh]
	 Opposite-Spin Energy      =      -1.1820298477016780 [Eh]
	 Correlation Energy        =      -1.5514038859680230 [Eh]
	 Total Energy              =    -362.4460221311242663 [Eh]

	 ================> DF-SCS-MP2 Energies <==================
	-----------------------------------------------------------
	 SCS Same-Spin Scale       =       0.3333333333333333 [-]
	 SCS Opposite-Spin Scale   =       1.2000000000000000 [-]
	 SCS Same-Spin Energy      =      -0.1231246794221150 [Eh]
	 SCS Opposite-Spin Energy  =      -1.4184358172420135 [Eh]
	 SCS Correlation Energy    =      -1.5415604966641285 [Eh]
	 SCS Total Energy          =    -362.4361787418204131 [Eh]
	-----------------------------------------------------------

  Dipole Moment: [D]
     X:    -2.7754      Y:    -0.0540      Z:     2.0066     Total:     3.4253

*** Psi4 exiting successfully. Buy a developer a beer!
