                               Psi4 1.4a3.dev225

  ==> Input File <==

--------------------------------------------------------------------------
#psi4
#
memory 32 gb

molecule  {
0 1
  O        1.6269320     1.1045440    -0.3563700
  O        1.6269410    -1.1045380    -0.3563700
  N        1.2303420     0.0000010     0.0570950
  C       -1.2290370    -0.0000020     0.4263420
  C        0.1538230    -0.0000020     1.0857690
  C       -1.4714760    -1.2642140    -0.3967350
  C       -1.4714800     1.2642120    -0.3967320
  H       -1.9318800    -0.0000060     1.2712410
  H        0.3118450     0.8984460     1.6853920
  H        0.3118480    -0.8984510     1.6853890
  H       -0.8676001    -1.3068445    -1.3068535
  H       -2.5029200    -1.2793330    -0.7603930
  H       -1.3046420    -2.1677380     0.1971180
  H       -1.3046550     2.1677340     0.1971270
  H       -0.8055150     1.3049140    -1.2625460
  H       -2.5029220     1.2793270    -0.7603950
units angstrom
no_reorient  #important for SAPT in psi4, default
symmetry c1  #important for SAPT in psi4, default
}

set PROPERTIES_ORIGIN ["COM"]
properties('MP2/aug-cc-pvtz', properties = ['dipole'])
--------------------------------------------------------------------------

    Molecular point group: c1
  Charge       = 0
  Multiplicity = 1
  Basis Set: AUG-CC-PVTZ
    Blend: AUG-CC-PVTZ
  Basis Set: (AUG-CC-PVTZ AUX)
    Blend: AUG-CC-PVTZ-JKFIT

    Orbital Energies [Eh]
    ---------------------

    Doubly Occupied:

       1A    -20.605688     2A    -20.605541     3A    -15.845321
       4A    -11.305867     5A    -11.265208     6A    -11.228352
       7A    -11.228333     8A     -1.583755     9A     -1.384441
      10A     -1.143681    11A     -1.041707    12A     -0.947985
      13A     -0.881443    14A     -0.804431    15A     -0.738006
      16A     -0.728259    17A     -0.704940    18A     -0.638759
      19A     -0.628037    20A     -0.607967    21A     -0.558193
      22A     -0.542757    23A     -0.515682    24A     -0.502246
      25A     -0.500738    26A     -0.484415    27A     -0.474315
      28A     -0.447782

  @DF-RHF Final Energy:  -360.89896483245997

   => Energetics <=

    Nuclear Repulsion Energy =            328.3485512555297987
    One-Electron Energy =               -1142.6073326176494902
    Two-Electron Energy =                 453.3598165296596676
    Total Energy =                       -360.8989648324599671
  Basis Set: (AUG-CC-PVTZ AUX)
    Blend: AUG-CC-PVTZ-RI
    Molecular point group: c1

    Geometry (in Angstrom), charge = 0, multiplicity = 1:

       Center              X                  Y                   Z               Mass
    ------------   -----------------  -----------------  -----------------  -----------------
         O            1.526250288579     1.104562714688    -0.346439219114    15.994914619570
         O            1.526259288579    -1.104519285312    -0.346439219114    15.994914619570
         N            1.129660288579     0.000019714688     0.067025780886    14.003074004430
         C           -1.329718711421     0.000016714688     0.436272780886    12.000000000000
         C            0.053141288579     0.000016714688     1.095699780886    12.000000000000
         C           -1.572157711421    -1.264195285312    -0.386804219114    12.000000000000
         C           -1.572161711421     1.264230714688    -0.386801219114    12.000000000000
         H           -2.032561711421     0.000012714688     1.281171780886     1.007825032230
         H            0.211163288579     0.898464714688     1.695322780886     1.007825032230
         H            0.211166288579    -0.898432285312     1.695319780886     1.007825032230
         H           -0.968281811421    -1.306825785312    -1.296922719114     1.007825032230
         H           -2.603601711421    -1.279314285312    -0.750462219114     1.007825032230
         H           -1.405323711421    -2.167719285312     0.207048780886     1.007825032230
         H           -1.405336711421     2.167752714688     0.207057780886     1.007825032230
         H           -0.906196711421     1.304932714688    -1.252615219114     1.007825032230
         H           -2.603603711421     1.279345714688    -0.750464219114     1.007825032230

  Basis Set: AUG-CC-PVTZ
    Blend: AUG-CC-PVTZ
  Basis Set: (AUG-CC-PVTZ AUX)
    Blend: AUG-CC-PVTZ-JKFIT
	 Reference Energy          =    -360.8989648324599671 [Eh]
	 Singles Energy            =      -0.0000000000000000 [Eh]
	 Same-Spin Energy          =      -0.3688559871859518 [Eh]
	 Opposite-Spin Energy      =      -1.1811846078301551 [Eh]
	 Correlation Energy        =      -1.5500405950161069 [Eh]
	 Total Energy              =    -362.4490054274760951 [Eh]

	 ================> DF-SCS-MP2 Energies <==================
	-----------------------------------------------------------
	 SCS Same-Spin Scale       =       0.3333333333333333 [-]
	 SCS Opposite-Spin Scale   =       1.2000000000000000 [-]
	 SCS Same-Spin Energy      =      -0.1229519957286506 [Eh]
	 SCS Opposite-Spin Energy  =      -1.4174215293961860 [Eh]
	 SCS Correlation Energy    =      -1.5403735251248367 [Eh]
	 SCS Total Energy          =    -362.4393383575848020 [Eh]
	-----------------------------------------------------------

  Dipole Moment: [D]
     X:    -3.0115      Y:    -0.0011      Z:     2.1492     Total:     3.6998

*** Psi4 exiting successfully. Buy a developer a beer!
