                               Psi4 1.4a3.dev225

  ==> Input File <==

--------------------------------------------------------------------------
#psi4
#
memory 32 gb

molecule  {
0 1
  O        1.6269320     1.1045440    -0.3563700
  O        1.6269410    -1.1045380    -0.3563700
  N        1.2303420     0.0000010     0.0570950
  C       -1.2290370    -0.0000020     0.4263420
  C        0.1538230    -0.0000020     1.0857690
  C       -1.4714760    -1.2642140    -0.3967350
  C       -1.4714800     1.2642120    -0.3967320
  H       -1.9318800    -0.0000060     1.2712410
  H        0.3118450     0.8984460     1.6853920
  H        0.3118480    -0.8984510     1.6853890
  H       -0.7988204    -1.3216801    -1.2564042
  H       -2.5029200    -1.2793330    -0.7603930
  H       -1.3046420    -2.1677380     0.1971180
  H       -1.3046550     2.1677340     0.1971270
  H       -0.8055150     1.3049140    -1.2625460
  H       -2.5029220     1.2793270    -0.7603950
units angstrom
no_reorient  #important for SAPT in psi4, default
symmetry c1  #important for SAPT in psi4, default
}

set PROPERTIES_ORIGIN ["COM"]
properties('MP2/aug-cc-pvtz', properties = ['dipole'])
--------------------------------------------------------------------------

    Molecular point group: c1
  Charge       = 0
  Multiplicity = 1
  Basis Set: AUG-CC-PVTZ
    Blend: AUG-CC-PVTZ
  Basis Set: (AUG-CC-PVTZ AUX)
    Blend: AUG-CC-PVTZ-JKFIT

    Orbital Energies [Eh]
    ---------------------

    Doubly Occupied:

       1A    -20.606079     2A    -20.606026     3A    -15.845727
       4A    -11.305999     5A    -11.264748     6A    -11.228196
       7A    -11.228135     8A     -1.584236     9A     -1.384938
      10A     -1.143859    11A     -1.041742    12A     -0.948007
      13A     -0.881242    14A     -0.804273    15A     -0.738344
      16A     -0.728640    17A     -0.705594    18A     -0.637978
      19A     -0.628461    20A     -0.608070    21A     -0.557324
      22A     -0.544739    23A     -0.516993    24A     -0.500882
      25A     -0.499964    26A     -0.484620    27A     -0.474864
      28A     -0.448288

  @DF-RHF Final Energy:  -360.89937458157044

   => Energetics <=

    Nuclear Repulsion Energy =            328.4746231721600225
    One-Electron Energy =               -1142.8520567044406562
    Two-Electron Energy =                 453.4780589507101922
    Total Energy =                       -360.8993745815704415
  Basis Set: (AUG-CC-PVTZ AUX)
    Blend: AUG-CC-PVTZ-RI
    Molecular point group: c1

    Geometry (in Angstrom), charge = 0, multiplicity = 1:

       Center              X                  Y                   Z               Mass
    ------------   -----------------  -----------------  -----------------  -----------------
         O            1.525577712752     1.104707787521    -0.346932547518    15.994914619570
         O            1.525586712752    -1.104374212479    -0.346932547518    15.994914619570
         N            1.128987712752     0.000164787521     0.066532452482    14.003074004430
         C           -1.330391287248     0.000161787521     0.435779452482    12.000000000000
         C            0.052468712752     0.000161787521     1.095206452482    12.000000000000
         C           -1.572830287248    -1.264050212479    -0.387297547518    12.000000000000
         C           -1.572834287248     1.264375787521    -0.387294547518    12.000000000000
         H           -2.033234287248     0.000157787521     1.280678452482     1.007825032230
         H            0.210490712752     0.898609787521     1.694829452482     1.007825032230
         H            0.210493712752    -0.898287212479     1.694826452482     1.007825032230
         H           -0.900174687248    -1.321516312479    -1.246966747518     1.007825032230
         H           -2.604274287248    -1.279169212479    -0.750955547518     1.007825032230
         H           -1.405996287248    -2.167574212479     0.206555452482     1.007825032230
         H           -1.406009287248     2.167897787521     0.206564452482     1.007825032230
         H           -0.906869287248     1.305077787521    -1.253108547518     1.007825032230
         H           -2.604276287248     1.279490787521    -0.750957547518     1.007825032230

  Basis Set: AUG-CC-PVTZ
    Blend: AUG-CC-PVTZ
  Basis Set: (AUG-CC-PVTZ AUX)
    Blend: AUG-CC-PVTZ-JKFIT
	 Reference Energy          =    -360.8993745815704415 [Eh]
	 Singles Energy            =      -0.0000000000000000 [Eh]
	 Same-Spin Energy          =      -0.3689012403025743 [Eh]
	 Opposite-Spin Energy      =      -1.1812183953162998 [Eh]
	 Correlation Energy        =      -1.5501196356188740 [Eh]
	 Total Energy              =    -362.4494942171893399 [Eh]

	 ================> DF-SCS-MP2 Energies <==================
	-----------------------------------------------------------
	 SCS Same-Spin Scale       =       0.3333333333333333 [-]
	 SCS Opposite-Spin Scale   =       1.2000000000000000 [-]
	 SCS Same-Spin Energy      =      -0.1229670801008581 [Eh]
	 SCS Opposite-Spin Energy  =      -1.4174620743795596 [Eh]
	 SCS Correlation Energy    =      -1.5404291544804176 [Eh]
	 SCS Total Energy          =    -362.4398037360508624 [Eh]
	-----------------------------------------------------------

  Dipole Moment: [D]
     X:    -2.9856      Y:    -0.0024      Z:     2.1700     Total:     3.6909

*** Psi4 exiting successfully. Buy a developer a beer!
