                               Psi4 1.4a3.dev225

  ==> Input File <==

--------------------------------------------------------------------------
#psi4
#
memory 32 gb

molecule  {
0 1
  O        1.6269320     1.1045440    -0.3563700
  O        1.6269410    -1.1045380    -0.3563700
  N        1.2303420     0.0000010     0.0570950
  C       -1.2290370    -0.0000020     0.4263420
  C        0.1538230    -0.0000020     1.0857690
  C       -1.4714760    -1.2642140    -0.3967350
  C       -1.4714800     1.2642120    -0.3967320
  H       -1.9318800    -0.0000060     1.2712410
  H        0.3118450     0.8984460     1.6853920
  H        0.3089529    -0.8819908     1.6744036
  H       -0.8055150    -1.3049070    -1.2625520
  H       -2.5029200    -1.2793330    -0.7603930
  H       -1.3046420    -2.1677380     0.1971180
  H       -1.3046550     2.1677340     0.1971270
  H       -0.8055150     1.3049140    -1.2625460
  H       -2.5029220     1.2793270    -0.7603950
units angstrom
no_reorient  #important for SAPT in psi4, default
symmetry c1  #important for SAPT in psi4, default
}

set PROPERTIES_ORIGIN ["COM"]
properties('MP2/aug-cc-pvtz', properties = ['dipole'])
--------------------------------------------------------------------------

    Molecular point group: c1
  Charge       = 0
  Multiplicity = 1
  Basis Set: AUG-CC-PVTZ
    Blend: AUG-CC-PVTZ
  Basis Set: (AUG-CC-PVTZ AUX)
    Blend: AUG-CC-PVTZ-JKFIT

    Orbital Energies [Eh]
    ---------------------

    Doubly Occupied:

       1A    -20.606026     2A    -20.605912     3A    -15.845553
       4A    -11.303813     5A    -11.264533     6A    -11.228254
       7A    -11.228128     8A     -1.584156     9A     -1.384856
      10A     -1.144531    11A     -1.042177    12A     -0.947937
      13A     -0.881971    14A     -0.804425    15A     -0.739388
      16A     -0.728951    17A     -0.705775    18A     -0.639942
      19A     -0.628781    20A     -0.608340    21A     -0.557534
      22A     -0.545078    23A     -0.516912    24A     -0.500972
      25A     -0.500298    26A     -0.484864    27A     -0.474698
      28A     -0.448239

  @DF-RHF Final Energy:  -360.89953348972983

   => Energetics <=

    Nuclear Repulsion Energy =            328.5871419551947383
    One-Electron Energy =               -1143.0692646059640083
    Two-Electron Energy =                 453.5825891610394365
    Total Energy =                       -360.8995334897298335
  Basis Set: (AUG-CC-PVTZ AUX)
    Blend: AUG-CC-PVTZ-RI
    Molecular point group: c1

    Geometry (in Angstrom), charge = 0, multiplicity = 1:

       Center              X                  Y                   Z               Mass
    ------------   -----------------  -----------------  -----------------  -----------------
         O            1.525671487520     1.104382809159    -0.346765007151    15.994914619570
         O            1.525680487520    -1.104699190841    -0.346765007151    15.994914619570
         N            1.129081487520    -0.000160190841     0.066699992849    14.003074004430
         C           -1.330297512480    -0.000163190841     0.435946992849    12.000000000000
         C            0.052562487520    -0.000163190841     1.095373992849    12.000000000000
         C           -1.572736512480    -1.264375190841    -0.387130007151    12.000000000000
         C           -1.572740512480     1.264050809159    -0.387127007151    12.000000000000
         H           -2.033140512480    -0.000167190841     1.280845992849     1.007825032230
         H            0.210584487520     0.898284809159     1.694996992849     1.007825032230
         H            0.207692387520    -0.882151990841     1.684008592849     1.007825032230
         H           -0.906775512480    -1.305068190841    -1.252947007151     1.007825032230
         H           -2.604180512480    -1.279494190841    -0.750788007151     1.007825032230
         H           -1.405902512480    -2.167899190841     0.206722992849     1.007825032230
         H           -1.405915512480     2.167572809159     0.206731992849     1.007825032230
         H           -0.906775512480     1.304752809159    -1.252941007151     1.007825032230
         H           -2.604182512480     1.279165809159    -0.750790007151     1.007825032230

  Basis Set: AUG-CC-PVTZ
    Blend: AUG-CC-PVTZ
  Basis Set: (AUG-CC-PVTZ AUX)
    Blend: AUG-CC-PVTZ-JKFIT
	 Reference Energy          =    -360.8995334897298335 [Eh]
	 Singles Energy            =      -0.0000000000000000 [Eh]
	 Same-Spin Energy          =      -0.3688588929581899 [Eh]
	 Opposite-Spin Energy      =      -1.1810580692590416 [Eh]
	 Correlation Energy        =      -1.5499169622172315 [Eh]
	 Total Energy              =    -362.4494504519470865 [Eh]

	 ================> DF-SCS-MP2 Energies <==================
	-----------------------------------------------------------
	 SCS Same-Spin Scale       =       0.3333333333333333 [-]
	 SCS Opposite-Spin Scale   =       1.2000000000000000 [-]
	 SCS Same-Spin Energy      =      -0.1229529643193966 [Eh]
	 SCS Opposite-Spin Energy  =      -1.4172696831108498 [Eh]
	 SCS Correlation Energy    =      -1.5402226474302465 [Eh]
	 SCS Total Energy          =    -362.4397561371600887 [Eh]
	-----------------------------------------------------------

  Dipole Moment: [D]
     X:    -2.9904      Y:    -0.0014      Z:     2.1739     Total:     3.6970

*** Psi4 exiting successfully. Buy a developer a beer!
