                               Psi4 1.4a3.dev225

  ==> Input File <==

--------------------------------------------------------------------------
#psi4
#
memory 32 gb

molecule  {
0 1
  O        1.6269320     1.1045440    -0.3563700
  O        1.6269410    -1.1045380    -0.3563700
  N        1.2303420     0.0000010     0.0570950
  C       -1.2290370    -0.0000020     0.4263420
  C        0.2984211    -0.0000016     0.9475974
  C       -1.4714760    -1.2642140    -0.3967350
  C       -1.4714800     1.2642120    -0.3967320
  H       -1.9318800    -0.0000060     1.2712410
  H        0.3118450     0.8984460     1.6853920
  H        0.3118480    -0.8984510     1.6853890
  H       -0.8055150    -1.3049070    -1.2625520
  H       -2.5029200    -1.2793330    -0.7603930
  H       -1.3046420    -2.1677380     0.1971180
  H       -1.3046550     2.1677340     0.1971270
  H       -0.8055150     1.3049140    -1.2625460
  H       -2.5029220     1.2793270    -0.7603950
units angstrom
no_reorient  #important for SAPT in psi4, default
symmetry c1  #important for SAPT in psi4, default
}

set PROPERTIES_ORIGIN ["COM"]
properties('MP2/aug-cc-pvtz', properties = ['dipole'])
--------------------------------------------------------------------------

    Molecular point group: c1
  Charge       = 0
  Multiplicity = 1
  Basis Set: AUG-CC-PVTZ
    Blend: AUG-CC-PVTZ
  Basis Set: (AUG-CC-PVTZ AUX)
    Blend: AUG-CC-PVTZ-JKFIT

    Orbital Energies [Eh]
    ---------------------

    Doubly Occupied:

       1A    -20.606603     2A    -20.606554     3A    -15.849202
       4A    -11.301252     5A    -11.276429     6A    -11.228215
       7A    -11.228200     8A     -1.607073     9A     -1.392878
      10A     -1.175927    11A     -1.072731    12A     -0.948178
      13A     -0.871331    14A     -0.805843    15A     -0.755253
      16A     -0.741048    17A     -0.718462    18A     -0.630422
      19A     -0.609106    20A     -0.597082    21A     -0.557900
      22A     -0.535875    23A     -0.522441    24A     -0.502312
      25A     -0.496880    26A     -0.474324    27A     -0.471047
      28A     -0.451516

  @DF-RHF Final Energy:  -360.85470772223152

   => Energetics <=

    Nuclear Repulsion Energy =            331.3321181819047752
    One-Electron Energy =               -1148.3054876251630958
    Two-Electron Energy =                 456.1186617210267968
    Total Energy =                       -360.8547077222315238
  Basis Set: (AUG-CC-PVTZ AUX)
    Blend: AUG-CC-PVTZ-RI
    Molecular point group: c1

    Geometry (in Angstrom), charge = 0, multiplicity = 1:

       Center              X                  Y                   Z               Mass
    ------------   -----------------  -----------------  -----------------  -----------------
         O            1.508807148099     1.104543721889    -0.330784659317    15.994914619570
         O            1.508816148099    -1.104538278111    -0.330784659317    15.994914619570
         N            1.112217148099     0.000000721889     0.082680340683    14.003074004430
         C           -1.347161851901    -0.000002278111     0.451927340683    12.000000000000
         C            0.180296248099    -0.000001878111     0.973182740683    12.000000000000
         C           -1.589600851901    -1.264214278111    -0.371149659317    12.000000000000
         C           -1.589604851901     1.264211721889    -0.371146659317    12.000000000000
         H           -2.050004851901    -0.000006278111     1.296826340683     1.007825032230
         H            0.193720148099     0.898445721889     1.710977340683     1.007825032230
         H            0.193723148099    -0.898451278111     1.710974340683     1.007825032230
         H           -0.923639851901    -1.304907278111    -1.236966659317     1.007825032230
         H           -2.621044851901    -1.279333278111    -0.734807659317     1.007825032230
         H           -1.422766851901    -2.167738278111     0.222703340683     1.007825032230
         H           -1.422779851901     2.167733721889     0.222712340683     1.007825032230
         H           -0.923639851901     1.304913721889    -1.236960659317     1.007825032230
         H           -2.621046851901     1.279326721889    -0.734809659317     1.007825032230

  Basis Set: AUG-CC-PVTZ
    Blend: AUG-CC-PVTZ
  Basis Set: (AUG-CC-PVTZ AUX)
    Blend: AUG-CC-PVTZ-JKFIT
	 Reference Energy          =    -360.8547077222315238 [Eh]
	 Singles Energy            =      -0.0000000000000000 [Eh]
	 Same-Spin Energy          =      -0.3715959177867713 [Eh]
	 Opposite-Spin Energy      =      -1.1838698102846896 [Eh]
	 Correlation Energy        =      -1.5554657280714608 [Eh]
	 Total Energy              =    -362.4101734503029775 [Eh]

	 ================> DF-SCS-MP2 Energies <==================
	-----------------------------------------------------------
	 SCS Same-Spin Scale       =       0.3333333333333333 [-]
	 SCS Opposite-Spin Scale   =       1.2000000000000000 [-]
	 SCS Same-Spin Energy      =      -0.1238653059289238 [Eh]
	 SCS Opposite-Spin Energy  =      -1.4206437723416274 [Eh]
	 SCS Correlation Energy    =      -1.5445090782705511 [Eh]
	 SCS Total Energy          =    -362.3992168005020744 [Eh]
	-----------------------------------------------------------

  Dipole Moment: [D]
     X:    -3.0781      Y:    -0.0000      Z:     2.1258     Total:     3.7408

*** Psi4 exiting successfully. Buy a developer a beer!
