                               Psi4 1.4a3.dev225

  ==> Input File <==

--------------------------------------------------------------------------
#psi4
#
memory 32 gb

molecule  {
0 1
  O        1.6269320     1.1045440    -0.3563700
  O        1.6269410    -1.1045380    -0.3563700
  N        1.2622149     0.0887701     0.0238660
  C       -1.2290370    -0.0000020     0.4263420
  C        0.1538230    -0.0000020     1.0857690
  C       -1.4714760    -1.2642140    -0.3967350
  C       -1.4714800     1.2642120    -0.3967320
  H       -1.9318800    -0.0000060     1.2712410
  H        0.3118450     0.8984460     1.6853920
  H        0.3118480    -0.8984510     1.6853890
  H       -0.8055150    -1.3049070    -1.2625520
  H       -2.5029200    -1.2793330    -0.7603930
  H       -1.3046420    -2.1677380     0.1971180
  H       -1.3046550     2.1677340     0.1971270
  H       -0.8055150     1.3049140    -1.2625460
  H       -2.5029220     1.2793270    -0.7603950
units angstrom
no_reorient  #important for SAPT in psi4, default
symmetry c1  #important for SAPT in psi4, default
}

set PROPERTIES_ORIGIN ["COM"]
properties('MP2/aug-cc-pvtz', properties = ['dipole'])
--------------------------------------------------------------------------

    Molecular point group: c1
  Charge       = 0
  Multiplicity = 1
  Basis Set: AUG-CC-PVTZ
    Blend: AUG-CC-PVTZ
  Basis Set: (AUG-CC-PVTZ AUX)
    Blend: AUG-CC-PVTZ-JKFIT

    Orbital Energies [Eh]
    ---------------------

    Doubly Occupied:

       1A    -20.638648     2A    -20.572394     3A    -15.841954
       4A    -11.304501     5A    -11.262438     6A    -11.230333
       7A    -11.224292     8A     -1.637026     9A     -1.375233
      10A     -1.133840    11A     -1.029573    12A     -0.946956
      13A     -0.881303    14A     -0.811725    15A     -0.748504
      16A     -0.735212    17A     -0.719911    18A     -0.638946
      19A     -0.634760    20A     -0.609208    21A     -0.556512
      22A     -0.543601    23A     -0.513362    24A     -0.500903
      25A     -0.497112    26A     -0.483377    27A     -0.455701
      28A     -0.447822

  @DF-RHF Final Energy:  -360.89067082034711

   => Energetics <=

    Nuclear Repulsion Energy =            328.6234544119780026
    One-Electron Energy =               -1143.0779564689109975
    Two-Electron Energy =                 453.5638312365859406
    Total Energy =                       -360.8906708203471112
  Basis Set: (AUG-CC-PVTZ AUX)
    Blend: AUG-CC-PVTZ-RI
    Molecular point group: c1

    Geometry (in Angstrom), charge = 0, multiplicity = 1:

       Center              X                  Y                   Z               Mass
    ------------   -----------------  -----------------  -----------------  -----------------
         O            1.521312649725     1.092482831810    -0.342357651097    15.994914619570
         O            1.521321649725    -1.116599168190    -0.342357651097    15.994914619570
         N            1.156595549725     0.076708931810     0.037878348903    14.003074004430
         C           -1.334656350275    -0.012063168190     0.440354348903    12.000000000000
         C            0.048203649725    -0.012063168190     1.099781348903    12.000000000000
         C           -1.577095350275    -1.276275168190    -0.382722651097    12.000000000000
         C           -1.577099350275     1.252150831810    -0.382719651097    12.000000000000
         H           -2.037499350275    -0.012067168190     1.285253348903     1.007825032230
         H            0.206225649725     0.886384831810     1.699404348903     1.007825032230
         H            0.206228649725    -0.910512168190     1.699401348903     1.007825032230
         H           -0.911134350275    -1.316968168190    -1.248539651097     1.007825032230
         H           -2.608539350275    -1.291394168190    -0.746380651097     1.007825032230
         H           -1.410261350275    -2.179799168190     0.211130348903     1.007825032230
         H           -1.410274350275     2.155672831810     0.211139348903     1.007825032230
         H           -0.911134350275     1.292852831810    -1.248533651097     1.007825032230
         H           -2.608541350275     1.267265831810    -0.746382651097     1.007825032230

  Basis Set: AUG-CC-PVTZ
    Blend: AUG-CC-PVTZ
  Basis Set: (AUG-CC-PVTZ AUX)
    Blend: AUG-CC-PVTZ-JKFIT
	 Reference Energy          =    -360.8906708203471112 [Eh]
	 Singles Energy            =      -0.0000000000000000 [Eh]
	 Same-Spin Energy          =      -0.3662806918381202 [Eh]
	 Opposite-Spin Energy      =      -1.1756160514210010 [Eh]
	 Correlation Energy        =      -1.5418967432591213 [Eh]
	 Total Energy              =    -362.4325675636062556 [Eh]

	 ================> DF-SCS-MP2 Energies <==================
	-----------------------------------------------------------
	 SCS Same-Spin Scale       =       0.3333333333333333 [-]
	 SCS Opposite-Spin Scale   =       1.2000000000000000 [-]
	 SCS Same-Spin Energy      =      -0.1220935639460401 [Eh]
	 SCS Opposite-Spin Energy  =      -1.4107392617052013 [Eh]
	 SCS Correlation Energy    =      -1.5328328256512413 [Eh]
	 SCS Total Energy          =    -362.4235036459983803 [Eh]
	-----------------------------------------------------------

  Dipole Moment: [D]
     X:    -2.8707      Y:     0.5798      Z:     2.0835     Total:     3.5942

*** Psi4 exiting successfully. Buy a developer a beer!
