                               Psi4 1.4a3.dev225

  ==> Input File <==

--------------------------------------------------------------------------
#psi4
#
memory 32 gb

molecule  {
0 1
  O        1.6269320     1.1045440    -0.3563700
  O        1.6269410    -1.1045380    -0.3563700
  N        1.2303420     0.0000010     0.0570950
  C       -1.2290370    -0.0000020     0.4263420
  C        0.1538230    -0.0000020     1.0857690
  C       -1.4714760    -1.2642140    -0.3967350
  C       -1.4714800     1.2642120    -0.3967320
  H       -1.9318800    -0.0000060     1.2712410
  H        0.3118450     0.8984460     1.6853920
  H        0.3118480    -0.8984510     1.6853890
  H       -0.8055150    -1.3049070    -1.2625520
  H       -2.5029200    -1.2793330    -0.7603930
  H       -1.3015920    -2.1842557     0.2079745
  H       -1.3046550     2.1677340     0.1971270
  H       -0.8055150     1.3049140    -1.2625460
  H       -2.5029220     1.2793270    -0.7603950
units angstrom
no_reorient  #important for SAPT in psi4, default
symmetry c1  #important for SAPT in psi4, default
}

set PROPERTIES_ORIGIN ["COM"]
properties('MP2/aug-cc-pvtz', properties = ['dipole'])
--------------------------------------------------------------------------

    Molecular point group: c1
  Charge       = 0
  Multiplicity = 1
  Basis Set: AUG-CC-PVTZ
    Blend: AUG-CC-PVTZ
  Basis Set: (AUG-CC-PVTZ AUX)
    Blend: AUG-CC-PVTZ-JKFIT

    Orbital Energies [Eh]
    ---------------------

    Doubly Occupied:

       1A    -20.606038     2A    -20.605988     3A    -15.845682
       4A    -11.305974     5A    -11.264823     6A    -11.230672
       7A    -11.228428     8A     -1.584200     9A     -1.384893
      10A     -1.143835    11A     -1.041625    12A     -0.946775
      13A     -0.881103    14A     -0.803934    15A     -0.738218
      16A     -0.728596    17A     -0.705393    18A     -0.638045
      19A     -0.628561    20A     -0.606512    21A     -0.557236
      22A     -0.544126    23A     -0.516980    24A     -0.500736
      25A     -0.499614    26A     -0.484233    27A     -0.474810
      28A     -0.448268

  @DF-RHF Final Energy:  -360.89888362314417

   => Energetics <=

    Nuclear Repulsion Energy =            328.3983718368097584
    One-Electron Energy =               -1142.7039149602121597
    Two-Electron Energy =                 453.4066595002582858
    Total Energy =                       -360.8988836231441724
  Basis Set: (AUG-CC-PVTZ AUX)
    Blend: AUG-CC-PVTZ-RI
    Molecular point group: c1

    Geometry (in Angstrom), charge = 0, multiplicity = 1:

       Center              X                  Y                   Z               Mass
    ------------   -----------------  -----------------  -----------------  -----------------
         O            1.525613352190     1.104705290041    -0.346978592467    15.994914619570
         O            1.525622352190    -1.104376709959    -0.346978592467    15.994914619570
         N            1.129023352190     0.000162290041     0.066486407533    14.003074004430
         C           -1.330355647810     0.000159290041     0.435733407533    12.000000000000
         C            0.052504352190     0.000159290041     1.095160407533    12.000000000000
         C           -1.572794647810    -1.264052709959    -0.387343592467    12.000000000000
         C           -1.572798647810     1.264373290041    -0.387340592467    12.000000000000
         H           -2.033198647810     0.000155290041     1.280632407533     1.007825032230
         H            0.210526352190     0.898607290041     1.694783407533     1.007825032230
         H            0.210529352190    -0.898289709959     1.694780407533     1.007825032230
         H           -0.906833647810    -1.304745709959    -1.253160592467     1.007825032230
         H           -2.604238647810    -1.279171709959    -0.751001592467     1.007825032230
         H           -1.402910647810    -2.184094409959     0.217365907533     1.007825032230
         H           -1.405973647810     2.167895290041     0.206518407533     1.007825032230
         H           -0.906833647810     1.305075290041    -1.253154592467     1.007825032230
         H           -2.604240647810     1.279488290041    -0.751003592467     1.007825032230

  Basis Set: AUG-CC-PVTZ
    Blend: AUG-CC-PVTZ
  Basis Set: (AUG-CC-PVTZ AUX)
    Blend: AUG-CC-PVTZ-JKFIT
	 Reference Energy          =    -360.8988836231441724 [Eh]
	 Singles Energy            =      -0.0000000000000000 [Eh]
	 Same-Spin Energy          =      -0.3689044973242211 [Eh]
	 Opposite-Spin Energy      =      -1.1813636007346657 [Eh]
	 Correlation Energy        =      -1.5502680980588868 [Eh]
	 Total Energy              =    -362.4491517212030658 [Eh]

	 ================> DF-SCS-MP2 Energies <==================
	-----------------------------------------------------------
	 SCS Same-Spin Scale       =       0.3333333333333333 [-]
	 SCS Opposite-Spin Scale   =       1.2000000000000000 [-]
	 SCS Same-Spin Energy      =      -0.1229681657747404 [Eh]
	 SCS Opposite-Spin Energy  =      -1.4176363208815987 [Eh]
	 SCS Correlation Energy    =      -1.5406044866563391 [Eh]
	 SCS Total Energy          =    -362.4394881098004930 [Eh]
	-----------------------------------------------------------

  Dipole Moment: [D]
     X:    -2.9914      Y:     0.0116      Z:     2.1645     Total:     3.6923

*** Psi4 exiting successfully. Buy a developer a beer!
