                               Psi4 1.4a3.dev225

  ==> Input File <==

--------------------------------------------------------------------------
#psi4
#
memory 32 gb

molecule  {
0 1
  O        1.6269320     1.1045440    -0.3563700
  O        1.6269410    -1.1045380    -0.3563700
  N        1.2303420     0.0000010     0.0570950
  C       -1.2290370    -0.0000020     0.4263420
  C        0.1538230    -0.0000020     1.0857690
  C       -1.4714760    -1.2642140    -0.3967350
  C       -1.4714800     1.2642120    -0.3967320
  H       -1.9318800    -0.0000060     1.2712410
  H        0.3118450     0.8984460     1.6853920
  H        0.3118480    -0.8984510     1.6853890
  H       -0.8055150    -1.3049070    -1.2625520
  H       -2.5029200    -1.2793330    -0.7603930
  H       -1.3046420    -2.1677380     0.1971180
  H       -1.2784468     2.1788236     0.1716647
  H       -0.8055150     1.3049140    -1.2625460
  H       -2.5029220     1.2793270    -0.7603950
units angstrom
no_reorient  #important for SAPT in psi4, default
symmetry c1  #important for SAPT in psi4, default
}

set PROPERTIES_ORIGIN ["COM"]
properties('MP2/aug-cc-pvtz', properties = ['dipole'])
--------------------------------------------------------------------------

    Molecular point group: c1
  Charge       = 0
  Multiplicity = 1
  Basis Set: AUG-CC-PVTZ
    Blend: AUG-CC-PVTZ
  Basis Set: (AUG-CC-PVTZ AUX)
    Blend: AUG-CC-PVTZ-JKFIT

    Orbital Energies [Eh]
    ---------------------

    Doubly Occupied:

       1A    -20.606081     2A    -20.606030     3A    -15.845724
       4A    -11.305999     5A    -11.264863     6A    -11.228398
       7A    -11.228078     8A     -1.584234     9A     -1.384937
      10A     -1.143856    11A     -1.041762    12A     -0.947945
      13A     -0.881349    14A     -0.804456    15A     -0.738288
      16A     -0.728643    17A     -0.705717    18A     -0.637974
      19A     -0.628177    20A     -0.608744    21A     -0.555964
      22A     -0.545234    23A     -0.516678    24A     -0.501480
      25A     -0.499768    26A     -0.485036    27A     -0.474693
      28A     -0.448284

  @DF-RHF Final Energy:  -360.89926882645881

   => Energetics <=

    Nuclear Repulsion Energy =            328.4887261124287647
    One-Electron Energy =               -1142.8792085709624189
    Two-Electron Energy =                 453.4912136320747891
    Total Energy =                       -360.8992688264588082
  Basis Set: (AUG-CC-PVTZ AUX)
    Blend: AUG-CC-PVTZ-RI
    Molecular point group: c1

    Geometry (in Angstrom), charge = 0, multiplicity = 1:

       Center              X                  Y                   Z               Mass
    ------------   -----------------  -----------------  -----------------  -----------------
         O            1.525386895176     1.104435326628    -0.346623441937    15.994914619570
         O            1.525395895176    -1.104646673372    -0.346623441937    15.994914619570
         N            1.128796895176    -0.000107673372     0.066841558063    14.003074004430
         C           -1.330582104824    -0.000110673372     0.436088558063    12.000000000000
         C            0.052277895176    -0.000110673372     1.095515558063    12.000000000000
         C           -1.573021104824    -1.264322673372    -0.386988441937    12.000000000000
         C           -1.573025104824     1.264103326628    -0.386985441937    12.000000000000
         H           -2.033425104824    -0.000114673372     1.280987558063     1.007825032230
         H            0.210299895176     0.898337326628     1.695138558063     1.007825032230
         H            0.210302895176    -0.898559673372     1.695135558063     1.007825032230
         H           -0.907060104824    -1.305015673372    -1.252805441937     1.007825032230
         H           -2.604465104824    -1.279441673372    -0.750646441937     1.007825032230
         H           -1.406187104824    -2.167846673372     0.206864558063     1.007825032230
         H           -1.379991904824     2.178714926628     0.181411258063     1.007825032230
         H           -0.907060104824     1.304805326628    -1.252799441937     1.007825032230
         H           -2.604467104824     1.279218326628    -0.750648441937     1.007825032230

  Basis Set: AUG-CC-PVTZ
    Blend: AUG-CC-PVTZ
  Basis Set: (AUG-CC-PVTZ AUX)
    Blend: AUG-CC-PVTZ-JKFIT
	 Reference Energy          =    -360.8992688264588082 [Eh]
	 Singles Energy            =      -0.0000000000000000 [Eh]
	 Same-Spin Energy          =      -0.3689150813236101 [Eh]
	 Opposite-Spin Energy      =      -1.1812310224133755 [Eh]
	 Correlation Energy        =      -1.5501461037369855 [Eh]
	 Total Energy              =    -362.4494149301958146 [Eh]

	 ================> DF-SCS-MP2 Energies <==================
	-----------------------------------------------------------
	 SCS Same-Spin Scale       =       0.3333333333333333 [-]
	 SCS Opposite-Spin Scale   =       1.2000000000000000 [-]
	 SCS Same-Spin Energy      =      -0.1229716937745367 [Eh]
	 SCS Opposite-Spin Energy  =      -1.4174772268960505 [Eh]
	 SCS Correlation Energy    =      -1.5404489206705871 [Eh]
	 SCS Total Energy          =    -362.4397177471294071 [Eh]
	-----------------------------------------------------------

  Dipole Moment: [D]
     X:    -2.9801      Y:    -0.0001      Z:     2.1637     Total:     3.6827

*** Psi4 exiting successfully. Buy a developer a beer!
