                               Psi4 1.4a3.dev225

  ==> Input File <==

--------------------------------------------------------------------------
#psi4
#
memory 32 gb

molecule  {
0 1
  O        1.6269320     1.1045440    -0.3563700
  O        1.6127843    -1.1143567    -0.3431491
  N        1.2303420     0.0000010     0.0570950
  C       -1.2290370    -0.0000020     0.4263420
  C        0.1538230    -0.0000020     1.0857690
  C       -1.4714760    -1.2642140    -0.3967350
  C       -1.4714800     1.2642120    -0.3967320
  H       -1.9318800    -0.0000060     1.2712410
  H        0.3118450     0.8984460     1.6853920
  H        0.3118480    -0.8984510     1.6853890
  H       -0.8055150    -1.3049070    -1.2625520
  H       -2.5029200    -1.2793330    -0.7603930
  H       -1.3046420    -2.1677380     0.1971180
  H       -1.3046550     2.1677340     0.1971270
  H       -0.8055150     1.3049140    -1.2625460
  H       -2.5029220     1.2793270    -0.7603950
units angstrom
no_reorient  #important for SAPT in psi4, default
symmetry c1  #important for SAPT in psi4, default
}

set PROPERTIES_ORIGIN ["COM"]
properties('MP2/aug-cc-pvtz', properties = ['dipole'])
--------------------------------------------------------------------------

    Molecular point group: c1
  Charge       = 0
  Multiplicity = 1
  Basis Set: AUG-CC-PVTZ
    Blend: AUG-CC-PVTZ
  Basis Set: (AUG-CC-PVTZ AUX)
    Blend: AUG-CC-PVTZ-JKFIT

    Orbital Energies [Eh]
    ---------------------

    Doubly Occupied:

       1A    -20.607275     2A    -20.606765     3A    -15.846069
       4A    -11.304972     5A    -11.264193     6A    -11.228045
       7A    -11.227905     8A     -1.584221     9A     -1.386966
      10A     -1.143024    11A     -1.041140    12A     -0.947682
      13A     -0.881155    14A     -0.804410    15A     -0.738286
      16A     -0.729280    17A     -0.705457    18A     -0.637918
      19A     -0.628586    20A     -0.607694    21A     -0.557349
      22A     -0.544357    23A     -0.516396    24A     -0.501688
      25A     -0.499772    26A     -0.485020    27A     -0.473962
      28A     -0.449347

  @DF-RHF Final Energy:  -360.89910571779274

   => Energetics <=

    Nuclear Repulsion Energy =            328.5916388328176367
    One-Electron Energy =               -1143.0836200080441358
    Two-Electron Energy =                 453.5928754574338200
    Total Energy =                       -360.8991057177927360
  Basis Set: (AUG-CC-PVTZ AUX)
    Blend: AUG-CC-PVTZ-RI
    Molecular point group: c1

    Geometry (in Angstrom), charge = 0, multiplicity = 1:

       Center              X                  Y                   Z               Mass
    ------------   -----------------  -----------------  -----------------  -----------------
         O            1.527840226457     1.106067581738    -0.348924247795    15.994914619570
         O            1.513692526457    -1.112833118262    -0.335703347795    15.994914619570
         N            1.131250226457     0.001524581738     0.064540752205    14.003074004430
         C           -1.328128773543     0.001521581738     0.433787752205    12.000000000000
         C            0.054731226457     0.001521581738     1.093214752205    12.000000000000
         C           -1.570567773543    -1.262690418262    -0.389289247795    12.000000000000
         C           -1.570571773543     1.265735581738    -0.389286247795    12.000000000000
         H           -2.030971773543     0.001517581738     1.278686752205     1.007825032230
         H            0.212753226457     0.899969581738     1.692837752205     1.007825032230
         H            0.212756226457    -0.896927418262     1.692834752205     1.007825032230
         H           -0.904606773543    -1.303383418262    -1.255106247795     1.007825032230
         H           -2.602011773543    -1.277809418262    -0.752947247795     1.007825032230
         H           -1.403733773543    -2.166214418262     0.204563752205     1.007825032230
         H           -1.403746773543     2.169257581738     0.204572752205     1.007825032230
         H           -0.904606773543     1.306437581738    -1.255100247795     1.007825032230
         H           -2.602013773543     1.280850581738    -0.752949247795     1.007825032230

  Basis Set: AUG-CC-PVTZ
    Blend: AUG-CC-PVTZ
  Basis Set: (AUG-CC-PVTZ AUX)
    Blend: AUG-CC-PVTZ-JKFIT
	 Reference Energy          =    -360.8991057177927360 [Eh]
	 Singles Energy            =      -0.0000000000000000 [Eh]
	 Same-Spin Energy          =      -0.3689735385327966 [Eh]
	 Opposite-Spin Energy      =      -1.1813435522187268 [Eh]
	 Correlation Energy        =      -1.5503170907515234 [Eh]
	 Total Energy              =    -362.4494228085442842 [Eh]

	 ================> DF-SCS-MP2 Energies <==================
	-----------------------------------------------------------
	 SCS Same-Spin Scale       =       0.3333333333333333 [-]
	 SCS Opposite-Spin Scale   =       1.2000000000000000 [-]
	 SCS Same-Spin Energy      =      -0.1229911795109322 [Eh]
	 SCS Opposite-Spin Energy  =      -1.4176122626624721 [Eh]
	 SCS Correlation Energy    =      -1.5406034421734043 [Eh]
	 SCS Total Energy          =    -362.4397091599661280 [Eh]
	-----------------------------------------------------------

  Dipole Moment: [D]
     X:    -2.9546      Y:     0.0104      Z:     2.1434     Total:     3.6502

*** Psi4 exiting successfully. Buy a developer a beer!
