                               Psi4 1.4a3.dev225

  ==> Input File <==

--------------------------------------------------------------------------
#psi4
#
memory 32 gb

molecule  {
0 1
  O        1.6269320     1.1045440    -0.3563700
  O        1.6269410    -1.1045380    -0.3563700
  N        1.2303420     0.0000010     0.0570950
  C       -1.2290370    -0.0000020     0.4263420
  C        0.1538230    -0.0000020     1.0857690
  C       -1.4714760    -1.2642140    -0.3967350
  C       -1.4714800     1.2642120    -0.3967320
  H       -1.9318800    -0.0000060     1.2712410
  H        0.3118450     0.8984460     1.6853920
  H        0.3118480    -0.8984510     1.6853890
  H       -0.8343005    -1.2377420    -1.2844882
  H       -2.5029200    -1.2793330    -0.7603930
  H       -1.3046420    -2.1677380     0.1971180
  H       -1.3046550     2.1677340     0.1971270
  H       -0.8055150     1.3049140    -1.2625460
  H       -2.5029220     1.2793270    -0.7603950
units angstrom
no_reorient  #important for SAPT in psi4, default
symmetry c1  #important for SAPT in psi4, default
}

set PROPERTIES_ORIGIN ["COM"]
properties('MP2/aug-cc-pvtz', properties = ['dipole'])
--------------------------------------------------------------------------

    Molecular point group: c1
  Charge       = 0
  Multiplicity = 1
  Basis Set: AUG-CC-PVTZ
    Blend: AUG-CC-PVTZ
  Basis Set: (AUG-CC-PVTZ AUX)
    Blend: AUG-CC-PVTZ-JKFIT

    Orbital Energies [Eh]
    ---------------------

    Doubly Occupied:

       1A    -20.605880     2A    -20.605789     3A    -15.845479
       4A    -11.305856     5A    -11.264113     6A    -11.228595
       7A    -11.228366     8A     -1.584017     9A     -1.384694
      10A     -1.143931    11A     -1.042055    12A     -0.947761
      13A     -0.881282    14A     -0.803685    15A     -0.738196
      16A     -0.728410    17A     -0.704831    18A     -0.638182
      19A     -0.630428    20A     -0.608122    21A     -0.557730
      22A     -0.543642    23A     -0.516603    24A     -0.502172
      25A     -0.500101    26A     -0.484130    27A     -0.473996
      28A     -0.448097

  @DF-RHF Final Energy:  -360.89878565797687

   => Energetics <=

    Nuclear Repulsion Energy =            328.5249621030744152
    One-Electron Energy =               -1142.9552105961295183
    Two-Electron Energy =                 453.5314628350782868
    Total Energy =                       -360.8987856579768732
  Basis Set: (AUG-CC-PVTZ AUX)
    Blend: AUG-CC-PVTZ-RI
    Molecular point group: c1

    Geometry (in Angstrom), charge = 0, multiplicity = 1:

       Center              X                  Y                   Z               Mass
    ------------   -----------------  -----------------  -----------------  -----------------
         O            1.525924661889     1.103886982298    -0.346657922599    15.994914619570
         O            1.525933661889    -1.105195017702    -0.346657922599    15.994914619570
         N            1.129334661889    -0.000656017702     0.066807077401    14.003074004430
         C           -1.330044338111    -0.000659017702     0.436054077401    12.000000000000
         C            0.052815661889    -0.000659017702     1.095481077401    12.000000000000
         C           -1.572483338111    -1.264871017702    -0.387022922599    12.000000000000
         C           -1.572487338111     1.263554982298    -0.387019922599    12.000000000000
         H           -2.032887338111    -0.000663017702     1.280953077401     1.007825032230
         H            0.210837661889     0.897788982298     1.695104077401     1.007825032230
         H            0.210840661889    -0.899108017702     1.695101077401     1.007825032230
         H           -0.935307838111    -1.238399017702    -1.274776122599     1.007825032230
         H           -2.603927338111    -1.279990017702    -0.750680922599     1.007825032230
         H           -1.405649338111    -2.168395017702     0.206830077401     1.007825032230
         H           -1.405662338111     2.167076982298     0.206839077401     1.007825032230
         H           -0.906522338111     1.304256982298    -1.252833922599     1.007825032230
         H           -2.603929338111     1.278669982298    -0.750682922599     1.007825032230

  Basis Set: AUG-CC-PVTZ
    Blend: AUG-CC-PVTZ
  Basis Set: (AUG-CC-PVTZ AUX)
    Blend: AUG-CC-PVTZ-JKFIT
	 Reference Energy          =    -360.8987856579768732 [Eh]
	 Singles Energy            =      -0.0000000000000000 [Eh]
	 Same-Spin Energy          =      -0.3689535880588793 [Eh]
	 Opposite-Spin Energy      =      -1.1813397481328494 [Eh]
	 Correlation Energy        =      -1.5502933361917286 [Eh]
	 Total Energy              =    -362.4490789941685875 [Eh]

	 ================> DF-SCS-MP2 Energies <==================
	-----------------------------------------------------------
	 SCS Same-Spin Scale       =       0.3333333333333333 [-]
	 SCS Opposite-Spin Scale   =       1.2000000000000000 [-]
	 SCS Same-Spin Energy      =      -0.1229845293529598 [Eh]
	 SCS Opposite-Spin Energy  =      -1.4176076977594192 [Eh]
	 SCS Correlation Energy    =      -1.5405922271123789 [Eh]
	 SCS Total Energy          =    -362.4393778850892431 [Eh]
	-----------------------------------------------------------

  Dipole Moment: [D]
     X:    -3.0103      Y:     0.0090      Z:     2.1673     Total:     3.7093

*** Psi4 exiting successfully. Buy a developer a beer!
