                               Psi4 1.4a3.dev225

  ==> Input File <==

--------------------------------------------------------------------------
#psi4
#
memory 32 gb

molecule  {
0 1
  O        1.6269320     1.1045440    -0.3563700
  O        1.6269410    -1.1045380    -0.3563700
  N        1.2303420     0.0000010     0.0570950
  C       -1.2290370    -0.0000020     0.4263420
  C        0.1538230    -0.0000020     1.0857690
  C       -1.4714760    -1.2642140    -0.3967350
  C       -1.4714800     1.2642120    -0.3967320
  H       -1.9318800    -0.0000060     1.2712410
  H        0.3118450     0.8984460     1.6853920
  H        0.3118480    -0.8984510     1.6853890
  H       -0.8498667    -1.2041874    -1.2938402
  H       -2.5029200    -1.2793330    -0.7603930
  H       -1.3046420    -2.1677380     0.1971180
  H       -1.3046550     2.1677340     0.1971270
  H       -0.8055150     1.3049140    -1.2625460
  H       -2.5029220     1.2793270    -0.7603950
units angstrom
no_reorient  #important for SAPT in psi4, default
symmetry c1  #important for SAPT in psi4, default
}

set PROPERTIES_ORIGIN ["COM"]
properties('MP2/aug-cc-pvtz', properties = ['dipole'])
--------------------------------------------------------------------------

    Molecular point group: c1
  Charge       = 0
  Multiplicity = 1
  Basis Set: AUG-CC-PVTZ
    Blend: AUG-CC-PVTZ
  Basis Set: (AUG-CC-PVTZ AUX)
    Blend: AUG-CC-PVTZ-JKFIT

    Orbital Energies [Eh]
    ---------------------

    Doubly Occupied:

       1A    -20.605809     2A    -20.605684     3A    -15.845378
       4A    -11.305806     5A    -11.263876     6A    -11.228782
       7A    -11.228448     8A     -1.583927     9A     -1.384595
      10A     -1.143979    11A     -1.042215    12A     -0.947707
      13A     -0.881315    14A     -0.803469    15A     -0.738141
      16A     -0.728319    17A     -0.704529    18A     -0.638343
      19A     -0.631332    20A     -0.608330    21A     -0.557872
      22A     -0.543059    23A     -0.516420    24A     -0.502727
      25A     -0.499911    26A     -0.483940    27A     -0.473472
      28A     -0.448006

  @DF-RHF Final Energy:  -360.89805177467611

   => Energetics <=

    Nuclear Repulsion Energy =            328.5459253074383241
    One-Electron Energy =               -1142.9971677517619355
    Two-Electron Energy =                 453.5531906696475062
    Total Energy =                       -360.8980517746761052
  Basis Set: (AUG-CC-PVTZ AUX)
    Blend: AUG-CC-PVTZ-RI
    Molecular point group: c1

    Geometry (in Angstrom), charge = 0, multiplicity = 1:

       Center              X                  Y                   Z               Mass
    ------------   -----------------  -----------------  -----------------  -----------------
         O            1.526076879038     1.103558862041    -0.346566472228    15.994914619570
         O            1.526085879038    -1.105523137959    -0.346566472228    15.994914619570
         N            1.129486879038    -0.000984137959     0.066898527772    14.003074004430
         C           -1.329892120962    -0.000987137959     0.436145527772    12.000000000000
         C            0.052967879038    -0.000987137959     1.095572527772    12.000000000000
         C           -1.572331120962    -1.265199137959    -0.386931472228    12.000000000000
         C           -1.572335120962     1.263226862041    -0.386928472228    12.000000000000
         H           -2.032735120962    -0.000991137959     1.281044527772     1.007825032230
         H            0.210989879038     0.897460862041     1.695195527772     1.007825032230
         H            0.210992879038    -0.899436137959     1.695192527772     1.007825032230
         H           -0.950721820962    -1.205172537959    -1.284036672228     1.007825032230
         H           -2.603775120962    -1.280318137959    -0.750589472228     1.007825032230
         H           -1.405497120962    -2.168723137959     0.206921527772     1.007825032230
         H           -1.405510120962     2.166748862041     0.206930527772     1.007825032230
         H           -0.906370120962     1.303928862041    -1.252742472228     1.007825032230
         H           -2.603777120962     1.278341862041    -0.750591472228     1.007825032230

  Basis Set: AUG-CC-PVTZ
    Blend: AUG-CC-PVTZ
  Basis Set: (AUG-CC-PVTZ AUX)
    Blend: AUG-CC-PVTZ-JKFIT
	 Reference Energy          =    -360.8980517746761052 [Eh]
	 Singles Energy            =      -0.0000000000000000 [Eh]
	 Same-Spin Energy          =      -0.3689989689260246 [Eh]
	 Opposite-Spin Energy      =      -1.1814211258003007 [Eh]
	 Correlation Energy        =      -1.5504200947263254 [Eh]
	 Total Energy              =    -362.4484718694024536 [Eh]

	 ================> DF-SCS-MP2 Energies <==================
	-----------------------------------------------------------
	 SCS Same-Spin Scale       =       0.3333333333333333 [-]
	 SCS Opposite-Spin Scale   =       1.2000000000000000 [-]
	 SCS Same-Spin Energy      =      -0.1229996563086748 [Eh]
	 SCS Opposite-Spin Energy  =      -1.4177053509603608 [Eh]
	 SCS Correlation Energy    =      -1.5407050072690356 [Eh]
	 SCS Total Energy          =    -362.4387567819451306 [Eh]
	-----------------------------------------------------------

  Dipole Moment: [D]
     X:    -3.0202      Y:     0.0133      Z:     2.1673     Total:     3.7174

*** Psi4 exiting successfully. Buy a developer a beer!
