                               Psi4 1.4a3.dev225

  ==> Input File <==

--------------------------------------------------------------------------
#psi4
#
memory 32 gb

molecule  {
0 1
  O        1.6269320     1.1045440    -0.3563700
  O        1.6269410    -1.1045380    -0.3563700
  N        1.2303420     0.0000010     0.0570950
  C       -1.2290370    -0.0000020     0.4263420
  C        0.1538230    -0.0000020     1.0857690
  C       -1.4714760    -1.2642140    -0.3967350
  C       -1.4714800     1.2642120    -0.3967320
  H       -1.9318800    -0.0000060     1.2712410
  H        0.3118450     0.8984460     1.6853920
  H        0.3046102    -0.8573005     1.6579254
  H       -0.8055150    -1.3049070    -1.2625520
  H       -2.5029200    -1.2793330    -0.7603930
  H       -1.3046420    -2.1677380     0.1971180
  H       -1.3046550     2.1677340     0.1971270
  H       -0.8055150     1.3049140    -1.2625460
  H       -2.5029220     1.2793270    -0.7603950
units angstrom
no_reorient  #important for SAPT in psi4, default
symmetry c1  #important for SAPT in psi4, default
}

set PROPERTIES_ORIGIN ["COM"]
properties('MP2/aug-cc-pvtz', properties = ['dipole'])
--------------------------------------------------------------------------

    Molecular point group: c1
  Charge       = 0
  Multiplicity = 1
  Basis Set: AUG-CC-PVTZ
    Blend: AUG-CC-PVTZ
  Basis Set: (AUG-CC-PVTZ AUX)
    Blend: AUG-CC-PVTZ-JKFIT

    Orbital Energies [Eh]
    ---------------------

    Doubly Occupied:

       1A    -20.606050     2A    -20.605789     3A    -15.845382
       4A    -11.300531     5A    -11.264421     6A    -11.228298
       7A    -11.227995     8A     -1.584112     9A     -1.384815
      10A     -1.145645    11A     -1.042814    12A     -0.947933
      13A     -0.883185    14A     -0.804897    15A     -0.741340
      16A     -0.729387    17A     -0.706274    18A     -0.642836
      19A     -0.628731    20A     -0.608760    21A     -0.557736
      22A     -0.545774    23A     -0.516895    24A     -0.500928
      25A     -0.500464    26A     -0.485332    27A     -0.474642
      28A     -0.448221

  @DF-RHF Final Energy:  -360.89866218230742

   => Energetics <=

    Nuclear Repulsion Energy =            328.7454222765326222
    One-Electron Energy =               -1143.3697985650624105
    Two-Electron Energy =                 453.7257141062223695
    Total Energy =                       -360.8986621823074188
  Basis Set: (AUG-CC-PVTZ AUX)
    Blend: AUG-CC-PVTZ-RI
    Molecular point group: c1

    Geometry (in Angstrom), charge = 0, multiplicity = 1:

       Center              X                  Y                   Z               Mass
    ------------   -----------------  -----------------  -----------------  -----------------
         O            1.525713953466     1.104141370203    -0.346603871831    15.994914619570
         O            1.525722953466    -1.104940629797    -0.346603871831    15.994914619570
         N            1.129123953466    -0.000401629797     0.066861128169    14.003074004430
         C           -1.330255046534    -0.000404629797     0.436108128169    12.000000000000
         C            0.052604953466    -0.000404629797     1.095535128169    12.000000000000
         C           -1.572694046534    -1.264616629797    -0.386968871831    12.000000000000
         C           -1.572698046534     1.263809370203    -0.386965871831    12.000000000000
         H           -2.033098046534    -0.000408629797     1.281007128169     1.007825032230
         H            0.210626953466     0.898043370203     1.695158128169     1.007825032230
         H            0.203392153466    -0.857703129797     1.667691528169     1.007825032230
         H           -0.906733046534    -1.305309629797    -1.252785871831     1.007825032230
         H           -2.604138046534    -1.279735629797    -0.750626871831     1.007825032230
         H           -1.405860046534    -2.168140629797     0.206884128169     1.007825032230
         H           -1.405873046534     2.167331370203     0.206893128169     1.007825032230
         H           -0.906733046534     1.304511370203    -1.252779871831     1.007825032230
         H           -2.604140046534     1.278924370203    -0.750628871831     1.007825032230

  Basis Set: AUG-CC-PVTZ
    Blend: AUG-CC-PVTZ
  Basis Set: (AUG-CC-PVTZ AUX)
    Blend: AUG-CC-PVTZ-JKFIT
	 Reference Energy          =    -360.8986621823074188 [Eh]
	 Singles Energy            =      -0.0000000000000000 [Eh]
	 Same-Spin Energy          =      -0.3687960660996558 [Eh]
	 Opposite-Spin Energy      =      -1.1808211938702065 [Eh]
	 Correlation Energy        =      -1.5496172599698623 [Eh]
	 Total Energy              =    -362.4482794422772827 [Eh]

	 ================> DF-SCS-MP2 Energies <==================
	-----------------------------------------------------------
	 SCS Same-Spin Scale       =       0.3333333333333333 [-]
	 SCS Opposite-Spin Scale   =       1.2000000000000000 [-]
	 SCS Same-Spin Energy      =      -0.1229320220332186 [Eh]
	 SCS Opposite-Spin Energy  =      -1.4169854326442477 [Eh]
	 SCS Correlation Energy    =      -1.5399174546774663 [Eh]
	 SCS Total Energy          =    -362.4385796369849118 [Eh]
	-----------------------------------------------------------

  Dipole Moment: [D]
     X:    -2.9901      Y:    -0.0030      Z:     2.1801     Total:     3.7005

*** Psi4 exiting successfully. Buy a developer a beer!
