                               Psi4 1.4a3.dev225

  ==> Input File <==

--------------------------------------------------------------------------
#psi4
#
memory 32 gb

molecule  {
0 1
  O        1.6269320     1.1045440    -0.3563700
  O        1.6269410    -1.1045380    -0.3563700
  N        1.2303420     0.0000010     0.0570950
  C       -1.2290370    -0.0000020     0.4263420
  C        0.1538230    -0.0000020     1.0857690
  C       -1.4714760    -1.2642140    -0.3967350
  C       -1.4714800     1.2642120    -0.3967320
  H       -1.9318800    -0.0000060     1.2712410
  H        0.3118450     0.8984460     1.6853920
  H        0.3118480    -0.8984510     1.6853890
  H       -0.8055150    -1.3049070    -1.2625520
  H       -2.5029200    -1.2793330    -0.7603930
  H       -1.3046420    -2.1677380     0.1971180
  H       -1.3178373     2.1617755     0.2095887
  H       -0.8055150     1.3049140    -1.2625460
  H       -2.5029220     1.2793270    -0.7603950
units angstrom
no_reorient  #important for SAPT in psi4, default
symmetry c1  #important for SAPT in psi4, default
}

set PROPERTIES_ORIGIN ["COM"]
properties('MP2/aug-cc-pvtz', properties = ['dipole'])
--------------------------------------------------------------------------

    Molecular point group: c1
  Charge       = 0
  Multiplicity = 1
  Basis Set: AUG-CC-PVTZ
    Blend: AUG-CC-PVTZ
  Basis Set: (AUG-CC-PVTZ AUX)
    Blend: AUG-CC-PVTZ-JKFIT

    Orbital Energies [Eh]
    ---------------------

    Doubly Occupied:

       1A    -20.606014     2A    -20.605964     3A    -15.845658
       4A    -11.305955     5A    -11.264497     6A    -11.228301
       7A    -11.228136     8A     -1.584176     9A     -1.384869
      10A     -1.143878    11A     -1.041817    12A     -0.947955
      13A     -0.881197    14A     -0.804003    15A     -0.738328
      16A     -0.728573    17A     -0.705310    18A     -0.638023
      19A     -0.629161    20A     -0.607658    21A     -0.558169
      22A     -0.544212    23A     -0.517065    24A     -0.500750
      25A     -0.500334    26A     -0.484237    27A     -0.474751
      28A     -0.448243

  @DF-RHF Final Energy:  -360.89935955634513

   => Energetics <=

    Nuclear Repulsion Energy =            328.4828788431432827
    One-Electron Energy =               -1142.8700073151776451
    Two-Electron Energy =                 453.4877689156892870
    Total Energy =                       -360.8993595563451322
  Basis Set: (AUG-CC-PVTZ AUX)
    Blend: AUG-CC-PVTZ-RI
    Molecular point group: c1

    Geometry (in Angstrom), charge = 0, multiplicity = 1:

       Center              X                  Y                   Z               Mass
    ------------   -----------------  -----------------  -----------------  -----------------
         O            1.525772082929     1.104602034827    -0.346994289231    15.994914619570
         O            1.525781082929    -1.104479965173    -0.346994289231    15.994914619570
         N            1.129182082929     0.000059034827     0.066470710769    14.003074004430
         C           -1.330196917071     0.000056034827     0.435717710769    12.000000000000
         C            0.052663082929     0.000056034827     1.095144710769    12.000000000000
         C           -1.572635917071    -1.264155965173    -0.387359289231    12.000000000000
         C           -1.572639917071     1.264270034827    -0.387356289231    12.000000000000
         H           -2.033039917071     0.000052034827     1.280616710769     1.007825032230
         H            0.210685082929     0.898504034827     1.694767710769     1.007825032230
         H            0.210688082929    -0.898392965173     1.694764710769     1.007825032230
         H           -0.906674917071    -1.304848965173    -1.253176289231     1.007825032230
         H           -2.604079917071    -1.279274965173    -0.751017289231     1.007825032230
         H           -1.405801917071    -2.167679965173     0.206493710769     1.007825032230
         H           -1.418997217071     2.161833534827     0.218964410769     1.007825032230
         H           -0.906674917071     1.304972034827    -1.253170289231     1.007825032230
         H           -2.604081917071     1.279385034827    -0.751019289231     1.007825032230

  Basis Set: AUG-CC-PVTZ
    Blend: AUG-CC-PVTZ
  Basis Set: (AUG-CC-PVTZ AUX)
    Blend: AUG-CC-PVTZ-JKFIT
	 Reference Energy          =    -360.8993595563451322 [Eh]
	 Singles Energy            =      -0.0000000000000000 [Eh]
	 Same-Spin Energy          =      -0.3689045443041344 [Eh]
	 Opposite-Spin Energy      =      -1.1812415865110673 [Eh]
	 Correlation Energy        =      -1.5501461308152016 [Eh]
	 Total Energy              =    -362.4495056871603538 [Eh]

	 ================> DF-SCS-MP2 Energies <==================
	-----------------------------------------------------------
	 SCS Same-Spin Scale       =       0.3333333333333333 [-]
	 SCS Opposite-Spin Scale   =       1.2000000000000000 [-]
	 SCS Same-Spin Energy      =      -0.1229681814347115 [Eh]
	 SCS Opposite-Spin Energy  =      -1.4174899038132807 [Eh]
	 SCS Correlation Energy    =      -1.5404580852479921 [Eh]
	 SCS Total Energy          =    -362.4398176415931516 [Eh]
	-----------------------------------------------------------

  Dipole Moment: [D]
     X:    -2.9956      Y:    -0.0001      Z:     2.1717     Total:     3.7000

*** Psi4 exiting successfully. Buy a developer a beer!
