                               Psi4 1.4a3.dev225

  ==> Input File <==

--------------------------------------------------------------------------
#psi4
#
memory 32 gb

molecule  {
0 1
  O        1.6269320     1.1045440    -0.3563700
  O        1.6269410    -1.1045380    -0.3563700
  N        1.2303420     0.0000010     0.0570950
  C       -1.2290370    -0.0000020     0.4263420
  C        0.1538230    -0.0000020     1.0857690
  C       -1.4714760    -1.2642140    -0.3967350
  C       -1.4714800     1.2642120    -0.3967320
  H       -1.9318800    -0.0000060     1.2712410
  H        0.3118450     0.8984460     1.6853920
  H        0.3118480    -0.8984510     1.6853890
  H       -0.8055150    -1.3049070    -1.2625520
  H       -2.5029200    -1.2793330    -0.7603930
  H       -1.2741424    -2.3329151     0.3056828
  H       -1.3046550     2.1677340     0.1971270
  H       -0.8055150     1.3049140    -1.2625460
  H       -2.5029220     1.2793270    -0.7603950
units angstrom
no_reorient  #important for SAPT in psi4, default
symmetry c1  #important for SAPT in psi4, default
}

set PROPERTIES_ORIGIN ["COM"]
properties('MP2/aug-cc-pvtz', properties = ['dipole'])
--------------------------------------------------------------------------

    Molecular point group: c1
  Charge       = 0
  Multiplicity = 1
  Basis Set: AUG-CC-PVTZ
    Blend: AUG-CC-PVTZ
  Basis Set: (AUG-CC-PVTZ AUX)
    Blend: AUG-CC-PVTZ-JKFIT

    Orbital Energies [Eh]
    ---------------------

    Doubly Occupied:

       1A    -20.606187     2A    -20.606103     3A    -15.845815
       4A    -11.306158     5A    -11.267145     6A    -11.251380
       7A    -11.230674     8A     -1.584362     9A     -1.385024
      10A     -1.144129    11A     -1.041339    12A     -0.940047
      13A     -0.880403    14A     -0.802881    15A     -0.737836
      16A     -0.728722    17A     -0.705455    18A     -0.638646
      19A     -0.628632    20A     -0.596545    21A     -0.557582
      22A     -0.539812    23A     -0.517950    24A     -0.502937
      25A     -0.491617    26A     -0.475925    27A     -0.474699
      28A     -0.448481

  @DF-RHF Final Energy:  -360.87939315433641

   => Energetics <=

    Nuclear Repulsion Energy =            327.7012605226869937
    One-Electron Energy =               -1141.2883379327083730
    Two-Electron Energy =                 452.7076842556849670
    Total Energy =                       -360.8793931543364124
  Basis Set: (AUG-CC-PVTZ AUX)
    Blend: AUG-CC-PVTZ-RI
    Molecular point group: c1

    Geometry (in Angstrom), charge = 0, multiplicity = 1:

       Center              X                  Y                   Z               Mass
    ------------   -----------------  -----------------  -----------------  -----------------
         O            1.525344930877     1.106158985228    -0.347934052299    15.994914619570
         O            1.525353930877    -1.102923014772    -0.347934052299    15.994914619570
         N            1.128754930877     0.001615985228     0.065530947701    14.003074004430
         C           -1.330624069123     0.001612985228     0.434777947701    12.000000000000
         C            0.052235930877     0.001612985228     1.094204947701    12.000000000000
         C           -1.573063069123    -1.262599014772    -0.388299052299    12.000000000000
         C           -1.573067069123     1.265826985228    -0.388296052299    12.000000000000
         H           -2.033467069123     0.001608985228     1.279676947701     1.007825032230
         H            0.210257930877     0.900060985228     1.693827947701     1.007825032230
         H            0.210260930877    -0.896836014772     1.693824947701     1.007825032230
         H           -0.907102069123    -1.303292014772    -1.254116052299     1.007825032230
         H           -2.604507069123    -1.277718014772    -0.751957052299     1.007825032230
         H           -1.375729469123    -2.331300114772     0.314118747701     1.007825032230
         H           -1.406242069123     2.169348985228     0.205562947701     1.007825032230
         H           -0.907102069123     1.306528985228    -1.254110052299     1.007825032230
         H           -2.604509069123     1.280941985228    -0.751959052299     1.007825032230

  Basis Set: AUG-CC-PVTZ
    Blend: AUG-CC-PVTZ
  Basis Set: (AUG-CC-PVTZ AUX)
    Blend: AUG-CC-PVTZ-JKFIT
	 Reference Energy          =    -360.8793931543364124 [Eh]
	 Singles Energy            =      -0.0000000000000000 [Eh]
	 Same-Spin Energy          =      -0.3689054229547890 [Eh]
	 Opposite-Spin Energy      =      -1.1828348874248191 [Eh]
	 Correlation Energy        =      -1.5517403103796081 [Eh]
	 Total Energy              =    -362.4311334647160265 [Eh]

	 ================> DF-SCS-MP2 Energies <==================
	-----------------------------------------------------------
	 SCS Same-Spin Scale       =       0.3333333333333333 [-]
	 SCS Opposite-Spin Scale   =       1.2000000000000000 [-]
	 SCS Same-Spin Energy      =      -0.1229684743182630 [Eh]
	 SCS Opposite-Spin Energy  =      -1.4194018649097828 [Eh]
	 SCS Correlation Energy    =      -1.5423703392280459 [Eh]
	 SCS Total Energy          =    -362.4217634935644696 [Eh]
	-----------------------------------------------------------

  Dipole Moment: [D]
     X:    -2.9993      Y:     0.1414      Z:     2.1118     Total:     3.6709

*** Psi4 exiting successfully. Buy a developer a beer!
