                               Psi4 1.4a3.dev225

  ==> Input File <==

--------------------------------------------------------------------------
#psi4
#
memory 32 gb

molecule  {
0 1
  O        1.6269320     1.1045440    -0.3563700
  O        1.6269410    -1.1045380    -0.3563700
  N        1.2303420     0.0000010     0.0570950
  C       -1.2290370    -0.0000020     0.4263420
  C        0.1538230    -0.0000020     1.0857690
  C       -1.4714760    -1.2642140    -0.3967350
  C       -1.4397445     1.0987277    -0.2889925
  H       -1.9318800    -0.0000060     1.2712410
  H        0.3118450     0.8984460     1.6853920
  H        0.3118480    -0.8984510     1.6853890
  H       -0.8055150    -1.3049070    -1.2625520
  H       -2.5029200    -1.2793330    -0.7603930
  H       -1.3046420    -2.1677380     0.1971180
  H       -1.3046550     2.1677340     0.1971270
  H       -0.8055150     1.3049140    -1.2625460
  H       -2.5029220     1.2793270    -0.7603950
units angstrom
no_reorient  #important for SAPT in psi4, default
symmetry c1  #important for SAPT in psi4, default
}

set PROPERTIES_ORIGIN ["COM"]
properties('MP2/aug-cc-pvtz', properties = ['dipole'])
--------------------------------------------------------------------------

    Molecular point group: c1
  Charge       = 0
  Multiplicity = 1
  Basis Set: AUG-CC-PVTZ
    Blend: AUG-CC-PVTZ
  Basis Set: (AUG-CC-PVTZ AUX)
    Blend: AUG-CC-PVTZ-JKFIT

    Orbital Energies [Eh]
    ---------------------

    Doubly Occupied:

       1A    -20.606457     2A    -20.605932     3A    -15.846087
       4A    -11.307426     5A    -11.255591     6A    -11.240630
       7A    -11.229825     8A     -1.584454     9A     -1.385047
      10A     -1.168434    11A     -1.059142    12A     -0.950083
      13A     -0.878585    14A     -0.801820    15A     -0.740191
      16A     -0.729036    17A     -0.712916    18A     -0.649887
      19A     -0.639116    20A     -0.613198    21A     -0.561024
      22A     -0.539347    23A     -0.529051    24A     -0.500644
      25A     -0.490225    26A     -0.464288    27A     -0.460345
      28A     -0.444353

  @DF-RHF Final Energy:  -360.84873703076147

   => Energetics <=

    Nuclear Repulsion Energy =            331.7313788246544277
    One-Electron Energy =               -1149.1739638274607387
    Two-Electron Energy =                 456.5938479720447845
    Total Energy =                       -360.8487370307614697
  Basis Set: (AUG-CC-PVTZ AUX)
    Blend: AUG-CC-PVTZ-RI
    Molecular point group: c1

    Geometry (in Angstrom), charge = 0, multiplicity = 1:

       Center              X                  Y                   Z               Mass
    ------------   -----------------  -----------------  -----------------  -----------------
         O            1.521948109285     1.123811646070    -0.359416891965    15.994914619570
         O            1.521957109285    -1.085270353930    -0.359416891965    15.994914619570
         N            1.125358109285     0.019268646070     0.054048108035    14.003074004430
         C           -1.334020890715     0.019265646070     0.423295108035    12.000000000000
         C            0.048839109285     0.019265646070     1.082722108035    12.000000000000
         C           -1.576459890715    -1.244946353930    -0.399781891965    12.000000000000
         C           -1.544728390715     1.117995346070    -0.292039391965    12.000000000000
         H           -2.036863890715     0.019261646070     1.268194108035     1.007825032230
         H            0.206861109285     0.917713646070     1.682345108035     1.007825032230
         H            0.206864109285    -0.879183353930     1.682342108035     1.007825032230
         H           -0.910498890715    -1.285639353930    -1.265598891965     1.007825032230
         H           -2.607903890715    -1.260065353930    -0.763439891965     1.007825032230
         H           -1.409625890715    -2.148470353930     0.194071108035     1.007825032230
         H           -1.409638890715     2.187001646070     0.194080108035     1.007825032230
         H           -0.910498890715     1.324181646070    -1.265592891965     1.007825032230
         H           -2.607905890715     1.298594646070    -0.763441891965     1.007825032230

  Basis Set: AUG-CC-PVTZ
    Blend: AUG-CC-PVTZ
  Basis Set: (AUG-CC-PVTZ AUX)
    Blend: AUG-CC-PVTZ-JKFIT
	 Reference Energy          =    -360.8487370307614697 [Eh]
	 Singles Energy            =      -0.0000000000000000 [Eh]
	 Same-Spin Energy          =      -0.3722394214344387 [Eh]
	 Opposite-Spin Energy      =      -1.1857330740945264 [Eh]
	 Correlation Energy        =      -1.5579724955289651 [Eh]
	 Total Energy              =    -362.4067095262904559 [Eh]

	 ================> DF-SCS-MP2 Energies <==================
	-----------------------------------------------------------
	 SCS Same-Spin Scale       =       0.3333333333333333 [-]
	 SCS Opposite-Spin Scale   =       1.2000000000000000 [-]
	 SCS Same-Spin Energy      =      -0.1240798071448129 [Eh]
	 SCS Opposite-Spin Energy  =      -1.4228796889134316 [Eh]
	 SCS Correlation Energy    =      -1.5469594960582445 [Eh]
	 SCS Total Energy          =    -362.3956965268197337 [Eh]
	-----------------------------------------------------------

  Dipole Moment: [D]
     X:    -2.9841      Y:    -0.0149      Z:     2.1719     Total:     3.6908

*** Psi4 exiting successfully. Buy a developer a beer!
