                               Psi4 1.4a3.dev225

  ==> Input File <==

--------------------------------------------------------------------------
#psi4
#
memory 32 gb

molecule  {
0 1
  O        1.6402157     1.0943769    -0.3702187
  O        1.6269410    -1.1045380    -0.3563700
  N        1.2303420     0.0000010     0.0570950
  C       -1.2290370    -0.0000020     0.4263420
  C        0.1538230    -0.0000020     1.0857690
  C       -1.4714760    -1.2642140    -0.3967350
  C       -1.4714800     1.2642120    -0.3967320
  H       -1.9318800    -0.0000060     1.2712410
  H        0.3118450     0.8984460     1.6853920
  H        0.3118480    -0.8984510     1.6853890
  H       -0.8055150    -1.3049070    -1.2625520
  H       -2.5029200    -1.2793330    -0.7603930
  H       -1.3046420    -2.1677380     0.1971180
  H       -1.3046550     2.1677340     0.1971270
  H       -0.8055150     1.3049140    -1.2625460
  H       -2.5029220     1.2793270    -0.7603950
units angstrom
no_reorient  #important for SAPT in psi4, default
symmetry c1  #important for SAPT in psi4, default
}

set PROPERTIES_ORIGIN ["COM"]
properties('MP2/aug-cc-pvtz', properties = ['dipole'])
--------------------------------------------------------------------------

    Molecular point group: c1
  Charge       = 0
  Multiplicity = 1
  Basis Set: AUG-CC-PVTZ
    Blend: AUG-CC-PVTZ
  Basis Set: (AUG-CC-PVTZ AUX)
    Blend: AUG-CC-PVTZ-JKFIT

    Orbital Energies [Eh]
    ---------------------

    Doubly Occupied:

       1A    -20.605223     2A    -20.604732     3A    -15.845267
       4A    -11.306963     5A    -11.265036     6A    -11.228534
       7A    -11.228402     8A     -1.584186     9A     -1.382780
      10A     -1.144698    11A     -1.042442    12A     -0.948199
      13A     -0.881343    14A     -0.803887    15A     -0.738338
      16A     -0.727892    17A     -0.705420    18A     -0.638093
      19A     -0.629031    20A     -0.608338    21A     -0.557468
      22A     -0.544786    23A     -0.517430    24A     -0.500617
      25A     -0.500372    26A     -0.483867    27A     -0.475500
      28A     -0.447136

  @DF-RHF Final Energy:  -360.89948514855331

   => Energetics <=

    Nuclear Repulsion Energy =            328.3883436423508329
    One-Electron Energy =               -1142.6836998129724634
    Two-Electron Energy =                 453.3958710220683201
    Total Energy =                       -360.8994851485533104
  Basis Set: (AUG-CC-PVTZ AUX)
    Blend: AUG-CC-PVTZ-RI
    Molecular point group: c1

    Geometry (in Angstrom), charge = 0, multiplicity = 1:

       Center              X                  Y                   Z               Mass
    ------------   -----------------  -----------------  -----------------  -----------------
         O            1.536865313220     1.095954551680    -0.358571880869    15.994914619570
         O            1.523590613220    -1.102960348320    -0.344723180869    15.994914619570
         N            1.126991613220     0.001578651680     0.068741819131    14.003074004430
         C           -1.332387386780     0.001575651680     0.437988819131    12.000000000000
         C            0.050472613220     0.001575651680     1.097415819131    12.000000000000
         C           -1.574826386780    -1.262636348320    -0.385088180869    12.000000000000
         C           -1.574830386780     1.265789651680    -0.385085180869    12.000000000000
         H           -2.035230386780     0.001571651680     1.282887819131     1.007825032230
         H            0.208494613220     0.900023651680     1.697038819131     1.007825032230
         H            0.208497613220    -0.896873348320     1.697035819131     1.007825032230
         H           -0.908865386780    -1.303329348320    -1.250905180869     1.007825032230
         H           -2.606270386780    -1.277755348320    -0.748746180869     1.007825032230
         H           -1.407992386780    -2.166160348320     0.208764819131     1.007825032230
         H           -1.408005386780     2.169311651680     0.208773819131     1.007825032230
         H           -0.908865386780     1.306491651680    -1.250899180869     1.007825032230
         H           -2.606272386780     1.280904651680    -0.748748180869     1.007825032230

  Basis Set: AUG-CC-PVTZ
    Blend: AUG-CC-PVTZ
  Basis Set: (AUG-CC-PVTZ AUX)
    Blend: AUG-CC-PVTZ-JKFIT
	 Reference Energy          =    -360.8994851485533104 [Eh]
	 Singles Energy            =      -0.0000000000000000 [Eh]
	 Same-Spin Energy          =      -0.3688427811351168 [Eh]
	 Opposite-Spin Energy      =      -1.1811357206753637 [Eh]
	 Correlation Energy        =      -1.5499785018104806 [Eh]
	 Total Energy              =    -362.4494636503637821 [Eh]

	 ================> DF-SCS-MP2 Energies <==================
	-----------------------------------------------------------
	 SCS Same-Spin Scale       =       0.3333333333333333 [-]
	 SCS Opposite-Spin Scale   =       1.2000000000000000 [-]
	 SCS Same-Spin Energy      =      -0.1229475937117056 [Eh]
	 SCS Opposite-Spin Energy  =      -1.4173628648104364 [Eh]
	 SCS Correlation Energy    =      -1.5403104585221419 [Eh]
	 SCS Total Energy          =    -362.4397956070754390 [Eh]
	-----------------------------------------------------------

  Dipole Moment: [D]
     X:    -3.0255      Y:     0.0110      Z:     2.1954     Total:     3.7381

*** Psi4 exiting successfully. Buy a developer a beer!
