                               Psi4 1.4a3.dev225

  ==> Input File <==

--------------------------------------------------------------------------
#psi4
#
memory 32 gb

molecule  {
0 1
  O        1.6269320     1.1045440    -0.3563700
  O        1.6269410    -1.1045380    -0.3563700
  N        1.2303420     0.0000010     0.0570950
  C       -1.2290370    -0.0000020     0.4263420
  C        0.1538230    -0.0000020     1.0857690
  C       -1.4714760    -1.2642140    -0.3967350
  C       -1.4714800     1.2642120    -0.3967320
  H       -1.9318800    -0.0000060     1.2712410
  H        0.3118450     0.8984460     1.6853920
  H        0.3263236    -0.9807520     1.7403162
  H       -0.8055150    -1.3049070    -1.2625520
  H       -2.5029200    -1.2793330    -0.7603930
  H       -1.3046420    -2.1677380     0.1971180
  H       -1.3046550     2.1677340     0.1971270
  H       -0.8055150     1.3049140    -1.2625460
  H       -2.5029220     1.2793270    -0.7603950
units angstrom
no_reorient  #important for SAPT in psi4, default
symmetry c1  #important for SAPT in psi4, default
}

set PROPERTIES_ORIGIN ["COM"]
properties('MP2/aug-cc-pvtz', properties = ['dipole'])
--------------------------------------------------------------------------

    Molecular point group: c1
  Charge       = 0
  Multiplicity = 1
  Basis Set: AUG-CC-PVTZ
    Blend: AUG-CC-PVTZ
  Basis Set: (AUG-CC-PVTZ AUX)
    Blend: AUG-CC-PVTZ-JKFIT

    Orbital Energies [Eh]
    ---------------------

    Doubly Occupied:

       1A    -20.606559     2A    -20.606046     3A    -15.846424
       4A    -11.316263     5A    -11.265133     6A    -11.228812
       7A    -11.228106     8A     -1.584473     9A     -1.385138
      10A     -1.141377    11A     -1.040356    12A     -0.948045
      13A     -0.878469    14A     -0.803186    15A     -0.735375
      16A     -0.726212    17A     -0.703854    18A     -0.629698
      19A     -0.628261    20A     -0.605728    21A     -0.556887
      22A     -0.541475    23A     -0.516914    24A     -0.501223
      25A     -0.499660    26A     -0.482304    27A     -0.474997
      28A     -0.448383

  @DF-RHF Final Energy:  -360.89218556581210

   => Energetics <=

    Nuclear Repulsion Energy =            328.0015478604907457
    One-Electron Energy =               -1141.9287480306970792
    Two-Electron Energy =                 453.0350146043942345
    Total Energy =                       -360.8921855658120990
  Basis Set: (AUG-CC-PVTZ AUX)
    Blend: AUG-CC-PVTZ-RI
    Molecular point group: c1

    Geometry (in Angstrom), charge = 0, multiplicity = 1:

       Center              X                  Y                   Z               Mass
    ------------   -----------------  -----------------  -----------------  -----------------
         O            1.525501624713     1.105348564981    -0.347409546476    15.994914619570
         O            1.525510624713    -1.103733435019    -0.347409546476    15.994914619570
         N            1.128911624713     0.000805564981     0.066055453524    14.003074004430
         C           -1.330467375287     0.000802564981     0.435302453524    12.000000000000
         C            0.052392624713     0.000802564981     1.094729453524    12.000000000000
         C           -1.572906375287    -1.263409435019    -0.387774546476    12.000000000000
         C           -1.572910375287     1.265016564981    -0.387771546476    12.000000000000
         H           -2.033310375287     0.000798564981     1.280201453524     1.007825032230
         H            0.210414624713     0.899250564981     1.694352453524     1.007825032230
         H            0.224893224713    -0.979947435019     1.749276653524     1.007825032230
         H           -0.906945375287    -1.304102435019    -1.253591546476     1.007825032230
         H           -2.604350375287    -1.278528435019    -0.751432546476     1.007825032230
         H           -1.406072375287    -2.166933435019     0.206078453524     1.007825032230
         H           -1.406085375287     2.168538564981     0.206087453524     1.007825032230
         H           -0.906945375287     1.305718564981    -1.253585546476     1.007825032230
         H           -2.604352375287     1.280131564981    -0.751434546476     1.007825032230

  Basis Set: AUG-CC-PVTZ
    Blend: AUG-CC-PVTZ
  Basis Set: (AUG-CC-PVTZ AUX)
    Blend: AUG-CC-PVTZ-JKFIT
	 Reference Energy          =    -360.8921855658120990 [Eh]
	 Singles Energy            =      -0.0000000000000000 [Eh]
	 Same-Spin Energy          =      -0.3691712134091271 [Eh]
	 Opposite-Spin Energy      =      -1.1822794101888439 [Eh]
	 Correlation Energy        =      -1.5514506235979710 [Eh]
	 Total Energy              =    -362.4436361894100855 [Eh]

	 ================> DF-SCS-MP2 Energies <==================
	-----------------------------------------------------------
	 SCS Same-Spin Scale       =       0.3333333333333333 [-]
	 SCS Opposite-Spin Scale   =       1.2000000000000000 [-]
	 SCS Same-Spin Energy      =      -0.1230570711363757 [Eh]
	 SCS Opposite-Spin Energy  =      -1.4187352922266125 [Eh]
	 SCS Correlation Energy    =      -1.5417923633629882 [Eh]
	 SCS Total Energy          =    -362.4339779291751142 [Eh]
	-----------------------------------------------------------

  Dipole Moment: [D]
     X:    -2.9920      Y:     0.0122      Z:     2.1386     Total:     3.6778

*** Psi4 exiting successfully. Buy a developer a beer!
