                               Psi4 1.4a3.dev225

  ==> Input File <==

--------------------------------------------------------------------------
#psi4
#
memory 32 gb

molecule  {
0 1
  O        1.6269320     1.1045440    -0.3563700
  O        1.6269410    -1.1045380    -0.3563700
  N        1.2367166     0.0177548     0.0504492
  C       -1.2290370    -0.0000020     0.4263420
  C        0.1538230    -0.0000020     1.0857690
  C       -1.4714760    -1.2642140    -0.3967350
  C       -1.4714800     1.2642120    -0.3967320
  H       -1.9318800    -0.0000060     1.2712410
  H        0.3118450     0.8984460     1.6853920
  H        0.3118480    -0.8984510     1.6853890
  H       -0.8055150    -1.3049070    -1.2625520
  H       -2.5029200    -1.2793330    -0.7603930
  H       -1.3046420    -2.1677380     0.1971180
  H       -1.3046550     2.1677340     0.1971270
  H       -0.8055150     1.3049140    -1.2625460
  H       -2.5029220     1.2793270    -0.7603950
units angstrom
no_reorient  #important for SAPT in psi4, default
symmetry c1  #important for SAPT in psi4, default
}

set PROPERTIES_ORIGIN ["COM"]
properties('MP2/aug-cc-pvtz', properties = ['dipole'])
--------------------------------------------------------------------------

    Molecular point group: c1
  Charge       = 0
  Multiplicity = 1
  Basis Set: AUG-CC-PVTZ
    Blend: AUG-CC-PVTZ
  Basis Set: (AUG-CC-PVTZ AUX)
    Blend: AUG-CC-PVTZ-JKFIT

    Orbital Energies [Eh]
    ---------------------

    Doubly Occupied:

       1A    -20.612672     2A    -20.599203     3A    -15.845344
       4A    -11.305787     5A    -11.264185     6A    -11.228654
       7A    -11.227441     8A     -1.588707     9A     -1.387415
      10A     -1.141741    11A     -1.039386    12A     -0.947742
      13A     -0.880912    14A     -0.804600    15A     -0.738934
      16A     -0.729189    17A     -0.706828    18A     -0.638455
      19A     -0.629530    20A     -0.608227    21A     -0.557343
      22A     -0.544406    23A     -0.516234    24A     -0.501323
      25A     -0.499881    26A     -0.484917    27A     -0.472464
      28A     -0.449094

  @DF-RHF Final Energy:  -360.90013195886900

   => Energetics <=

    Nuclear Repulsion Energy =            328.4872966331566317
    One-Electron Energy =               -1142.8736337886673482
    Two-Electron Energy =                 453.4862051966417766
    Total Energy =                       -360.9001319588689967
  Basis Set: (AUG-CC-PVTZ AUX)
    Blend: AUG-CC-PVTZ-RI
    Molecular point group: c1

    Geometry (in Angstrom), charge = 0, multiplicity = 1:

       Center              X                  Y                   Z               Mass
    ------------   -----------------  -----------------  -----------------  -----------------
         O            1.524777069000     1.102131583850    -0.345969474256    15.994914619570
         O            1.524786069000    -1.106950416150    -0.345969474256    15.994914619570
         N            1.134561669000     0.015342383850     0.060849725744    14.003074004430
         C           -1.331191931000    -0.002414416150     0.436742525744    12.000000000000
         C            0.051668069000    -0.002414416150     1.096169525744    12.000000000000
         C           -1.573630931000    -1.266626416150    -0.386334474256    12.000000000000
         C           -1.573634931000     1.261799583850    -0.386331474256    12.000000000000
         H           -2.034034931000    -0.002418416150     1.281641525744     1.007825032230
         H            0.209690069000     0.896033583850     1.695792525744     1.007825032230
         H            0.209693069000    -0.900863416150     1.695789525744     1.007825032230
         H           -0.907669931000    -1.307319416150    -1.252151474256     1.007825032230
         H           -2.605074931000    -1.281745416150    -0.749992474256     1.007825032230
         H           -1.406796931000    -2.170150416150     0.207518525744     1.007825032230
         H           -1.406809931000     2.165321583850     0.207527525744     1.007825032230
         H           -0.907669931000     1.302501583850    -1.252145474256     1.007825032230
         H           -2.605076931000     1.276914583850    -0.749994474256     1.007825032230

  Basis Set: AUG-CC-PVTZ
    Blend: AUG-CC-PVTZ
  Basis Set: (AUG-CC-PVTZ AUX)
    Blend: AUG-CC-PVTZ-JKFIT
	 Reference Energy          =    -360.9001319588689967 [Eh]
	 Singles Energy            =      -0.0000000000000000 [Eh]
	 Same-Spin Energy          =      -0.3685285569046782 [Eh]
	 Opposite-Spin Energy      =      -1.1804296102017124 [Eh]
	 Correlation Energy        =      -1.5489581671063908 [Eh]
	 Total Energy              =    -362.4490901259753741 [Eh]

	 ================> DF-SCS-MP2 Energies <==================
	-----------------------------------------------------------
	 SCS Same-Spin Scale       =       0.3333333333333333 [-]
	 SCS Opposite-Spin Scale   =       1.2000000000000000 [-]
	 SCS Same-Spin Energy      =      -0.1228428523015594 [Eh]
	 SCS Opposite-Spin Energy  =      -1.4165155322420548 [Eh]
	 SCS Correlation Energy    =      -1.5393583845436143 [Eh]
	 SCS Total Energy          =    -362.4394903434126149 [Eh]
	-----------------------------------------------------------

  Dipole Moment: [D]
     X:    -2.9648      Y:     0.0934      Z:     2.1520     Total:     3.6647

*** Psi4 exiting successfully. Buy a developer a beer!
