                               Psi4 1.4a3.dev225

  ==> Input File <==

--------------------------------------------------------------------------
#psi4
#
memory 32 gb

molecule  {
0 1
  O        1.6269320     1.1045440    -0.3563700
  O        1.6269410    -1.1045380    -0.3563700
  N        1.2303420     0.0000010     0.0570950
  C       -1.2290370    -0.0000020     0.4263420
  C        0.1538230    -0.0000020     1.0857690
  C       -1.4714760    -1.2642140    -0.3967350
  C       -1.4714800     1.2642120    -0.3967320
  H       -1.9318800    -0.0000060     1.2712410
  H        0.3118450     0.8984460     1.6853920
  H        0.2973724    -0.8161500     1.6304618
  H       -0.8055150    -1.3049070    -1.2625520
  H       -2.5029200    -1.2793330    -0.7603930
  H       -1.3046420    -2.1677380     0.1971180
  H       -1.3046550     2.1677340     0.1971270
  H       -0.8055150     1.3049140    -1.2625460
  H       -2.5029220     1.2793270    -0.7603950
units angstrom
no_reorient  #important for SAPT in psi4, default
symmetry c1  #important for SAPT in psi4, default
}

set PROPERTIES_ORIGIN ["COM"]
properties('MP2/aug-cc-pvtz', properties = ['dipole'])
--------------------------------------------------------------------------

    Molecular point group: c1
  Charge       = 0
  Multiplicity = 1
  Basis Set: AUG-CC-PVTZ
    Blend: AUG-CC-PVTZ
  Basis Set: (AUG-CC-PVTZ AUX)
    Blend: AUG-CC-PVTZ-JKFIT

    Orbital Energies [Eh]
    ---------------------

    Doubly Occupied:

       1A    -20.606124     2A    -20.605611     3A    -15.845141
       4A    -11.294967     5A    -11.264267     6A    -11.228375
       7A    -11.227805     8A     -1.584069     9A     -1.384771
      10A     -1.147860    11A     -1.044055    12A     -0.947947
      13A     -0.885577    14A     -0.805869    15A     -0.745414
      16A     -0.729893    17A     -0.707084    18A     -0.647479
      19A     -0.628660    20A     -0.609337    21A     -0.558098
      22A     -0.546769    23A     -0.516864    24A     -0.500883
      25A     -0.500738    26A     -0.486008    27A     -0.474573
      28A     -0.448208

  @DF-RHF Final Energy:  -360.89375915055678

   => Energetics <=

    Nuclear Repulsion Energy =            329.0216367009456917
    One-Electron Energy =               -1143.8859003871534696
    Two-Electron Energy =                 453.9705045356510027
    Total Energy =                       -360.8937591505567752
  Basis Set: (AUG-CC-PVTZ AUX)
    Blend: AUG-CC-PVTZ-RI
    Molecular point group: c1

    Geometry (in Angstrom), charge = 0, multiplicity = 1:

       Center              X                  Y                   Z               Mass
    ------------   -----------------  -----------------  -----------------  -----------------
         O            1.525784729717     1.103738971944    -0.346335313616    15.994914619570
         O            1.525793729717    -1.105343028056    -0.346335313616    15.994914619570
         N            1.129194729717    -0.000804028056     0.067129686384    14.003074004430
         C           -1.330184270283    -0.000807028056     0.436376686384    12.000000000000
         C            0.052675729717    -0.000807028056     1.095803686384    12.000000000000
         C           -1.572623270283    -1.265019028056    -0.386700313616    12.000000000000
         C           -1.572627270283     1.263406971944    -0.386697313616    12.000000000000
         H           -2.033027270283    -0.000811028056     1.281275686384     1.007825032230
         H            0.210697729717     0.897640971944     1.695426686384     1.007825032230
         H            0.196225129717    -0.816955028056     1.640496486384     1.007825032230
         H           -0.906662270283    -1.305712028056    -1.252517313616     1.007825032230
         H           -2.604067270283    -1.280138028056    -0.750358313616     1.007825032230
         H           -1.405789270283    -2.168543028056     0.207152686384     1.007825032230
         H           -1.405802270283     2.166928971944     0.207161686384     1.007825032230
         H           -0.906662270283     1.304108971944    -1.252511313616     1.007825032230
         H           -2.604069270283     1.278521971944    -0.750360313616     1.007825032230

  Basis Set: AUG-CC-PVTZ
    Blend: AUG-CC-PVTZ
  Basis Set: (AUG-CC-PVTZ AUX)
    Blend: AUG-CC-PVTZ-JKFIT
	 Reference Energy          =    -360.8937591505567752 [Eh]
	 Singles Energy            =      -0.0000000000000000 [Eh]
	 Same-Spin Energy          =      -0.3687095923696508 [Eh]
	 Opposite-Spin Energy      =      -1.1805036208391257 [Eh]
	 Correlation Energy        =      -1.5492132132087766 [Eh]
	 Total Energy              =    -362.4429723637655343 [Eh]

	 ================> DF-SCS-MP2 Energies <==================
	-----------------------------------------------------------
	 SCS Same-Spin Scale       =       0.3333333333333333 [-]
	 SCS Opposite-Spin Scale   =       1.2000000000000000 [-]
	 SCS Same-Spin Energy      =      -0.1229031974565503 [Eh]
	 SCS Opposite-Spin Energy  =      -1.4166043450069508 [Eh]
	 SCS Correlation Energy    =      -1.5395075424635010 [Eh]
	 SCS Total Energy          =    -362.4332666930203004 [Eh]
	-----------------------------------------------------------

  Dipole Moment: [D]
     X:    -2.9898      Y:    -0.0040      Z:     2.1881     Total:     3.7050

*** Psi4 exiting successfully. Buy a developer a beer!
