                               Psi4 1.4a3.dev225

  ==> Input File <==

--------------------------------------------------------------------------
#psi4
#
memory 32 gb

molecule  {
0 1
  O        1.6269320     1.1045440    -0.3563700
  O        1.6269410    -1.1045380    -0.3563700
  N        1.2303420     0.0000010     0.0570950
  C       -1.2290370    -0.0000020     0.4263420
  C        0.1538230    -0.0000020     1.0857690
  C       -1.4714760    -1.2642140    -0.3967350
  C       -1.4714800     1.2642120    -0.3967320
  H       -1.9318800    -0.0000060     1.2712410
  H        0.3118450     0.8984460     1.6853920
  H        0.3118480    -0.8984510     1.6853890
  H       -0.8055150    -1.3049070    -1.2625520
  H       -2.3143181    -1.2765685    -0.6938973
  H       -1.3046420    -2.1677380     0.1971180
  H       -1.3046550     2.1677340     0.1971270
  H       -0.8055150     1.3049140    -1.2625460
  H       -2.5029220     1.2793270    -0.7603950
units angstrom
no_reorient  #important for SAPT in psi4, default
symmetry c1  #important for SAPT in psi4, default
}

set PROPERTIES_ORIGIN ["COM"]
properties('MP2/aug-cc-pvtz', properties = ['dipole'])
--------------------------------------------------------------------------

    Molecular point group: c1
  Charge       = 0
  Multiplicity = 1
  Basis Set: AUG-CC-PVTZ
    Blend: AUG-CC-PVTZ
  Basis Set: (AUG-CC-PVTZ AUX)
    Blend: AUG-CC-PVTZ-JKFIT

    Orbital Energies [Eh]
    ---------------------

    Doubly Occupied:

       1A    -20.605050     2A    -20.604991     3A    -15.844699
       4A    -11.304574     5A    -11.263250     6A    -11.228310
       7A    -11.203313     8A     -1.583192     9A     -1.383904
      10A     -1.144311    11A     -1.047658    12A     -0.962990
      13A     -0.884737    14A     -0.807225    15A     -0.739914
      16A     -0.727899    17A     -0.704561    18A     -0.646913
      19A     -0.630919    20A     -0.611700    21A     -0.565556
      22A     -0.554722    23A     -0.518412    24A     -0.502098
      25A     -0.499796    26A     -0.483411    27A     -0.474590
      28A     -0.447534

  @DF-RHF Final Energy:  -360.86535416339893

   => Energetics <=

    Nuclear Repulsion Energy =            329.5348927134983228
    One-Electron Energy =               -1144.8480395803705960
    Two-Electron Energy =                 454.4477927034733966
    Total Energy =                       -360.8653541633989335
  Basis Set: (AUG-CC-PVTZ AUX)
    Blend: AUG-CC-PVTZ-RI
    Molecular point group: c1

    Geometry (in Angstrom), charge = 0, multiplicity = 1:

       Center              X                  Y                   Z               Mass
    ------------   -----------------  -----------------  -----------------  -----------------
         O            1.523798896435     1.104516735256    -0.347522671329    15.994914619570
         O            1.523807896435    -1.104565264744    -0.347522671329    15.994914619570
         N            1.127208896435    -0.000026264744     0.065942328671    14.003074004430
         C           -1.332170103565    -0.000029264744     0.435189328671    12.000000000000
         C            0.050689896435    -0.000029264744     1.094616328671    12.000000000000
         C           -1.574609103565    -1.264241264744    -0.387887671329    12.000000000000
         C           -1.574613103565     1.264184735256    -0.387884671329    12.000000000000
         H           -2.035013103565    -0.000033264744     1.280088328671     1.007825032230
         H            0.208711896435     0.898418735256     1.694239328671     1.007825032230
         H            0.208714896435    -0.898478264744     1.694236328671     1.007825032230
         H           -0.908648103565    -1.304934264744    -1.253704671329     1.007825032230
         H           -2.417451203565    -1.276595764744    -0.685049971329     1.007825032230
         H           -1.407775103565    -2.167765264744     0.205965328671     1.007825032230
         H           -1.407788103565     2.167706735256     0.205974328671     1.007825032230
         H           -0.908648103565     1.304886735256    -1.253698671329     1.007825032230
         H           -2.606055103565     1.279299735256    -0.751547671329     1.007825032230

  Basis Set: AUG-CC-PVTZ
    Blend: AUG-CC-PVTZ
  Basis Set: (AUG-CC-PVTZ AUX)
    Blend: AUG-CC-PVTZ-JKFIT
	 Reference Energy          =    -360.8653541633989335 [Eh]
	 Singles Energy            =      -0.0000000000000000 [Eh]
	 Same-Spin Energy          =      -0.3690227155036050 [Eh]
	 Opposite-Spin Energy      =      -1.1805870711502251 [Eh]
	 Correlation Energy        =      -1.5496097866538301 [Eh]
	 Total Energy              =    -362.4149639500527655 [Eh]

	 ================> DF-SCS-MP2 Energies <==================
	-----------------------------------------------------------
	 SCS Same-Spin Scale       =       0.3333333333333333 [-]
	 SCS Opposite-Spin Scale   =       1.2000000000000000 [-]
	 SCS Same-Spin Energy      =      -0.1230075718345350 [Eh]
	 SCS Opposite-Spin Energy  =      -1.4167044853802702 [Eh]
	 SCS Correlation Energy    =      -1.5397120572148051 [Eh]
	 SCS Total Energy          =    -362.4050662206137190 [Eh]
	-----------------------------------------------------------

  Dipole Moment: [D]
     X:    -3.0796      Y:    -0.0257      Z:     2.1304     Total:     3.7448

*** Psi4 exiting successfully. Buy a developer a beer!
