                               Psi4 1.4a3.dev225

  ==> Input File <==

--------------------------------------------------------------------------
#psi4
#
memory 32 gb

molecule  {
0 1
  O        1.6269320     1.1045440    -0.3563700
  O        1.6269410    -1.1045380    -0.3563700
  N        1.2303420     0.0000010     0.0570950
  C       -1.2290370    -0.0000020     0.4263420
  C        0.1538230    -0.0000020     1.0857690
  C       -1.4714760    -1.2642140    -0.3967350
  C       -1.4714800     1.2642120    -0.3967320
  H       -1.9318800    -0.0000060     1.2712410
  H        0.3118450     0.8984460     1.6853920
  H        0.3118480    -0.8984510     1.6853890
  H       -0.8177002    -1.3041624    -1.2467100
  H       -2.5029200    -1.2793330    -0.7603930
  H       -1.3046420    -2.1677380     0.1971180
  H       -1.3046550     2.1677340     0.1971270
  H       -0.8055150     1.3049140    -1.2625460
  H       -2.5029220     1.2793270    -0.7603950
units angstrom
no_reorient  #important for SAPT in psi4, default
symmetry c1  #important for SAPT in psi4, default
}

set PROPERTIES_ORIGIN ["COM"]
properties('MP2/aug-cc-pvtz', properties = ['dipole'])
--------------------------------------------------------------------------

    Molecular point group: c1
  Charge       = 0
  Multiplicity = 1
  Basis Set: AUG-CC-PVTZ
    Blend: AUG-CC-PVTZ
  Basis Set: (AUG-CC-PVTZ AUX)
    Blend: AUG-CC-PVTZ-JKFIT

    Orbital Energies [Eh]
    ---------------------

    Doubly Occupied:

       1A    -20.606088     2A    -20.606037     3A    -15.845717
       4A    -11.305932     5A    -11.264422     6A    -11.228223
       7A    -11.225884     8A     -1.584242     9A     -1.384939
      10A     -1.143952    11A     -1.042110    12A     -0.949057
      13A     -0.881596    14A     -0.804616    15A     -0.738320
      16A     -0.728642    17A     -0.705698    18A     -0.638140
      19A     -0.629315    20A     -0.607925    21A     -0.559643
      22A     -0.544525    23A     -0.517551    24A     -0.501021
      25A     -0.500283    26A     -0.484498    27A     -0.475032
      28A     -0.448406

  @DF-RHF Final Energy:  -360.89944963141761

   => Energetics <=

    Nuclear Repulsion Energy =            328.5586077783668770
    One-Electron Energy =               -1143.0124866191049477
    Two-Electron Energy =                 453.5544292093204604
    Total Energy =                       -360.8994496314176104
  Basis Set: (AUG-CC-PVTZ AUX)
    Blend: AUG-CC-PVTZ-RI
    Molecular point group: c1

    Geometry (in Angstrom), charge = 0, multiplicity = 1:

       Center              X                  Y                   Z               Mass
    ------------   -----------------  -----------------  -----------------  -----------------
         O            1.525762332590     1.104536487245    -0.347027344160    15.994914619570
         O            1.525771332590    -1.104545512755    -0.347027344160    15.994914619570
         N            1.129172332590    -0.000006512755     0.066437655840    14.003074004430
         C           -1.330206667410    -0.000009512755     0.435684655840    12.000000000000
         C            0.052653332590    -0.000009512755     1.095111655840    12.000000000000
         C           -1.572645667410    -1.264221512755    -0.387392344160    12.000000000000
         C           -1.572649667410     1.264204487245    -0.387389344160    12.000000000000
         H           -2.033049667410    -0.000013512755     1.280583655840     1.007825032230
         H            0.210675332590     0.898438487245     1.694734655840     1.007825032230
         H            0.210678332590    -0.898458512755     1.694731655840     1.007825032230
         H           -0.918869867410    -1.304169912755    -1.237367344160     1.007825032230
         H           -2.604089667410    -1.279340512755    -0.751050344160     1.007825032230
         H           -1.405811667410    -2.167745512755     0.206460655840     1.007825032230
         H           -1.405824667410     2.167726487245     0.206469655840     1.007825032230
         H           -0.906684667410     1.304906487245    -1.253203344160     1.007825032230
         H           -2.604091667410     1.279319487245    -0.751052344160     1.007825032230

  Basis Set: AUG-CC-PVTZ
    Blend: AUG-CC-PVTZ
  Basis Set: (AUG-CC-PVTZ AUX)
    Blend: AUG-CC-PVTZ-JKFIT
	 Reference Energy          =    -360.8994496314176104 [Eh]
	 Singles Energy            =      -0.0000000000000000 [Eh]
	 Same-Spin Energy          =      -0.3688803818492903 [Eh]
	 Opposite-Spin Energy      =      -1.1810878852993485 [Eh]
	 Correlation Energy        =      -1.5499682671486388 [Eh]
	 Total Energy              =    -362.4494178985662529 [Eh]

	 ================> DF-SCS-MP2 Energies <==================
	-----------------------------------------------------------
	 SCS Same-Spin Scale       =       0.3333333333333333 [-]
	 SCS Opposite-Spin Scale   =       1.2000000000000000 [-]
	 SCS Same-Spin Energy      =      -0.1229601272830968 [Eh]
	 SCS Opposite-Spin Energy  =      -1.4173054623592181 [Eh]
	 SCS Correlation Energy    =      -1.5402655896423147 [Eh]
	 SCS Total Energy          =    -362.4397152210599415 [Eh]
	-----------------------------------------------------------

  Dipole Moment: [D]
     X:    -2.9875      Y:    -0.0006      Z:     2.1621     Total:     3.6878

*** Psi4 exiting successfully. Buy a developer a beer!
