                               Psi4 1.4a3.dev225

  ==> Input File <==

--------------------------------------------------------------------------
#psi4
#
memory 32 gb

molecule  {
0 1
  O        1.6269320     1.1045440    -0.3563700
  O        1.6269410    -1.1045380    -0.3563700
  N        1.2303420     0.0000010     0.0570950
  C       -1.2290370    -0.0000020     0.4263420
  C        0.1538230    -0.0000020     1.0857690
  C       -1.4714760    -1.2642140    -0.3967350
  C       -1.4714800     1.2642120    -0.3967320
  H       -1.9446704    -0.0000061     1.2866165
  H        0.3118450     0.8984460     1.6853920
  H        0.3118480    -0.8984510     1.6853890
  H       -0.8055150    -1.3049070    -1.2625520
  H       -2.5029200    -1.2793330    -0.7603930
  H       -1.3046420    -2.1677380     0.1971180
  H       -1.3046550     2.1677340     0.1971270
  H       -0.8055150     1.3049140    -1.2625460
  H       -2.5029220     1.2793270    -0.7603950
units angstrom
no_reorient  #important for SAPT in psi4, default
symmetry c1  #important for SAPT in psi4, default
}

set PROPERTIES_ORIGIN ["COM"]
properties('MP2/aug-cc-pvtz', properties = ['dipole'])
--------------------------------------------------------------------------

    Molecular point group: c1
  Charge       = 0
  Multiplicity = 1
  Basis Set: AUG-CC-PVTZ
    Blend: AUG-CC-PVTZ
  Basis Set: (AUG-CC-PVTZ AUX)
    Blend: AUG-CC-PVTZ-JKFIT

    Orbital Energies [Eh]
    ---------------------

    Doubly Occupied:

       1A    -20.606148     2A    -20.606098     3A    -15.845771
       4A    -11.306112     5A    -11.267059     6A    -11.228424
       7A    -11.228408     8A     -1.584304     9A     -1.384998
      10A     -1.143498    11A     -1.041499    12A     -0.948100
      13A     -0.880855    14A     -0.802804    15A     -0.738413
      16A     -0.728697    17A     -0.704691    18A     -0.638086
      19A     -0.627730    20A     -0.608144    21A     -0.557511
      22A     -0.544679    23A     -0.516178    24A     -0.501196
      25A     -0.500092    26A     -0.484668    27A     -0.473740
      28A     -0.448352

  @DF-RHF Final Energy:  -360.89884843978263

   => Energetics <=

    Nuclear Repulsion Energy =            328.3810134938983083
    One-Electron Energy =               -1142.6672120106663897
    Two-Electron Energy =                 453.3873500769854559
    Total Energy =                       -360.8988484397826255
  Basis Set: (AUG-CC-PVTZ AUX)
    Blend: AUG-CC-PVTZ-RI
    Molecular point group: c1

    Geometry (in Angstrom), charge = 0, multiplicity = 1:

       Center              X                  Y                   Z               Mass
    ------------   -----------------  -----------------  -----------------  -----------------
         O            1.525768250658     1.104543769441    -0.347022782398    15.994914619570
         O            1.525777250658    -1.104538230559    -0.347022782398    15.994914619570
         N            1.129178250658     0.000000769441     0.066442217602    14.003074004430
         C           -1.330200749342    -0.000002230559     0.435689217602    12.000000000000
         C            0.052659250658    -0.000002230559     1.095116217602    12.000000000000
         C           -1.572639749342    -1.264214230559    -0.387387782398    12.000000000000
         C           -1.572643749342     1.264211769441    -0.387384782398    12.000000000000
         H           -2.045834149342    -0.000006330559     1.295963717602     1.007825032230
         H            0.210681250658     0.898445769441     1.694739217602     1.007825032230
         H            0.210684250658    -0.898451230559     1.694736217602     1.007825032230
         H           -0.906678749342    -1.304907230559    -1.253204782398     1.007825032230
         H           -2.604083749342    -1.279333230559    -0.751045782398     1.007825032230
         H           -1.405805749342    -2.167738230559     0.206465217602     1.007825032230
         H           -1.405818749342     2.167733769441     0.206474217602     1.007825032230
         H           -0.906678749342     1.304913769441    -1.253198782398     1.007825032230
         H           -2.604085749342     1.279326769441    -0.751047782398     1.007825032230

  Basis Set: AUG-CC-PVTZ
    Blend: AUG-CC-PVTZ
  Basis Set: (AUG-CC-PVTZ AUX)
    Blend: AUG-CC-PVTZ-JKFIT
	 Reference Energy          =    -360.8988484397826255 [Eh]
	 Singles Energy            =      -0.0000000000000000 [Eh]
	 Same-Spin Energy          =      -0.3689169673727155 [Eh]
	 Opposite-Spin Energy      =      -1.1813783351358658 [Eh]
	 Correlation Energy        =      -1.5502953025085813 [Eh]
	 Total Energy              =    -362.4491437422911986 [Eh]

	 ================> DF-SCS-MP2 Energies <==================
	-----------------------------------------------------------
	 SCS Same-Spin Scale       =       0.3333333333333333 [-]
	 SCS Opposite-Spin Scale   =       1.2000000000000000 [-]
	 SCS Same-Spin Energy      =      -0.1229723224575718 [Eh]
	 SCS Opposite-Spin Energy  =      -1.4176540021630388 [Eh]
	 SCS Correlation Energy    =      -1.5406263246206107 [Eh]
	 SCS Total Energy          =    -362.4394747644032577 [Eh]
	-----------------------------------------------------------

  Dipole Moment: [D]
     X:    -2.9839      Y:    -0.0000      Z:     2.1579     Total:     3.6824

*** Psi4 exiting successfully. Buy a developer a beer!
