                               Psi4 1.4a3.dev225

  ==> Input File <==

--------------------------------------------------------------------------
#psi4
#
memory 32 gb

molecule  {
0 1
  O        1.6269320     1.1045440    -0.3563700
  O        1.6269410    -1.1045380    -0.3563700
  N        1.2303420     0.0000010     0.0570950
  C       -1.2290370    -0.0000020     0.4263420
  C        0.0815239    -0.0000022     1.1548548
  C       -1.4714760    -1.2642140    -0.3967350
  C       -1.4714800     1.2642120    -0.3967320
  H       -1.9318800    -0.0000060     1.2712410
  H        0.3118450     0.8984460     1.6853920
  H        0.3118480    -0.8984510     1.6853890
  H       -0.8055150    -1.3049070    -1.2625520
  H       -2.5029200    -1.2793330    -0.7603930
  H       -1.3046420    -2.1677380     0.1971180
  H       -1.3046550     2.1677340     0.1971270
  H       -0.8055150     1.3049140    -1.2625460
  H       -2.5029220     1.2793270    -0.7603950
units angstrom
no_reorient  #important for SAPT in psi4, default
symmetry c1  #important for SAPT in psi4, default
}

set PROPERTIES_ORIGIN ["COM"]
properties('MP2/aug-cc-pvtz', properties = ['dipole'])
--------------------------------------------------------------------------

    Molecular point group: c1
  Charge       = 0
  Multiplicity = 1
  Basis Set: AUG-CC-PVTZ
    Blend: AUG-CC-PVTZ
  Basis Set: (AUG-CC-PVTZ AUX)
    Blend: AUG-CC-PVTZ-JKFIT

    Orbital Energies [Eh]
    ---------------------

    Doubly Occupied:

       1A    -20.601135     2A    -20.601084     3A    -15.835737
       4A    -11.311778     5A    -11.263417     6A    -11.229813
       7A    -11.229797     8A     -1.572853     9A     -1.377709
      10A     -1.141441    11A     -1.026149    12A     -0.949260
      13A     -0.882242    14A     -0.804952    15A     -0.730123
      16A     -0.721248    17A     -0.697023    18A     -0.652568
      19A     -0.627941    20A     -0.614463    21A     -0.558270
      22A     -0.548180    23A     -0.517016    24A     -0.510596
      25A     -0.500084    26A     -0.484486    27A     -0.457472
      28A     -0.444157

  @DF-RHF Final Energy:  -360.89250512471011

   => Energetics <=

    Nuclear Repulsion Energy =            327.2249183666891668
    One-Electron Energy =               -1140.4528564804697908
    Two-Electron Energy =                 452.3354329890705117
    Total Energy =                       -360.8925051247101123
  Basis Set: (AUG-CC-PVTZ AUX)
    Blend: AUG-CC-PVTZ-RI
    Molecular point group: c1

    Geometry (in Angstrom), charge = 0, multiplicity = 1:

       Center              X                  Y                   Z               Mass
    ------------   -----------------  -----------------  -----------------  -----------------
         O            1.534061197595     1.104543791749    -0.354916315411    15.994914619570
         O            1.534070197595    -1.104538208251    -0.354916315411    15.994914619570
         N            1.137471197595     0.000000791749     0.058548684589    14.003074004430
         C           -1.321907802405    -0.000002208251     0.427795684589    12.000000000000
         C           -0.011346902405    -0.000002408251     1.156308484589    12.000000000000
         C           -1.564346802405    -1.264214208251    -0.395281315411    12.000000000000
         C           -1.564350802405     1.264211791749    -0.395278315411    12.000000000000
         H           -2.024750802405    -0.000006208251     1.272694684589     1.007825032230
         H            0.218974197595     0.898445791749     1.686845684589     1.007825032230
         H            0.218977197595    -0.898451208251     1.686842684589     1.007825032230
         H           -0.898385802405    -1.304907208251    -1.261098315411     1.007825032230
         H           -2.595790802405    -1.279333208251    -0.758939315411     1.007825032230
         H           -1.397512802405    -2.167738208251     0.198571684589     1.007825032230
         H           -1.397525802405     2.167733791749     0.198580684589     1.007825032230
         H           -0.898385802405     1.304913791749    -1.261092315411     1.007825032230
         H           -2.595792802405     1.279326791749    -0.758941315411     1.007825032230

  Basis Set: AUG-CC-PVTZ
    Blend: AUG-CC-PVTZ
  Basis Set: (AUG-CC-PVTZ AUX)
    Blend: AUG-CC-PVTZ-JKFIT
	 Reference Energy          =    -360.8925051247101123 [Eh]
	 Singles Energy            =      -0.0000000000000000 [Eh]
	 Same-Spin Energy          =      -0.3687941690286117 [Eh]
	 Opposite-Spin Energy      =      -1.1814262977228585 [Eh]
	 Correlation Energy        =      -1.5502204667514703 [Eh]
	 Total Energy              =    -362.4427255914615671 [Eh]

	 ================> DF-SCS-MP2 Energies <==================
	-----------------------------------------------------------
	 SCS Same-Spin Scale       =       0.3333333333333333 [-]
	 SCS Opposite-Spin Scale   =       1.2000000000000000 [-]
	 SCS Same-Spin Energy      =      -0.1229313896762039 [Eh]
	 SCS Opposite-Spin Energy  =      -1.4177115572674301 [Eh]
	 SCS Correlation Energy    =      -1.5406429469436340 [Eh]
	 SCS Total Energy          =    -362.4331480716537612 [Eh]
	-----------------------------------------------------------

  Dipole Moment: [D]
     X:    -3.0769      Y:    -0.0000      Z:     2.2209     Total:     3.7947

*** Psi4 exiting successfully. Buy a developer a beer!
