                               Psi4 1.4a3.dev225

  ==> Input File <==

--------------------------------------------------------------------------
#psi4
#
memory 32 gb

molecule  {
0 1
  O        1.6269320     1.1045440    -0.3563700
  O        1.6269410    -1.1045380    -0.3563700
  N        1.2303420     0.0000010     0.0570950
  C       -1.2290370    -0.0000020     0.4263420
  C        0.1538230    -0.0000020     1.0857690
  C       -1.4714760    -1.2642140    -0.3967350
  C       -1.4714800     1.2642120    -0.3967320
  H       -1.9318800    -0.0000060     1.2712410
  H        0.3118450     0.8984460     1.6853920
  H        0.3118480    -0.8984510     1.6853890
  H       -0.8207437    -1.3054103    -1.2740316
  H       -2.5029200    -1.2793330    -0.7603930
  H       -1.3046420    -2.1677380     0.1971180
  H       -1.3046550     2.1677340     0.1971270
  H       -0.8055150     1.3049140    -1.2625460
  H       -2.5029220     1.2793270    -0.7603950
units angstrom
no_reorient  #important for SAPT in psi4, default
symmetry c1  #important for SAPT in psi4, default
}

set PROPERTIES_ORIGIN ["COM"]
properties('MP2/aug-cc-pvtz', properties = ['dipole'])
--------------------------------------------------------------------------

    Molecular point group: c1
  Charge       = 0
  Multiplicity = 1
  Basis Set: AUG-CC-PVTZ
    Blend: AUG-CC-PVTZ
  Basis Set: (AUG-CC-PVTZ AUX)
    Blend: AUG-CC-PVTZ-JKFIT

    Orbital Energies [Eh]
    ---------------------

    Doubly Occupied:

       1A    -20.605937     2A    -20.605876     3A    -15.845585
       4A    -11.305942     5A    -11.264763     6A    -11.228264
       7A    -11.228248     8A     -1.584079     9A     -1.384772
      10A     -1.143817    11A     -1.041769    12A     -0.947943
      13A     -0.881290    14A     -0.804215    15A     -0.738227
      16A     -0.728506    17A     -0.705312    18A     -0.638172
      19A     -0.628616    20A     -0.607989    21A     -0.557492
      22A     -0.544203    23A     -0.516652    24A     -0.501009
      25A     -0.500670    26A     -0.484496    27A     -0.474668
      28A     -0.448136

  @DF-RHF Final Energy:  -360.89939897012221

   => Energetics <=

    Nuclear Repulsion Energy =            328.4497781975461521
    One-Electron Energy =               -1142.8050657787350701
    Two-Electron Energy =                 453.4558886110667117
    Total Energy =                       -360.8993989701222063
  Basis Set: (AUG-CC-PVTZ AUX)
    Blend: AUG-CC-PVTZ-RI
    Molecular point group: c1

    Geometry (in Angstrom), charge = 0, multiplicity = 1:

       Center              X                  Y                   Z               Mass
    ------------   -----------------  -----------------  -----------------  -----------------
         O            1.525792094054     1.104548690081    -0.346760174519    15.994914619570
         O            1.525801094054    -1.104533309919    -0.346760174519    15.994914619570
         N            1.129202094054     0.000005690081     0.066704825481    14.003074004430
         C           -1.330176905946     0.000002690081     0.435951825481    12.000000000000
         C            0.052683094054     0.000002690081     1.095378825481    12.000000000000
         C           -1.572615905946    -1.264209309919    -0.387125174519    12.000000000000
         C           -1.572619905946     1.264216690081    -0.387122174519    12.000000000000
         H           -2.033019905946    -0.000001309919     1.280850825481     1.007825032230
         H            0.210705094054     0.898450690081     1.695001825481     1.007825032230
         H            0.210708094054    -0.898446309919     1.694998825481     1.007825032230
         H           -0.921883605946    -1.305405609919    -1.264421774519     1.007825032230
         H           -2.604059905946    -1.279328309919    -0.750783174519     1.007825032230
         H           -1.405781905946    -2.167733309919     0.206727825481     1.007825032230
         H           -1.405794905946     2.167738690081     0.206736825481     1.007825032230
         H           -0.906654905946     1.304918690081    -1.252936174519     1.007825032230
         H           -2.604061905946     1.279331690081    -0.750785174519     1.007825032230

  Basis Set: AUG-CC-PVTZ
    Blend: AUG-CC-PVTZ
  Basis Set: (AUG-CC-PVTZ AUX)
    Blend: AUG-CC-PVTZ-JKFIT
	 Reference Energy          =    -360.8993989701222063 [Eh]
	 Singles Energy            =      -0.0000000000000000 [Eh]
	 Same-Spin Energy          =      -0.3688866103684714 [Eh]
	 Opposite-Spin Energy      =      -1.1812130019231017 [Eh]
	 Correlation Energy        =      -1.5500996122915731 [Eh]
	 Total Energy              =    -362.4494985824137530 [Eh]

	 ================> DF-SCS-MP2 Energies <==================
	-----------------------------------------------------------
	 SCS Same-Spin Scale       =       0.3333333333333333 [-]
	 SCS Opposite-Spin Scale   =       1.2000000000000000 [-]
	 SCS Same-Spin Energy      =      -0.1229622034561571 [Eh]
	 SCS Opposite-Spin Energy  =      -1.4174556023077221 [Eh]
	 SCS Correlation Energy    =      -1.5404178057638791 [Eh]
	 SCS Total Energy          =    -362.4398167758860723 [Eh]
	-----------------------------------------------------------

  Dipole Moment: [D]
     X:    -2.9957      Y:    -0.0004      Z:     2.1642     Total:     3.6956

*** Psi4 exiting successfully. Buy a developer a beer!
