                               Psi4 1.4a3.dev225

  ==> Input File <==

--------------------------------------------------------------------------
#psi4
#
memory 32 gb

molecule  {
0 1
  O        1.6269320     1.1045440    -0.3563700
  O        1.6269410    -1.1045380    -0.3563700
  N        1.2303420     0.0000010     0.0570950
  C       -1.2290370    -0.0000020     0.4263420
  C        0.1538230    -0.0000020     1.0857690
  C       -1.4714760    -1.2642140    -0.3967350
  C       -1.4556122     1.1814699    -0.3428622
  H       -1.9318800    -0.0000060     1.2712410
  H        0.3118450     0.8984460     1.6853920
  H        0.3118480    -0.8984510     1.6853890
  H       -0.8055150    -1.3049070    -1.2625520
  H       -2.5029200    -1.2793330    -0.7603930
  H       -1.3046420    -2.1677380     0.1971180
  H       -1.3046550     2.1677340     0.1971270
  H       -0.8055150     1.3049140    -1.2625460
  H       -2.5029220     1.2793270    -0.7603950
units angstrom
no_reorient  #important for SAPT in psi4, default
symmetry c1  #important for SAPT in psi4, default
}

set PROPERTIES_ORIGIN ["COM"]
properties('MP2/aug-cc-pvtz', properties = ['dipole'])
--------------------------------------------------------------------------

    Molecular point group: c1
  Charge       = 0
  Multiplicity = 1
  Basis Set: AUG-CC-PVTZ
    Blend: AUG-CC-PVTZ
  Basis Set: (AUG-CC-PVTZ AUX)
    Blend: AUG-CC-PVTZ-JKFIT

    Orbital Energies [Eh]
    ---------------------

    Doubly Occupied:

       1A    -20.606174     2A    -20.605944     3A    -15.845834
       4A    -11.306467     5A    -11.260589     6A    -11.233331
       7A    -11.228739     8A     -1.584285     9A     -1.384935
      10A     -1.153486    11A     -1.049799    12A     -0.948018
      13A     -0.879953    14A     -0.803654    15A     -0.739167
      16A     -0.728776    17A     -0.708691    18A     -0.641831
      19A     -0.634020    20A     -0.609418    21A     -0.555487
      22A     -0.539198    23A     -0.518627    24A     -0.508522
      25A     -0.491769    26A     -0.481718    27A     -0.470400
      28A     -0.447405

  @DF-RHF Final Energy:  -360.88739274593019

   => Energetics <=

    Nuclear Repulsion Energy =            330.0442114491808070
    One-Electron Energy =               -1145.9307341452606579
    Two-Electron Energy =                 454.9991299501496655
    Total Energy =                       -360.8873927459301854
  Basis Set: (AUG-CC-PVTZ AUX)
    Blend: AUG-CC-PVTZ-RI
    Molecular point group: c1

    Geometry (in Angstrom), charge = 0, multiplicity = 1:

       Center              X                  Y                   Z               Mass
    ------------   -----------------  -----------------  -----------------  -----------------
         O            1.523795637429     1.114177701445    -0.353144666827    15.994914619570
         O            1.523804637429    -1.094904298555    -0.353144666827    15.994914619570
         N            1.127205637429     0.009634701445     0.060320333173    14.003074004430
         C           -1.332173362571     0.009631701445     0.429567333173    12.000000000000
         C            0.050686637429     0.009631701445     1.088994333173    12.000000000000
         C           -1.574612362571    -1.254580298555    -0.393509666827    12.000000000000
         C           -1.558748562571     1.191103601445    -0.339636866827    12.000000000000
         H           -2.035016362571     0.009627701445     1.274466333173     1.007825032230
         H            0.208708637429     0.908079701445     1.688617333173     1.007825032230
         H            0.208711637429    -0.888817298555     1.688614333173     1.007825032230
         H           -0.908651362571    -1.295273298555    -1.259326666827     1.007825032230
         H           -2.606056362571    -1.269699298555    -0.757167666827     1.007825032230
         H           -1.407778362571    -2.158104298555     0.200343333173     1.007825032230
         H           -1.407791362571     2.177367701445     0.200352333173     1.007825032230
         H           -0.908651362571     1.314547701445    -1.259320666827     1.007825032230
         H           -2.606058362571     1.288960701445    -0.757169666827     1.007825032230

  Basis Set: AUG-CC-PVTZ
    Blend: AUG-CC-PVTZ
  Basis Set: (AUG-CC-PVTZ AUX)
    Blend: AUG-CC-PVTZ-JKFIT
	 Reference Energy          =    -360.8873927459301854 [Eh]
	 Singles Energy            =      -0.0000000000000000 [Eh]
	 Same-Spin Energy          =      -0.3701180895717188 [Eh]
	 Opposite-Spin Energy      =      -1.1827013883335038 [Eh]
	 Correlation Energy        =      -1.5528194779052225 [Eh]
	 Total Energy              =    -362.4402122238354309 [Eh]

	 ================> DF-SCS-MP2 Energies <==================
	-----------------------------------------------------------
	 SCS Same-Spin Scale       =       0.3333333333333333 [-]
	 SCS Opposite-Spin Scale   =       1.2000000000000000 [-]
	 SCS Same-Spin Energy      =      -0.1233726965239063 [Eh]
	 SCS Opposite-Spin Energy  =      -1.4192416660002045 [Eh]
	 SCS Correlation Energy    =      -1.5426143625241107 [Eh]
	 SCS Total Energy          =    -362.4300071084542765 [Eh]
	-----------------------------------------------------------

  Dipole Moment: [D]
     X:    -2.9898      Y:     0.0044      Z:     2.1649     Total:     3.6913

*** Psi4 exiting successfully. Buy a developer a beer!
