                               Psi4 1.4a3.dev225

  ==> Input File <==

--------------------------------------------------------------------------
#psi4
#
memory 32 gb

molecule  {
0 1
  O        1.6269320     1.1045440    -0.3563700
  O        1.6269410    -1.1045380    -0.3563700
  N        1.2303420     0.0000010     0.0570950
  C       -1.2290370    -0.0000020     0.4263420
  C        0.1538230    -0.0000020     1.0857690
  C       -1.4714760    -1.2642140    -0.3967350
  C       -1.4714800     1.2642120    -0.3967320
  H       -1.9318800    -0.0000060     1.2712410
  H        0.3118450     0.8984460     1.6853920
  H        0.3118480    -0.8984510     1.6853890
  H       -0.8055150    -1.3049070    -1.2625520
  H       -2.5029200    -1.2793330    -0.7603930
  H       -1.3046420    -2.1677380     0.1971180
  H       -1.2524737     2.1887989     0.1455100
  H       -0.8055150     1.3049140    -1.2625460
  H       -2.5029220     1.2793270    -0.7603950
units angstrom
no_reorient  #important for SAPT in psi4, default
symmetry c1  #important for SAPT in psi4, default
}

set PROPERTIES_ORIGIN ["COM"]
properties('MP2/aug-cc-pvtz', properties = ['dipole'])
--------------------------------------------------------------------------

    Molecular point group: c1
  Charge       = 0
  Multiplicity = 1
  Basis Set: AUG-CC-PVTZ
    Blend: AUG-CC-PVTZ
  Basis Set: (AUG-CC-PVTZ AUX)
    Blend: AUG-CC-PVTZ-JKFIT

    Orbital Energies [Eh]
    ---------------------

    Doubly Occupied:

       1A    -20.606139     2A    -20.606082     3A    -15.845778
       4A    -11.306033     5A    -11.265118     6A    -11.228560
       7A    -11.227933     8A     -1.584283     9A     -1.384992
      10A     -1.143851    11A     -1.041743    12A     -0.947974
      13A     -0.881464    14A     -0.804779    15A     -0.738271
      16A     -0.728698    17A     -0.706012    18A     -0.637959
      19A     -0.627607    20A     -0.609466    21A     -0.554701
      22A     -0.545773    23A     -0.516508    24A     -0.501865
      25A     -0.499191    26A     -0.485489    27A     -0.474606
      28A     -0.448319

  @DF-RHF Final Energy:  -360.89886141786252

   => Energetics <=

    Nuclear Repulsion Energy =            328.4943916949840741
    One-Electron Energy =               -1142.8881233489883016
    Two-Electron Energy =                 453.4948702361417077
    Total Energy =                       -360.8988614178625198
  Basis Set: (AUG-CC-PVTZ AUX)
    Blend: AUG-CC-PVTZ-RI
    Molecular point group: c1

    Geometry (in Angstrom), charge = 0, multiplicity = 1:

       Center              X                  Y                   Z               Mass
    ------------   -----------------  -----------------  -----------------  -----------------
         O            1.525132912108     1.104337781194    -0.346367683058    15.994914619570
         O            1.525141912108    -1.104744218806    -0.346367683058    15.994914619570
         N            1.128542912108    -0.000205218806     0.067097316942    14.003074004430
         C           -1.330836087892    -0.000208218806     0.436344316942    12.000000000000
         C            0.052023912108    -0.000208218806     1.095771316942    12.000000000000
         C           -1.573275087892    -1.264420218806    -0.386732683058    12.000000000000
         C           -1.573279087892     1.264005781194    -0.386729683058    12.000000000000
         H           -2.033679087892    -0.000212218806     1.281243316942     1.007825032230
         H            0.210045912108     0.898239781194     1.695394316942     1.007825032230
         H            0.210048912108    -0.898657218806     1.695391316942     1.007825032230
         H           -0.907314087892    -1.305113218806    -1.252549683058     1.007825032230
         H           -2.604719087892    -1.279539218806    -0.750390683058     1.007825032230
         H           -1.406441087892    -2.167944218806     0.207120316942     1.007825032230
         H           -1.354272787892     2.188592681194     0.155512316942     1.007825032230
         H           -0.907314087892     1.304707781194    -1.252543683058     1.007825032230
         H           -2.604721087892     1.279120781194    -0.750392683058     1.007825032230

  Basis Set: AUG-CC-PVTZ
    Blend: AUG-CC-PVTZ
  Basis Set: (AUG-CC-PVTZ AUX)
    Blend: AUG-CC-PVTZ-JKFIT
	 Reference Energy          =    -360.8988614178625198 [Eh]
	 Singles Energy            =      -0.0000000000000000 [Eh]
	 Same-Spin Energy          =      -0.3689387788366600 [Eh]
	 Opposite-Spin Energy      =      -1.1812489277702845 [Eh]
	 Correlation Energy        =      -1.5501877066069445 [Eh]
	 Total Energy              =    -362.4490491244694681 [Eh]

	 ================> DF-SCS-MP2 Energies <==================
	-----------------------------------------------------------
	 SCS Same-Spin Scale       =       0.3333333333333333 [-]
	 SCS Opposite-Spin Scale   =       1.2000000000000000 [-]
	 SCS Same-Spin Energy      =      -0.1229795929455533 [Eh]
	 SCS Opposite-Spin Energy  =      -1.4174987133243413 [Eh]
	 SCS Correlation Energy    =      -1.5404783062698946 [Eh]
	 SCS Total Energy          =    -362.4393397241324237 [Eh]
	-----------------------------------------------------------

  Dipole Moment: [D]
     X:    -2.9691      Y:    -0.0005      Z:     2.1576     Total:     3.6703

*** Psi4 exiting successfully. Buy a developer a beer!
