                               Psi4 1.4a3.dev225

  ==> Input File <==

--------------------------------------------------------------------------
#psi4
#
memory 32 gb

molecule  {
0 1
  O        1.6269320     1.1045440    -0.3563700
  O        1.6269410    -1.1045380    -0.3563700
  N        1.2303420     0.0000010     0.0570950
  C       -1.2290370    -0.0000020     0.4263420
  C        0.1538230    -0.0000020     1.0857690
  C       -1.4714760    -1.2642140    -0.3967350
  C       -1.4714800     1.2642120    -0.3967320
  H       -1.9318800    -0.0000060     1.2712410
  H        0.3118450     0.8984460     1.6853920
  H        0.3118480    -0.8984510     1.6853890
  H       -0.8361706    -1.3059011    -1.2852440
  H       -2.5029200    -1.2793330    -0.7603930
  H       -1.3046420    -2.1677380     0.1971180
  H       -1.3046550     2.1677340     0.1971270
  H       -0.8055150     1.3049140    -1.2625460
  H       -2.5029220     1.2793270    -0.7603950
units angstrom
no_reorient  #important for SAPT in psi4, default
symmetry c1  #important for SAPT in psi4, default
}

set PROPERTIES_ORIGIN ["COM"]
properties('MP2/aug-cc-pvtz', properties = ['dipole'])
--------------------------------------------------------------------------

    Molecular point group: c1
  Charge       = 0
  Multiplicity = 1
  Basis Set: AUG-CC-PVTZ
    Blend: AUG-CC-PVTZ
  Basis Set: (AUG-CC-PVTZ AUX)
    Blend: AUG-CC-PVTZ-JKFIT

    Orbital Energies [Eh]
    ---------------------

    Doubly Occupied:

       1A    -20.605849     2A    -20.605763     3A    -15.845495
       4A    -11.305915     5A    -11.264910     6A    -11.228293
       7A    -11.228277     8A     -1.583967     9A     -1.384659
      10A     -1.143768    11A     -1.041745    12A     -0.947950
      13A     -0.881337    14A     -0.804284    15A     -0.738147
      16A     -0.728421    17A     -0.705185    18A     -0.638355
      19A     -0.628419    20A     -0.607970    21A     -0.557657
      22A     -0.543771    23A     -0.516356    24A     -0.501320
      25A     -0.500821    26A     -0.484469    27A     -0.474573
      28A     -0.448018

  @DF-RHF Final Energy:  -360.89932656862135

   => Energetics <=

    Nuclear Repulsion Energy =            328.4155552767152244
    One-Electron Energy =               -1142.7383747554672482
    Two-Electron Energy =                 453.4234929101307330
    Total Energy =                       -360.8993265686213476
  Basis Set: (AUG-CC-PVTZ AUX)
    Blend: AUG-CC-PVTZ-RI
    Molecular point group: c1

    Geometry (in Angstrom), charge = 0, multiplicity = 1:

       Center              X                  Y                   Z               Mass
    ------------   -----------------  -----------------  -----------------  -----------------
         O            1.525942949030     1.104553489465    -0.346650531860    15.994914619570
         O            1.525951949030    -1.104528510535    -0.346650531860    15.994914619570
         N            1.129352949030     0.000010489465     0.066814468140    14.003074004430
         C           -1.330026050970     0.000007489465     0.436061468140    12.000000000000
         C            0.052833949030     0.000007489465     1.095488468140    12.000000000000
         C           -1.572465050970    -1.264204510535    -0.387015531860    12.000000000000
         C           -1.572469050970     1.264221489465    -0.387012531860    12.000000000000
         H           -2.032869050970     0.000003489465     1.280960468140     1.007825032230
         H            0.210855949030     0.898455489465     1.695111468140     1.007825032230
         H            0.210858949030    -0.898441510535     1.695108468140     1.007825032230
         H           -0.937159650970    -1.305891610535    -1.275524531860     1.007825032230
         H           -2.603909050970    -1.279323510535    -0.750673531860     1.007825032230
         H           -1.405631050970    -2.167728510535     0.206837468140     1.007825032230
         H           -1.405644050970     2.167743489465     0.206846468140     1.007825032230
         H           -0.906504050970     1.304923489465    -1.252826531860     1.007825032230
         H           -2.603911050970     1.279336489465    -0.750675531860     1.007825032230

  Basis Set: AUG-CC-PVTZ
    Blend: AUG-CC-PVTZ
  Basis Set: (AUG-CC-PVTZ AUX)
    Blend: AUG-CC-PVTZ-JKFIT
	 Reference Energy          =    -360.8993265686213476 [Eh]
	 Singles Energy            =      -0.0000000000000000 [Eh]
	 Same-Spin Energy          =      -0.3688724423395721 [Eh]
	 Opposite-Spin Energy      =      -1.1811981973055521 [Eh]
	 Correlation Energy        =      -1.5500706396451243 [Eh]
	 Total Energy              =    -362.4493972082664754 [Eh]

	 ================> DF-SCS-MP2 Energies <==================
	-----------------------------------------------------------
	 SCS Same-Spin Scale       =       0.3333333333333333 [-]
	 SCS Opposite-Spin Scale   =       1.2000000000000000 [-]
	 SCS Same-Spin Energy      =      -0.1229574807798574 [Eh]
	 SCS Opposite-Spin Energy  =      -1.4174378367666625 [Eh]
	 SCS Correlation Energy    =      -1.5403953175465197 [Eh]
	 SCS Total Energy          =    -362.4397218861678880 [Eh]
	-----------------------------------------------------------

  Dipole Moment: [D]
     X:    -3.0009      Y:    -0.0007      Z:     2.1592     Total:     3.6969

*** Psi4 exiting successfully. Buy a developer a beer!
