                               Psi4 1.4a3.dev225

  ==> Input File <==

--------------------------------------------------------------------------
#psi4
#
memory 32 gb

molecule  {
0 1
  O        1.6269320     1.1045440    -0.3563700
  O        1.6269410    -1.1045380    -0.3563700
  N        1.2303420     0.0000010     0.0570950
  C       -1.2290370    -0.0000020     0.4263420
  C        0.1538230    -0.0000020     1.0857690
  C       -1.4714760    -1.2642140    -0.3967350
  C       -1.5032155     1.4296963    -0.5044715
  H       -1.9318800    -0.0000060     1.2712410
  H        0.3118450     0.8984460     1.6853920
  H        0.3118480    -0.8984510     1.6853890
  H       -0.8055150    -1.3049070    -1.2625520
  H       -2.5029200    -1.2793330    -0.7603930
  H       -1.3046420    -2.1677380     0.1971180
  H       -1.3046550     2.1677340     0.1971270
  H       -0.8055150     1.3049140    -1.2625460
  H       -2.5029220     1.2793270    -0.7603950
units angstrom
no_reorient  #important for SAPT in psi4, default
symmetry c1  #important for SAPT in psi4, default
}

set PROPERTIES_ORIGIN ["COM"]
properties('MP2/aug-cc-pvtz', properties = ['dipole'])
--------------------------------------------------------------------------

    Molecular point group: c1
  Charge       = 0
  Multiplicity = 1
  Basis Set: AUG-CC-PVTZ
    Blend: AUG-CC-PVTZ
  Basis Set: (AUG-CC-PVTZ AUX)
    Blend: AUG-CC-PVTZ-JKFIT

    Orbital Energies [Eh]
    ---------------------

    Doubly Occupied:

       1A    -20.606180     2A    -20.605849     3A    -15.845494
       4A    -11.305727     5A    -11.269711     6A    -11.228133
       7A    -11.227208     8A     -1.584106     9A     -1.384873
      10A     -1.133546    11A     -1.030559    12A     -0.951474
      13A     -0.882788    14A     -0.803679    15A     -0.737148
      16A     -0.728365    17A     -0.701388    18A     -0.635885
      19A     -0.624731    20A     -0.613392    21A     -0.576165
      22A     -0.558842    23A     -0.523229    24A     -0.510371
      25A     -0.491243    26A     -0.477827    27A     -0.450500
      28A     -0.437430

  @DF-RHF Final Energy:  -360.87318877944347

   => Energetics <=

    Nuclear Repulsion Energy =            325.5921084181683796
    One-Electron Energy =               -1137.0789050938385571
    Two-Electron Energy =                 450.6136078962266538
    Total Energy =                       -360.8731887794434670
  Basis Set: (AUG-CC-PVTZ AUX)
    Blend: AUG-CC-PVTZ-RI
    Molecular point group: c1

    Geometry (in Angstrom), charge = 0, multiplicity = 1:

       Center              X                  Y                   Z               Mass
    ------------   -----------------  -----------------  -----------------  -----------------
         O            1.529338245145     1.085275890855    -0.334327968128    15.994914619570
         O            1.529347245145    -1.123806109145    -0.334327968128    15.994914619570
         N            1.132748245145    -0.019267109145     0.079137031872    14.003074004430
         C           -1.326630754855    -0.019270109145     0.448384031872    12.000000000000
         C            0.056229245145    -0.019270109145     1.107811031872    12.000000000000
         C           -1.569069754855    -1.283482109145    -0.374692968128    12.000000000000
         C           -1.600809254855     1.410428190855    -0.482429468128    12.000000000000
         H           -2.029473754855    -0.019274109145     1.293283031872     1.007825032230
         H            0.214251245145     0.879177890855     1.707434031872     1.007825032230
         H            0.214254245145    -0.917719109145     1.707431031872     1.007825032230
         H           -0.903108754855    -1.324175109145    -1.240509968128     1.007825032230
         H           -2.600513754855    -1.298601109145    -0.738350968128     1.007825032230
         H           -1.402235754855    -2.187006109145     0.219160031872     1.007825032230
         H           -1.402248754855     2.148465890855     0.219169031872     1.007825032230
         H           -0.903108754855     1.285645890855    -1.240503968128     1.007825032230
         H           -2.600515754855     1.260058890855    -0.738352968128     1.007825032230

  Basis Set: AUG-CC-PVTZ
    Blend: AUG-CC-PVTZ
  Basis Set: (AUG-CC-PVTZ AUX)
    Blend: AUG-CC-PVTZ-JKFIT
	 Reference Energy          =    -360.8731887794434670 [Eh]
	 Singles Energy            =      -0.0000000000000000 [Eh]
	 Same-Spin Energy          =      -0.3686425273624100 [Eh]
	 Opposite-Spin Energy      =      -1.1821975173550450 [Eh]
	 Correlation Energy        =      -1.5508400447174551 [Eh]
	 Total Energy              =    -362.4240288241609278 [Eh]

	 ================> DF-SCS-MP2 Energies <==================
	-----------------------------------------------------------
	 SCS Same-Spin Scale       =       0.3333333333333333 [-]
	 SCS Opposite-Spin Scale   =       1.2000000000000000 [-]
	 SCS Same-Spin Energy      =      -0.1228808424541367 [Eh]
	 SCS Opposite-Spin Energy  =      -1.4186370208260539 [Eh]
	 SCS Correlation Energy    =      -1.5415178632801905 [Eh]
	 SCS Total Energy          =    -362.4147066427236723 [Eh]
	-----------------------------------------------------------

  Dipole Moment: [D]
     X:    -2.9769      Y:    -0.0665      Z:     2.2058     Total:     3.7057

*** Psi4 exiting successfully. Buy a developer a beer!
