                               Psi4 1.4a3.dev225

  ==> Input File <==

--------------------------------------------------------------------------
#psi4
#
memory 32 gb

molecule  {
0 1
  O        1.6269320     1.1045440    -0.3563700
  O        1.6269410    -1.1045380    -0.3563700
  N        1.2303420     0.0000010     0.0570950
  C       -1.2290370    -0.0000020     0.4263420
  C        0.1538230    -0.0000020     1.0857690
  C       -1.4714760    -1.2642140    -0.3967350
  C       -1.4714800     1.2642120    -0.3967320
  H       -1.8999041    -0.0000058     1.2328022
  H        0.3118450     0.8984460     1.6853920
  H        0.3118480    -0.8984510     1.6853890
  H       -0.8055150    -1.3049070    -1.2625520
  H       -2.5029200    -1.2793330    -0.7603930
  H       -1.3046420    -2.1677380     0.1971180
  H       -1.3046550     2.1677340     0.1971270
  H       -0.8055150     1.3049140    -1.2625460
  H       -2.5029220     1.2793270    -0.7603950
units angstrom
no_reorient  #important for SAPT in psi4, default
symmetry c1  #important for SAPT in psi4, default
}

set PROPERTIES_ORIGIN ["COM"]
properties('MP2/aug-cc-pvtz', properties = ['dipole'])
--------------------------------------------------------------------------

    Molecular point group: c1
  Charge       = 0
  Multiplicity = 1
  Basis Set: AUG-CC-PVTZ
    Blend: AUG-CC-PVTZ
  Basis Set: (AUG-CC-PVTZ AUX)
    Blend: AUG-CC-PVTZ-JKFIT

    Orbital Energies [Eh]
    ---------------------

    Doubly Occupied:

       1A    -20.605783     2A    -20.605733     3A    -15.845485
       4A    -11.305651     5A    -11.258397     6A    -11.227803
       7A    -11.227787     8A     -1.583948     9A     -1.384652
      10A     -1.145018    11A     -1.042707    12A     -0.947596
      13A     -0.882450    14A     -0.807911    15A     -0.738085
      16A     -0.728370    17A     -0.707484    18A     -0.637829
      19A     -0.631496    20A     -0.607746    21A     -0.557180
      22A     -0.544326    23A     -0.518988    24A     -0.500576
      25A     -0.500392    26A     -0.484196    27A     -0.476883
      28A     -0.448043

  @DF-RHF Final Energy:  -360.89859404084888

   => Energetics <=

    Nuclear Repulsion Energy =            328.7531841572309759
    One-Electron Energy =               -1143.3985294542821975
    Two-Electron Energy =                 453.7467512562023444
    Total Energy =                       -360.8985940408488773
  Basis Set: (AUG-CC-PVTZ AUX)
    Blend: AUG-CC-PVTZ-RI
    Molecular point group: c1

    Geometry (in Angstrom), charge = 0, multiplicity = 1:

       Center              X                  Y                   Z               Mass
    ------------   -----------------  -----------------  -----------------  -----------------
         O            1.525330494587     1.104543766507    -0.346496548679    15.994914619570
         O            1.525339494587    -1.104538233493    -0.346496548679    15.994914619570
         N            1.128740494587     0.000000766507     0.066968451321    14.003074004430
         C           -1.330638505413    -0.000002233493     0.436215451321    12.000000000000
         C            0.052221494587    -0.000002233493     1.095642451321    12.000000000000
         C           -1.573077505413    -1.264214233493    -0.386861548679    12.000000000000
         C           -1.573081505413     1.264211766507    -0.386858548679    12.000000000000
         H           -2.001505605413    -0.000006033493     1.242675651321     1.007825032230
         H            0.210243494587     0.898445766507     1.695265451321     1.007825032230
         H            0.210246494587    -0.898451233493     1.695262451321     1.007825032230
         H           -0.907116505413    -1.304907233493    -1.252678548679     1.007825032230
         H           -2.604521505413    -1.279333233493    -0.750519548679     1.007825032230
         H           -1.406243505413    -2.167738233493     0.206991451321     1.007825032230
         H           -1.406256505413     2.167733766507     0.207000451321     1.007825032230
         H           -0.907116505413     1.304913766507    -1.252672548679     1.007825032230
         H           -2.604523505413     1.279326766507    -0.750521548679     1.007825032230

  Basis Set: AUG-CC-PVTZ
    Blend: AUG-CC-PVTZ
  Basis Set: (AUG-CC-PVTZ AUX)
    Blend: AUG-CC-PVTZ-JKFIT
	 Reference Energy          =    -360.8985940408488773 [Eh]
	 Singles Energy            =      -0.0000000000000000 [Eh]
	 Same-Spin Energy          =      -0.3688788602510270 [Eh]
	 Opposite-Spin Energy      =      -1.1809173625552123 [Eh]
	 Correlation Energy        =      -1.5497962228062394 [Eh]
	 Total Energy              =    -362.4483902636551420 [Eh]

	 ================> DF-SCS-MP2 Energies <==================
	-----------------------------------------------------------
	 SCS Same-Spin Scale       =       0.3333333333333333 [-]
	 SCS Opposite-Spin Scale   =       1.2000000000000000 [-]
	 SCS Same-Spin Energy      =      -0.1229596200836757 [Eh]
	 SCS Opposite-Spin Energy  =      -1.4171008350662546 [Eh]
	 SCS Correlation Energy    =      -1.5400604551499302 [Eh]
	 SCS Total Energy          =    -362.4386544959988328 [Eh]
	-----------------------------------------------------------

  Dipole Moment: [D]
     X:    -3.0045      Y:    -0.0000      Z:     2.1944     Total:     3.7206

*** Psi4 exiting successfully. Buy a developer a beer!
