                               Psi4 1.4a3.dev225

  ==> Input File <==

--------------------------------------------------------------------------
#psi4
#
memory 32 gb

molecule  {
0 1
  O        1.7046818     1.0386068    -0.4374269
  O        1.6269410    -1.1045380    -0.3563700
  N        1.2303420     0.0000010     0.0570950
  C       -1.2290370    -0.0000020     0.4263420
  C        0.1538230    -0.0000020     1.0857690
  C       -1.4714760    -1.2642140    -0.3967350
  C       -1.4714800     1.2642120    -0.3967320
  H       -1.9318800    -0.0000060     1.2712410
  H        0.3118450     0.8984460     1.6853920
  H        0.3118480    -0.8984510     1.6853890
  H       -0.8055150    -1.3049070    -1.2625520
  H       -2.5029200    -1.2793330    -0.7603930
  H       -1.3046420    -2.1677380     0.1971180
  H       -1.3046550     2.1677340     0.1971270
  H       -0.8055150     1.3049140    -1.2625460
  H       -2.5029220     1.2793270    -0.7603950
units angstrom
no_reorient  #important for SAPT in psi4, default
symmetry c1  #important for SAPT in psi4, default
}

set PROPERTIES_ORIGIN ["COM"]
properties('MP2/aug-cc-pvtz', properties = ['dipole'])
--------------------------------------------------------------------------

    Molecular point group: c1
  Charge       = 0
  Multiplicity = 1
  Basis Set: AUG-CC-PVTZ
    Blend: AUG-CC-PVTZ
  Basis Set: (AUG-CC-PVTZ AUX)
    Blend: AUG-CC-PVTZ-JKFIT

    Orbital Energies [Eh]
    ---------------------

    Doubly Occupied:

       1A    -20.600873     2A    -20.598134     3A    -15.842940
       4A    -11.311832     5A    -11.267061     6A    -11.230076
       7A    -11.229226     8A     -1.584458     9A     -1.371717
      10A     -1.148698    11A     -1.045536    12A     -0.949446
      13A     -0.881994    14A     -0.802538    15A     -0.738432
      16A     -0.724144    17A     -0.705172    18A     -0.638581
      19A     -0.630029    20A     -0.609854    21A     -0.557870
      22A     -0.545973    23A     -0.519868    24A     -0.502611
      25A     -0.498641    26A     -0.479398    27A     -0.477669
      28A     -0.441204

  @DF-RHF Final Energy:  -360.89686851640397

   => Energetics <=

    Nuclear Repulsion Energy =            327.9853282113405157
    One-Electron Energy =               -1141.8964443307716010
    Two-Electron Energy =                 453.0142476030271155
    Total Energy =                       -360.8968685164039698
  Basis Set: (AUG-CC-PVTZ AUX)
    Blend: AUG-CC-PVTZ-RI
    Molecular point group: c1

    Geometry (in Angstrom), charge = 0, multiplicity = 1:

       Center              X                  Y                   Z               Mass
    ------------   -----------------  -----------------  -----------------  -----------------
         O            1.591326595987     1.048839693079    -0.415349703391    15.994914619570
         O            1.513585795987    -1.094305106921    -0.334292803391    15.994914619570
         N            1.116986795987     0.010233893079     0.079172196609    14.003074004430
         C           -1.342392204013     0.010230893079     0.448419196609    12.000000000000
         C            0.040467795987     0.010230893079     1.107846196609    12.000000000000
         C           -1.584831204013    -1.253981106921    -0.374657803391    12.000000000000
         C           -1.584835204013     1.274444893079    -0.374654803391    12.000000000000
         H           -2.045235204013     0.010226893079     1.293318196609     1.007825032230
         H            0.198489795987     0.908678893079     1.707469196609     1.007825032230
         H            0.198492795987    -0.888218106921     1.707466196609     1.007825032230
         H           -0.918870204013    -1.294674106921    -1.240474803391     1.007825032230
         H           -2.616275204013    -1.269100106921    -0.738315803391     1.007825032230
         H           -1.417997204013    -2.157505106921     0.219195196609     1.007825032230
         H           -1.418010204013     2.177966893079     0.219204196609     1.007825032230
         H           -0.918870204013     1.315146893079    -1.240468803391     1.007825032230
         H           -2.616277204013     1.289559893079    -0.738317803391     1.007825032230

  Basis Set: AUG-CC-PVTZ
    Blend: AUG-CC-PVTZ
  Basis Set: (AUG-CC-PVTZ AUX)
    Blend: AUG-CC-PVTZ-JKFIT
	 Reference Energy          =    -360.8968685164039698 [Eh]
	 Singles Energy            =      -0.0000000000000000 [Eh]
	 Same-Spin Energy          =      -0.3686005309471396 [Eh]
	 Opposite-Spin Energy      =      -1.1808027449374807 [Eh]
	 Correlation Energy        =      -1.5494032758846203 [Eh]
	 Total Energy              =    -362.4462717922885986 [Eh]

	 ================> DF-SCS-MP2 Energies <==================
	-----------------------------------------------------------
	 SCS Same-Spin Scale       =       0.3333333333333333 [-]
	 SCS Opposite-Spin Scale   =       1.2000000000000000 [-]
	 SCS Same-Spin Energy      =      -0.1228668436490465 [Eh]
	 SCS Opposite-Spin Energy  =      -1.4169632939249768 [Eh]
	 SCS Correlation Energy    =      -1.5398301375740233 [Eh]
	 SCS Total Energy          =    -362.4366986539779987 [Eh]
	-----------------------------------------------------------

  Dipole Moment: [D]
     X:    -3.1959      Y:     0.0743      Z:     2.3228     Total:     3.9515

*** Psi4 exiting successfully. Buy a developer a beer!
