                               Psi4 1.4a3.dev225

  ==> Input File <==

--------------------------------------------------------------------------
#psi4
#
memory 32 gb

molecule  {
0 1
  O        1.6269320     1.1045440    -0.3563700
  O        1.6269410    -1.1045380    -0.3563700
  N        1.2303420     0.0000010     0.0570950
  C       -1.2290370    -0.0000020     0.4263420
  C        0.1538230    -0.0000020     1.0857690
  C       -1.4714760    -1.2642140    -0.3967350
  C       -1.4714800     1.2642120    -0.3967320
  H       -1.9318800    -0.0000060     1.2712410
  H        0.3118450     0.8984460     1.6853920
  H        0.3118480    -0.8984510     1.6853890
  H       -0.8055150    -1.3049070    -1.2625520
  H       -2.4086190    -1.2779507    -0.7271451
  H       -1.3046420    -2.1677380     0.1971180
  H       -1.3046550     2.1677340     0.1971270
  H       -0.8055150     1.3049140    -1.2625460
  H       -2.5029220     1.2793270    -0.7603950
units angstrom
no_reorient  #important for SAPT in psi4, default
symmetry c1  #important for SAPT in psi4, default
}

set PROPERTIES_ORIGIN ["COM"]
properties('MP2/aug-cc-pvtz', properties = ['dipole'])
--------------------------------------------------------------------------

    Molecular point group: c1
  Charge       = 0
  Multiplicity = 1
  Basis Set: AUG-CC-PVTZ
    Blend: AUG-CC-PVTZ
  Basis Set: (AUG-CC-PVTZ AUX)
    Blend: AUG-CC-PVTZ-JKFIT

    Orbital Energies [Eh]
    ---------------------

    Doubly Occupied:

       1A    -20.605464     2A    -20.605409     3A    -15.845110
       4A    -11.305153     5A    -11.263810     6A    -11.228246
       7A    -11.215723     8A     -1.583614     9A     -1.384319
      10A     -1.143817    11A     -1.043914    12A     -0.954253
      13A     -0.882819    14A     -0.805434    15A     -0.738880
      16A     -0.728168    17A     -0.704921    18A     -0.640830
      19A     -0.630105    20A     -0.609960    21A     -0.558861
      22A     -0.552860    23A     -0.517875    24A     -0.501486
      25A     -0.500275    26A     -0.483859    27A     -0.474680
      28A     -0.447842

  @DF-RHF Final Energy:  -360.89333670395519

   => Energetics <=

    Nuclear Repulsion Energy =            328.9737796613670184
    One-Electron Energy =               -1143.8188606201254061
    Two-Electron Energy =                 453.9517442548032591
    Total Energy =                       -360.8933367039551854
  Basis Set: (AUG-CC-PVTZ AUX)
    Blend: AUG-CC-PVTZ-RI
    Molecular point group: c1

    Geometry (in Angstrom), charge = 0, multiplicity = 1:

       Center              X                  Y                   Z               Mass
    ------------   -----------------  -----------------  -----------------  -----------------
         O            1.524721036336     1.104530251370    -0.347197551177    15.994914619570
         O            1.524730036336    -1.104551748630    -0.347197551177    15.994914619570
         N            1.128131036336    -0.000012748630     0.066267448823    14.003074004430
         C           -1.331247963664    -0.000015748630     0.435514448823    12.000000000000
         C            0.051612036336    -0.000015748630     1.094941448823    12.000000000000
         C           -1.573686963664    -1.264227748630    -0.387562551177    12.000000000000
         C           -1.573690963664     1.264198251370    -0.387559551177    12.000000000000
         H           -2.034090963664    -0.000019748630     1.280413448823     1.007825032230
         H            0.209634036336     0.898432251370     1.694564448823     1.007825032230
         H            0.209637036336    -0.898464748630     1.694561448823     1.007825032230
         H           -0.907725963664    -1.304920748630    -1.253379551177     1.007825032230
         H           -2.510829963664    -1.277964448630    -0.717972651177     1.007825032230
         H           -1.406852963664    -2.167751748630     0.206290448823     1.007825032230
         H           -1.406865963664     2.167720251370     0.206299448823     1.007825032230
         H           -0.907725963664     1.304900251370    -1.253373551177     1.007825032230
         H           -2.605132963664     1.279313251370    -0.751222551177     1.007825032230

  Basis Set: AUG-CC-PVTZ
    Blend: AUG-CC-PVTZ
  Basis Set: (AUG-CC-PVTZ AUX)
    Blend: AUG-CC-PVTZ-JKFIT
	 Reference Energy          =    -360.8933367039551854 [Eh]
	 Singles Energy            =      -0.0000000000000000 [Eh]
	 Same-Spin Energy          =      -0.3689346938197213 [Eh]
	 Opposite-Spin Energy      =      -1.1807308621630450 [Eh]
	 Correlation Energy        =      -1.5496655559827663 [Eh]
	 Total Energy              =    -362.4430022599379413 [Eh]

	 ================> DF-SCS-MP2 Energies <==================
	-----------------------------------------------------------
	 SCS Same-Spin Scale       =       0.3333333333333333 [-]
	 SCS Opposite-Spin Scale   =       1.2000000000000000 [-]
	 SCS Same-Spin Energy      =      -0.1229782312732404 [Eh]
	 SCS Opposite-Spin Energy  =      -1.4168770345956541 [Eh]
	 SCS Correlation Energy    =      -1.5398552658688944 [Eh]
	 SCS Total Energy          =    -362.4331919698240654 [Eh]
	-----------------------------------------------------------

  Dipole Moment: [D]
     X:    -3.0432      Y:    -0.0148      Z:     2.1466     Total:     3.7242

*** Psi4 exiting successfully. Buy a developer a beer!
