                               Psi4 1.4a3.dev225

  ==> Input File <==

--------------------------------------------------------------------------
#psi4
#
memory 32 gb

molecule  {
0 1
  O        1.6269320     1.1045440    -0.3563700
  O        1.6269410    -1.1045380    -0.3563700
  N        1.2303420     0.0000010     0.0570950
  C       -1.2290370    -0.0000020     0.4263420
  C        0.1538230    -0.0000020     1.0857690
  C       -1.4714760    -1.2642140    -0.3967350
  C       -1.4714800     1.2642120    -0.3967320
  H       -1.8679281    -0.0000056     1.1943634
  H        0.3118450     0.8984460     1.6853920
  H        0.3118480    -0.8984510     1.6853890
  H       -0.8055150    -1.3049070    -1.2625520
  H       -2.5029200    -1.2793330    -0.7603930
  H       -1.3046420    -2.1677380     0.1971180
  H       -1.3046550     2.1677340     0.1971270
  H       -0.8055150     1.3049140    -1.2625460
  H       -2.5029220     1.2793270    -0.7603950
units angstrom
no_reorient  #important for SAPT in psi4, default
symmetry c1  #important for SAPT in psi4, default
}

set PROPERTIES_ORIGIN ["COM"]
properties('MP2/aug-cc-pvtz', properties = ['dipole'])
--------------------------------------------------------------------------

    Molecular point group: c1
  Charge       = 0
  Multiplicity = 1
  Basis Set: AUG-CC-PVTZ
    Blend: AUG-CC-PVTZ
  Basis Set: (AUG-CC-PVTZ AUX)
    Blend: AUG-CC-PVTZ-JKFIT

    Orbital Energies [Eh]
    ---------------------

    Doubly Occupied:

       1A    -20.605579     2A    -20.605529     3A    -15.845346
       4A    -11.305390     5A    -11.252062     6A    -11.227435
       7A    -11.227417     8A     -1.583751     9A     -1.384461
      10A     -1.146530    11A     -1.043878    12A     -0.947299
      13A     -0.884041    14A     -0.812213    15A     -0.737889
      16A     -0.728190    17A     -0.709728    18A     -0.637701
      19A     -0.634061    20A     -0.607522    21A     -0.557001
      22A     -0.544125    23A     -0.521265    24A     -0.500556
      25A     -0.500216    26A     -0.483928    27A     -0.478591
      28A     -0.447873

  @DF-RHF Final Energy:  -360.89387018987389

   => Energetics <=

    Nuclear Repulsion Energy =            329.0376983070354413
    One-Electron Energy =               -1143.9439765300483032
    Two-Electron Energy =                 454.0124080331389109
    Total Energy =                       -360.8938701898738941
  Basis Set: (AUG-CC-PVTZ AUX)
    Blend: AUG-CC-PVTZ-RI
    Molecular point group: c1

    Geometry (in Angstrom), charge = 0, multiplicity = 1:

       Center              X                  Y                   Z               Mass
    ------------   -----------------  -----------------  -----------------  -----------------
         O            1.525017810981     1.104543764551    -0.346120667312    15.994914619570
         O            1.525026810981    -1.104538235449    -0.346120667312    15.994914619570
         N            1.128427810981     0.000000764551     0.067344332688    14.003074004430
         C           -1.330951189019    -0.000002235449     0.436591332688    12.000000000000
         C            0.051908810981    -0.000002235449     1.096018332688    12.000000000000
         C           -1.573390189019    -1.264214235449    -0.386485667312    12.000000000000
         C           -1.573394189019     1.264211764551    -0.386482667312    12.000000000000
         H           -1.969842289019    -0.000005835449     1.204612732688     1.007825032230
         H            0.209930810981     0.898445764551     1.695641332688     1.007825032230
         H            0.209933810981    -0.898451235449     1.695638332688     1.007825032230
         H           -0.907429189019    -1.304907235449    -1.252302667312     1.007825032230
         H           -2.604834189019    -1.279333235449    -0.750143667312     1.007825032230
         H           -1.406556189019    -2.167738235449     0.207367332688     1.007825032230
         H           -1.406569189019     2.167733764551     0.207376332688     1.007825032230
         H           -0.907429189019     1.304913764551    -1.252296667312     1.007825032230
         H           -2.604836189019     1.279326764551    -0.750145667312     1.007825032230

  Basis Set: AUG-CC-PVTZ
    Blend: AUG-CC-PVTZ
  Basis Set: (AUG-CC-PVTZ AUX)
    Blend: AUG-CC-PVTZ-JKFIT
	 Reference Energy          =    -360.8938701898738941 [Eh]
	 Singles Energy            =      -0.0000000000000000 [Eh]
	 Same-Spin Energy          =      -0.3688631057134917 [Eh]
	 Opposite-Spin Energy      =      -1.1806837416823781 [Eh]
	 Correlation Energy        =      -1.5495468473958698 [Eh]
	 Total Energy              =    -362.4434170372697395 [Eh]

	 ================> DF-SCS-MP2 Energies <==================
	-----------------------------------------------------------
	 SCS Same-Spin Scale       =       0.3333333333333333 [-]
	 SCS Opposite-Spin Scale   =       1.2000000000000000 [-]
	 SCS Same-Spin Energy      =      -0.1229543685711639 [Eh]
	 SCS Opposite-Spin Energy  =      -1.4168204900188537 [Eh]
	 SCS Correlation Energy    =      -1.5397748585900175 [Eh]
	 SCS Total Energy          =    -362.4336450484639158 [Eh]
	-----------------------------------------------------------

  Dipole Moment: [D]
     X:    -3.0148      Y:    -0.0000      Z:     2.2153     Total:     3.7412

*** Psi4 exiting successfully. Buy a developer a beer!
