                               Psi4 1.4a3.dev225

  ==> Input File <==

--------------------------------------------------------------------------
#psi4
#
memory 32 gb

molecule  {
0 1
  O        1.6269320     1.1045440    -0.3563700
  O        1.6548877    -1.0838944    -0.3824300
  N        1.2303420     0.0000010     0.0570950
  C       -1.2290370    -0.0000020     0.4263420
  C        0.1538230    -0.0000020     1.0857690
  C       -1.4714760    -1.2642140    -0.3967350
  C       -1.4714800     1.2642120    -0.3967320
  H       -1.9318800    -0.0000060     1.2712410
  H        0.3118450     0.8984460     1.6853920
  H        0.3118480    -0.8984510     1.6853890
  H       -0.8055150    -1.3049070    -1.2625520
  H       -2.5029200    -1.2793330    -0.7603930
  H       -1.3046420    -2.1677380     0.1971180
  H       -1.3046550     2.1677340     0.1971270
  H       -0.8055150     1.3049140    -1.2625460
  H       -2.5029220     1.2793270    -0.7603950
units angstrom
no_reorient  #important for SAPT in psi4, default
symmetry c1  #important for SAPT in psi4, default
}

set PROPERTIES_ORIGIN ["COM"]
properties('MP2/aug-cc-pvtz', properties = ['dipole'])
--------------------------------------------------------------------------

    Molecular point group: c1
  Charge       = 0
  Multiplicity = 1
  Basis Set: AUG-CC-PVTZ
    Blend: AUG-CC-PVTZ
  Basis Set: (AUG-CC-PVTZ AUX)
    Blend: AUG-CC-PVTZ-JKFIT

    Orbital Energies [Eh]
    ---------------------

    Doubly Occupied:

       1A    -20.604415     2A    -20.603437     3A    -15.844840
       4A    -11.307946     5A    -11.265450     6A    -11.228868
       7A    -11.228578     8A     -1.584195     9A     -1.380639
      10A     -1.145526    11A     -1.043077    12A     -0.948465
      13A     -0.881461    14A     -0.803623    15A     -0.738369
      16A     -0.727172    17A     -0.705375    18A     -0.638193
      19A     -0.629264    20A     -0.608657    21A     -0.557543
      22A     -0.545023    23A     -0.517948    24A     -0.501019
      25A     -0.499863    26A     -0.483052    27A     -0.476227
      28A     -0.446001

  @DF-RHF Final Energy:  -360.89937872266341

   => Energetics <=

    Nuclear Repulsion Energy =            328.2859789377777133
    One-Electron Energy =               -1142.4822632639445601
    Two-Electron Energy =                 453.2969056035034328
    Total Energy =                       -360.8993787226634140
  Basis Set: (AUG-CC-PVTZ AUX)
    Blend: AUG-CC-PVTZ-RI
    Molecular point group: c1

    Geometry (in Angstrom), charge = 0, multiplicity = 1:

       Center              X                  Y                   Z               Mass
    ------------   -----------------  -----------------  -----------------  -----------------
         O            1.521305988743     1.101339984691    -0.342828048005    15.994914619570
         O            1.549261688743    -1.087098415309    -0.368888048005    15.994914619570
         N            1.124715988743    -0.003203015309     0.070636951995    14.003074004430
         C           -1.334663011257    -0.003206015309     0.439883951995    12.000000000000
         C            0.048196988743    -0.003206015309     1.099310951995    12.000000000000
         C           -1.577102011257    -1.267418015309    -0.383193048005    12.000000000000
         C           -1.577106011257     1.261007984691    -0.383190048005    12.000000000000
         H           -2.037506011257    -0.003210015309     1.284782951995     1.007825032230
         H            0.206218988743     0.895241984691     1.698933951995     1.007825032230
         H            0.206221988743    -0.901655015309     1.698930951995     1.007825032230
         H           -0.911141011257    -1.308111015309    -1.249010048005     1.007825032230
         H           -2.608546011257    -1.282537015309    -0.746851048005     1.007825032230
         H           -1.410268011257    -2.170942015309     0.210659951995     1.007825032230
         H           -1.410281011257     2.164529984691     0.210668951995     1.007825032230
         H           -0.911141011257     1.301709984691    -1.249004048005     1.007825032230
         H           -2.608548011257     1.276122984691    -0.746853048005     1.007825032230

  Basis Set: AUG-CC-PVTZ
    Blend: AUG-CC-PVTZ
  Basis Set: (AUG-CC-PVTZ AUX)
    Blend: AUG-CC-PVTZ-JKFIT
	 Reference Energy          =    -360.8993787226634140 [Eh]
	 Singles Energy            =      -0.0000000000000000 [Eh]
	 Same-Spin Energy          =      -0.3687811734254619 [Eh]
	 Opposite-Spin Energy      =      -1.1810433421790383 [Eh]
	 Correlation Energy        =      -1.5498245156045001 [Eh]
	 Total Energy              =    -362.4492032382678985 [Eh]

	 ================> DF-SCS-MP2 Energies <==================
	-----------------------------------------------------------
	 SCS Same-Spin Scale       =       0.3333333333333333 [-]
	 SCS Opposite-Spin Scale   =       1.2000000000000000 [-]
	 SCS Same-Spin Energy      =      -0.1229270578084873 [Eh]
	 SCS Opposite-Spin Energy  =      -1.4172520106148458 [Eh]
	 SCS Correlation Energy    =      -1.5401790684233332 [Eh]
	 SCS Total Energy          =    -362.4395577910867701 [Eh]
	-----------------------------------------------------------

  Dipole Moment: [D]
     X:    -3.0616      Y:    -0.0225      Z:     2.2200     Total:     3.7819

*** Psi4 exiting successfully. Buy a developer a beer!
