                               Psi4 1.4a3.dev225

  ==> Input File <==

--------------------------------------------------------------------------
#psi4
#
memory 32 gb

molecule  {
0 1
  O        1.6269320     1.1045440    -0.3563700
  O        1.6269410    -1.1045380    -0.3563700
  N        1.2303420     0.0000010     0.0570950
  C       -1.2290370    -0.0000020     0.4263420
  C        0.1393632    -0.0000020     1.0995862
  C       -1.4714760    -1.2642140    -0.3967350
  C       -1.4714800     1.2642120    -0.3967320
  H       -1.9318800    -0.0000060     1.2712410
  H        0.3118450     0.8984460     1.6853920
  H        0.3118480    -0.8984510     1.6853890
  H       -0.8055150    -1.3049070    -1.2625520
  H       -2.5029200    -1.2793330    -0.7603930
  H       -1.3046420    -2.1677380     0.1971180
  H       -1.3046550     2.1677340     0.1971270
  H       -0.8055150     1.3049140    -1.2625460
  H       -2.5029220     1.2793270    -0.7603950
units angstrom
no_reorient  #important for SAPT in psi4, default
symmetry c1  #important for SAPT in psi4, default
}

set PROPERTIES_ORIGIN ["COM"]
properties('MP2/aug-cc-pvtz', properties = ['dipole'])
--------------------------------------------------------------------------

    Molecular point group: c1
  Charge       = 0
  Multiplicity = 1
  Basis Set: AUG-CC-PVTZ
    Blend: AUG-CC-PVTZ
  Basis Set: (AUG-CC-PVTZ AUX)
    Blend: AUG-CC-PVTZ-JKFIT

    Orbital Energies [Eh]
    ---------------------

    Doubly Occupied:

       1A    -20.605261     2A    -20.605211     3A    -15.844076
       4A    -11.306919     5A    -11.264154     6A    -11.228483
       7A    -11.228467     8A     -1.581952     9A     -1.383603
      10A     -1.142873    11A     -1.038436    12A     -0.948148
      13A     -0.881672    14A     -0.804162    15A     -0.736713
      16A     -0.727159    17A     -0.703842    18A     -0.641053
      19A     -0.628684    20A     -0.609274    21A     -0.557521
      22A     -0.545336    23A     -0.516538    24A     -0.502670
      25A     -0.500780    26A     -0.484778    27A     -0.471633
      28A     -0.447559

  @DF-RHF Final Energy:  -360.89915141741380

   => Energetics <=

    Nuclear Repulsion Energy =            328.2268390503083992
    One-Electron Energy =               -1142.3780706645090959
    Two-Electron Energy =                 453.2520801967868920
    Total Energy =                       -360.8991514174138047
  Basis Set: (AUG-CC-PVTZ AUX)
    Blend: AUG-CC-PVTZ-RI
    Molecular point group: c1

    Geometry (in Angstrom), charge = 0, multiplicity = 1:

       Center              X                  Y                   Z               Mass
    ------------   -----------------  -----------------  -----------------  -----------------
         O            1.527326778962     1.104543768463    -0.348481211776    15.994914619570
         O            1.527335778962    -1.104538231537    -0.348481211776    15.994914619570
         N            1.130736778962     0.000000768463     0.064983788224    14.003074004430
         C           -1.328642221038    -0.000002231537     0.434230788224    12.000000000000
         C            0.039757978962    -0.000002231537     1.107474988224    12.000000000000
         C           -1.571081221038    -1.264214231537    -0.388846211776    12.000000000000
         C           -1.571085221038     1.264211768463    -0.388843211776    12.000000000000
         H           -2.031485221038    -0.000006231537     1.279129788224     1.007825032230
         H            0.212239778962     0.898445768463     1.693280788224     1.007825032230
         H            0.212242778962    -0.898451231537     1.693277788224     1.007825032230
         H           -0.905120221038    -1.304907231537    -1.254663211776     1.007825032230
         H           -2.602525221038    -1.279333231537    -0.752504211776     1.007825032230
         H           -1.404247221038    -2.167738231537     0.205006788224     1.007825032230
         H           -1.404260221038     2.167733768463     0.205015788224     1.007825032230
         H           -0.905120221038     1.304913768463    -1.254657211776     1.007825032230
         H           -2.602527221038     1.279326768463    -0.752506211776     1.007825032230

  Basis Set: AUG-CC-PVTZ
    Blend: AUG-CC-PVTZ
  Basis Set: (AUG-CC-PVTZ AUX)
    Blend: AUG-CC-PVTZ-JKFIT
	 Reference Energy          =    -360.8991514174138047 [Eh]
	 Singles Energy            =      -0.0000000000000000 [Eh]
	 Same-Spin Energy          =      -0.3688315328008314 [Eh]
	 Opposite-Spin Energy      =      -1.1812076498369153 [Eh]
	 Correlation Energy        =      -1.5500391826377466 [Eh]
	 Total Energy              =    -362.4491906000515655 [Eh]

	 ================> DF-SCS-MP2 Energies <==================
	-----------------------------------------------------------
	 SCS Same-Spin Scale       =       0.3333333333333333 [-]
	 SCS Opposite-Spin Scale   =       1.2000000000000000 [-]
	 SCS Same-Spin Energy      =      -0.1229438442669438 [Eh]
	 SCS Opposite-Spin Energy  =      -1.4174491798042983 [Eh]
	 SCS Correlation Energy    =      -1.5403930240712420 [Eh]
	 SCS Total Energy          =    -362.4395444414850544 [Eh]
	-----------------------------------------------------------

  Dipole Moment: [D]
     X:    -3.0023      Y:    -0.0000      Z:     2.1785     Total:     3.7094

*** Psi4 exiting successfully. Buy a developer a beer!
