                               Psi4 1.4a3.dev225

  ==> Input File <==

--------------------------------------------------------------------------
#psi4
#
memory 32 gb

molecule  {
0 1
  O        1.6269320     1.1045440    -0.3563700
  O        1.6269410    -1.1045380    -0.3563700
  N        1.2303420     0.0000010     0.0570950
  C       -1.2290370    -0.0000020     0.4263420
  C        0.1538230    -0.0000020     1.0857690
  C       -1.4326425    -1.2489209    -0.4299353
  C       -1.4714800     1.2642120    -0.3967320
  H       -1.9318800    -0.0000060     1.2712410
  H        0.3118450     0.8984460     1.6853920
  H        0.3118480    -0.8984510     1.6853890
  H       -0.8055150    -1.3049070    -1.2625520
  H       -2.5029200    -1.2793330    -0.7603930
  H       -1.3046420    -2.1677380     0.1971180
  H       -1.3046550     2.1677340     0.1971270
  H       -0.8055150     1.3049140    -1.2625460
  H       -2.5029220     1.2793270    -0.7603950
units angstrom
no_reorient  #important for SAPT in psi4, default
symmetry c1  #important for SAPT in psi4, default
}

set PROPERTIES_ORIGIN ["COM"]
properties('MP2/aug-cc-pvtz', properties = ['dipole'])
--------------------------------------------------------------------------

    Molecular point group: c1
  Charge       = 0
  Multiplicity = 1
  Basis Set: AUG-CC-PVTZ
    Blend: AUG-CC-PVTZ
  Basis Set: (AUG-CC-PVTZ AUX)
    Blend: AUG-CC-PVTZ-JKFIT

    Orbital Energies [Eh]
    ---------------------

    Doubly Occupied:

       1A    -20.606206     2A    -20.606133     3A    -15.845851
       4A    -11.305520     5A    -11.265079     6A    -11.228783
       7A    -11.227877     8A     -1.584396     9A     -1.385085
      10A     -1.144349    11A     -1.041838    12A     -0.947464
      13A     -0.881740    14A     -0.805045    15A     -0.738113
      16A     -0.728740    17A     -0.706343    18A     -0.638119
      19A     -0.629926    20A     -0.603965    21A     -0.567191
      22A     -0.538458    23A     -0.520444    24A     -0.499105
      25A     -0.497795    26A     -0.482419    27A     -0.476354
      28A     -0.448490

  @DF-RHF Final Energy:  -360.89601753160878

   => Energetics <=

    Nuclear Repulsion Energy =            328.8301022568901999
    One-Electron Energy =               -1143.5505867242120530
    Two-Electron Energy =                 453.8244669357130761
    Total Energy =                       -360.8960175316087771
  Basis Set: (AUG-CC-PVTZ AUX)
    Blend: AUG-CC-PVTZ-RI
    Molecular point group: c1

    Geometry (in Angstrom), charge = 0, multiplicity = 1:

       Center              X                  Y                   Z               Mass
    ------------   -----------------  -----------------  -----------------  -----------------
         O            1.521121665960     1.102763142874    -0.343006810668    15.994914619570
         O            1.521130665960    -1.106318857126    -0.343006810668    15.994914619570
         N            1.124531665960    -0.001779857126     0.070458189332    14.003074004430
         C           -1.334847334040    -0.001782857126     0.439705189332    12.000000000000
         C            0.048012665960    -0.001782857126     1.099132189332    12.000000000000
         C           -1.538452834040    -1.250701757126    -0.416572110668    12.000000000000
         C           -1.577290334040     1.262431142874    -0.383368810668    12.000000000000
         H           -2.037690334040    -0.001786857126     1.284604189332     1.007825032230
         H            0.206034665960     0.896665142874     1.698755189332     1.007825032230
         H            0.206037665960    -0.900231857126     1.698752189332     1.007825032230
         H           -0.911325334040    -1.306687857126    -1.249188810668     1.007825032230
         H           -2.608730334040    -1.281113857126    -0.747029810668     1.007825032230
         H           -1.410452334040    -2.169518857126     0.210481189332     1.007825032230
         H           -1.410465334040     2.165953142874     0.210490189332     1.007825032230
         H           -0.911325334040     1.303133142874    -1.249182810668     1.007825032230
         H           -2.608732334040     1.277546142874    -0.747031810668     1.007825032230

  Basis Set: AUG-CC-PVTZ
    Blend: AUG-CC-PVTZ
  Basis Set: (AUG-CC-PVTZ AUX)
    Blend: AUG-CC-PVTZ-JKFIT
	 Reference Energy          =    -360.8960175316087771 [Eh]
	 Singles Energy            =      -0.0000000000000000 [Eh]
	 Same-Spin Energy          =      -0.3689712883651943 [Eh]
	 Opposite-Spin Energy      =      -1.1814525109243084 [Eh]
	 Correlation Energy        =      -1.5504237992895027 [Eh]
	 Total Energy              =    -362.4464413308982671 [Eh]

	 ================> DF-SCS-MP2 Energies <==================
	-----------------------------------------------------------
	 SCS Same-Spin Scale       =       0.3333333333333333 [-]
	 SCS Opposite-Spin Scale   =       1.2000000000000000 [-]
	 SCS Same-Spin Energy      =      -0.1229904294550647 [Eh]
	 SCS Opposite-Spin Energy  =      -1.4177430131091699 [Eh]
	 SCS Correlation Energy    =      -1.5407334425642347 [Eh]
	 SCS Total Energy          =    -362.4367509741730373 [Eh]
	-----------------------------------------------------------

  Dipole Moment: [D]
     X:    -2.9817      Y:     0.0062      Z:     2.1620     Total:     3.6831

*** Psi4 exiting successfully. Buy a developer a beer!
