                               Psi4 1.4a3.dev225

  ==> Input File <==

--------------------------------------------------------------------------
#psi4
#
memory 32 gb

molecule  {
0 1
  O        1.6269320     1.1045440    -0.3563700
  O        1.5696326    -1.1417646    -0.3027711
  N        1.2303420     0.0000010     0.0570950
  C       -1.2290370    -0.0000020     0.4263420
  C        0.1538230    -0.0000020     1.0857690
  C       -1.4714760    -1.2642140    -0.3967350
  C       -1.4714800     1.2642120    -0.3967320
  H       -1.9318800    -0.0000060     1.2712410
  H        0.3118450     0.8984460     1.6853920
  H        0.3118480    -0.8984510     1.6853890
  H       -0.8055150    -1.3049070    -1.2625520
  H       -2.5029200    -1.2793330    -0.7603930
  H       -1.3046420    -2.1677380     0.1971180
  H       -1.3046550     2.1677340     0.1971270
  H       -0.8055150     1.3049140    -1.2625460
  H       -2.5029220     1.2793270    -0.7603950
units angstrom
no_reorient  #important for SAPT in psi4, default
symmetry c1  #important for SAPT in psi4, default
}

set PROPERTIES_ORIGIN ["COM"]
properties('MP2/aug-cc-pvtz', properties = ['dipole'])
--------------------------------------------------------------------------

    Molecular point group: c1
  Charge       = 0
  Multiplicity = 1
  Basis Set: AUG-CC-PVTZ
    Blend: AUG-CC-PVTZ
  Basis Set: (AUG-CC-PVTZ AUX)
    Blend: AUG-CC-PVTZ-JKFIT

    Orbital Energies [Eh]
    ---------------------

    Doubly Occupied:

       1A    -20.610986     2A    -20.608877     3A    -15.847124
       4A    -11.301955     5A    -11.262896     6A    -11.227478
       7A    -11.226952     8A     -1.584419     9A     -1.393011
      10A     -1.140433    11A     -1.039117    12A     -0.946891
      13A     -0.880966    14A     -0.805171    15A     -0.738226
      16A     -0.731218    17A     -0.705435    18A     -0.637743
      19A     -0.627864    20A     -0.606687    21A     -0.557223
      22A     -0.543791    23A     -0.514776    24A     -0.503999
      25A     -0.498498    26A     -0.485751    27A     -0.471474
      28A     -0.452483

  @DF-RHF Final Energy:  -360.89701028781531

   => Energetics <=

    Nuclear Repulsion Energy =            328.9448787426164245
    One-Electron Energy =               -1143.7808933766805239
    Two-Electron Energy =                 453.9390043462487938
    Total Energy =                       -360.8970102878153057
  Basis Set: (AUG-CC-PVTZ AUX)
    Blend: AUG-CC-PVTZ-RI
    Molecular point group: c1

    Geometry (in Angstrom), charge = 0, multiplicity = 1:

       Center              X                  Y                   Z               Mass
    ------------   -----------------  -----------------  -----------------  -----------------
         O            1.534537155103     1.110321151136    -0.355190712033    15.994914619570
         O            1.477237755103    -1.135987448864    -0.301591812033    15.994914619570
         N            1.137947155103     0.005778151136     0.058274287967    14.003074004430
         C           -1.321431844897     0.005775151136     0.427521287967    12.000000000000
         C            0.061428155103     0.005775151136     1.086948287967    12.000000000000
         C           -1.563870844897    -1.258436848864    -0.395555712033    12.000000000000
         C           -1.563874844897     1.269989151136    -0.395552712033    12.000000000000
         H           -2.024274844897     0.005771151136     1.272420287967     1.007825032230
         H            0.219450155103     0.904223151136     1.686571287967     1.007825032230
         H            0.219453155103    -0.892673848864     1.686568287967     1.007825032230
         H           -0.897909844897    -1.299129848864    -1.261372712033     1.007825032230
         H           -2.595314844897    -1.273555848864    -0.759213712033     1.007825032230
         H           -1.397036844897    -2.161960848864     0.198297287967     1.007825032230
         H           -1.397049844897     2.173511151136     0.198306287967     1.007825032230
         H           -0.897909844897     1.310691151136    -1.261366712033     1.007825032230
         H           -2.595316844897     1.285104151136    -0.759215712033     1.007825032230

  Basis Set: AUG-CC-PVTZ
    Blend: AUG-CC-PVTZ
  Basis Set: (AUG-CC-PVTZ AUX)
    Blend: AUG-CC-PVTZ-JKFIT
	 Reference Energy          =    -360.8970102878153057 [Eh]
	 Singles Energy            =      -0.0000000000000000 [Eh]
	 Same-Spin Energy          =      -0.3692084706027178 [Eh]
	 Opposite-Spin Energy      =      -1.1817363953943811 [Eh]
	 Correlation Energy        =      -1.5509448659970990 [Eh]
	 Total Energy              =    -362.4479551538124156 [Eh]

	 ================> DF-SCS-MP2 Energies <==================
	-----------------------------------------------------------
	 SCS Same-Spin Scale       =       0.3333333333333333 [-]
	 SCS Opposite-Spin Scale   =       1.2000000000000000 [-]
	 SCS Same-Spin Energy      =      -0.1230694902009059 [Eh]
	 SCS Opposite-Spin Energy  =      -1.4180836744732572 [Eh]
	 SCS Correlation Energy    =      -1.5411531646741632 [Eh]
	 SCS Total Energy          =    -362.4381634524894480 [Eh]
	-----------------------------------------------------------

  Dipole Moment: [D]
     X:    -2.8454      Y:     0.0381      Z:     2.0644     Total:     3.5156

*** Psi4 exiting successfully. Buy a developer a beer!
