                               Psi4 1.4a3.dev225

  ==> Input File <==

--------------------------------------------------------------------------
#psi4
#
memory 32 gb

molecule  {
0 1
  O        1.6269320     1.1045440    -0.3563700
  O        1.6269410    -1.1045380    -0.3563700
  N        1.2303420     0.0000010     0.0570950
  C       -1.2290370    -0.0000020     0.4263420
  C        0.1538230    -0.0000020     1.0857690
  C       -1.4714760    -1.2642140    -0.3967350
  C       -1.4714800     1.2642120    -0.3967320
  H       -1.9318800    -0.0000060     1.2712410
  H        0.3118450     0.8984460     1.6853920
  H        0.3118480    -0.8984510     1.6853890
  H       -0.8055150    -1.3049070    -1.2625520
  H       -2.5029200    -1.2793330    -0.7603930
  H       -1.3122669    -2.1264437     0.1699768
  H       -1.3046550     2.1677340     0.1971270
  H       -0.8055150     1.3049140    -1.2625460
  H       -2.5029220     1.2793270    -0.7603950
units angstrom
no_reorient  #important for SAPT in psi4, default
symmetry c1  #important for SAPT in psi4, default
}

set PROPERTIES_ORIGIN ["COM"]
properties('MP2/aug-cc-pvtz', properties = ['dipole'])
--------------------------------------------------------------------------

    Molecular point group: c1
  Charge       = 0
  Multiplicity = 1
  Basis Set: AUG-CC-PVTZ
    Blend: AUG-CC-PVTZ
  Basis Set: (AUG-CC-PVTZ AUX)
    Blend: AUG-CC-PVTZ-JKFIT

    Orbital Energies [Eh]
    ---------------------

    Doubly Occupied:

       1A    -20.606034     2A    -20.605982     3A    -15.845676
       4A    -11.305968     5A    -11.264144     6A    -11.227764
       7A    -11.222013     8A     -1.584185     9A     -1.384888
      10A     -1.144017    11A     -1.042386    12A     -0.951304
      13A     -0.881650    14A     -0.804779    15A     -0.738599
      16A     -0.728599    17A     -0.705613    18A     -0.637917
      19A     -0.629949    20A     -0.611852    21A     -0.558006
      22A     -0.545527    23A     -0.516817    24A     -0.503188
      25A     -0.499914    26A     -0.485020    27A     -0.474587
      28A     -0.448232

  @DF-RHF Final Energy:  -360.89841363583599

   => Energetics <=

    Nuclear Repulsion Energy =            328.7089439482698481
    One-Electron Energy =               -1143.3054965944018022
    Two-Electron Energy =                 453.6981390102959608
    Total Energy =                       -360.8984136358359933
  Basis Set: (AUG-CC-PVTZ AUX)
    Blend: AUG-CC-PVTZ-RI
    Molecular point group: c1

    Geometry (in Angstrom), charge = 0, multiplicity = 1:

       Center              X                  Y                   Z               Mass
    ------------   -----------------  -----------------  -----------------  -----------------
         O            1.525717738800     1.104139964027    -0.346607024483    15.994914619570
         O            1.525726738800    -1.104942035973    -0.346607024483    15.994914619570
         N            1.129127738800    -0.000403035973     0.066857975517    14.003074004430
         C           -1.330251261200    -0.000406035973     0.436104975517    12.000000000000
         C            0.052608738800    -0.000406035973     1.095531975517    12.000000000000
         C           -1.572690261200    -1.264618035973    -0.386972024483    12.000000000000
         C           -1.572694261200     1.263807964027    -0.386969024483    12.000000000000
         H           -2.033094261200    -0.000410035973     1.281003975517     1.007825032230
         H            0.210630738800     0.898041964027     1.695154975517     1.007825032230
         H            0.210633738800    -0.898855035973     1.695151975517     1.007825032230
         H           -0.906729261200    -1.305311035973    -1.252789024483     1.007825032230
         H           -2.604134261200    -1.279737035973    -0.750630024483     1.007825032230
         H           -1.413481161200    -2.126847735973     0.179739775517     1.007825032230
         H           -1.405869261200     2.167329964027     0.206889975517     1.007825032230
         H           -0.906729261200     1.304509964027    -1.252783024483     1.007825032230
         H           -2.604136261200     1.278922964027    -0.750632024483     1.007825032230

  Basis Set: AUG-CC-PVTZ
    Blend: AUG-CC-PVTZ
  Basis Set: (AUG-CC-PVTZ AUX)
    Blend: AUG-CC-PVTZ-JKFIT
	 Reference Energy          =    -360.8984136358359933 [Eh]
	 Singles Energy            =      -0.0000000000000000 [Eh]
	 Same-Spin Energy          =      -0.3689099907836387 [Eh]
	 Opposite-Spin Energy      =      -1.1809499716696041 [Eh]
	 Correlation Energy        =      -1.5498599624532430 [Eh]
	 Total Energy              =    -362.4482735982892336 [Eh]

	 ================> DF-SCS-MP2 Energies <==================
	-----------------------------------------------------------
	 SCS Same-Spin Scale       =       0.3333333333333333 [-]
	 SCS Opposite-Spin Scale   =       1.2000000000000000 [-]
	 SCS Same-Spin Energy      =      -0.1229699969278796 [Eh]
	 SCS Opposite-Spin Energy  =      -1.4171399660035249 [Eh]
	 SCS Correlation Energy    =      -1.5401099629314043 [Eh]
	 SCS Total Energy          =    -362.4385235987674037 [Eh]
	-----------------------------------------------------------

  Dipole Moment: [D]
     X:    -2.9886      Y:    -0.0266      Z:     2.1798     Total:     3.6992

*** Psi4 exiting successfully. Buy a developer a beer!
