                               Psi4 1.4a3.dev225

  ==> Input File <==

--------------------------------------------------------------------------
#psi4
#
memory 32 gb

molecule  {
0 1
  O        1.6269320     1.1045440    -0.3563700
  O        1.6269410    -1.1045380    -0.3563700
  N        1.2303420     0.0000010     0.0570950
  C       -1.2290370    -0.0000020     0.4263420
  C        0.1538230    -0.0000020     1.0857690
  C       -1.4714760    -1.2642140    -0.3967350
  C       -1.4714800     1.2642120    -0.3967320
  H       -1.8039763    -0.0000053     1.1174859
  H        0.3118450     0.8984460     1.6853920
  H        0.3118480    -0.8984510     1.6853890
  H       -0.8055150    -1.3049070    -1.2625520
  H       -2.5029200    -1.2793330    -0.7603930
  H       -1.3046420    -2.1677380     0.1971180
  H       -1.3046550     2.1677340     0.1971270
  H       -0.8055150     1.3049140    -1.2625460
  H       -2.5029220     1.2793270    -0.7603950
units angstrom
no_reorient  #important for SAPT in psi4, default
symmetry c1  #important for SAPT in psi4, default
}

set PROPERTIES_ORIGIN ["COM"]
properties('MP2/aug-cc-pvtz', properties = ['dipole'])
--------------------------------------------------------------------------

    Molecular point group: c1
  Charge       = 0
  Multiplicity = 1
  Basis Set: AUG-CC-PVTZ
    Blend: AUG-CC-PVTZ
  Basis Set: (AUG-CC-PVTZ AUX)
    Blend: AUG-CC-PVTZ-JKFIT

    Orbital Energies [Eh]
    ---------------------

    Doubly Occupied:

       1A    -20.605308     2A    -20.605258     3A    -15.845226
       4A    -11.305038     5A    -11.239478     6A    -11.226883
       7A    -11.226858     8A     -1.583493     9A     -1.384212
      10A     -1.150873    11A     -1.047064    12A     -0.946851
      13A     -0.888754    14A     -0.822066    15A     -0.737585
      16A     -0.727958    17A     -0.714539    18A     -0.638641
      19A     -0.637571    20A     -0.607221    21A     -0.556770
      22A     -0.543836    23A     -0.526055    24A     -0.500838
      25A     -0.499705    26A     -0.483570    27A     -0.481083
      28A     -0.447650

  @DF-RHF Final Energy:  -360.86721524057293

   => Energetics <=

    Nuclear Repulsion Energy =            329.6629956506840813
    One-Electron Energy =               -1145.0996527887350567
    Two-Electron Energy =                 454.5694418974781001
    Total Energy =                       -360.8672152405729321
  Basis Set: (AUG-CC-PVTZ AUX)
    Blend: AUG-CC-PVTZ-RI
    Molecular point group: c1

    Geometry (in Angstrom), charge = 0, multiplicity = 1:

       Center              X                  Y                   Z               Mass
    ------------   -----------------  -----------------  -----------------  -----------------
         O            1.524392445724     1.104543761618    -0.345368905555    15.994914619570
         O            1.524401445724    -1.104538238382    -0.345368905555    15.994914619570
         N            1.127802445724     0.000000761618     0.068096094445    14.003074004430
         C           -1.331576554276    -0.000002238382     0.437343094445    12.000000000000
         C            0.051283445724    -0.000002238382     1.096770094445    12.000000000000
         C           -1.574015554276    -1.264214238382    -0.385733905555    12.000000000000
         C           -1.574019554276     1.264211761618    -0.385730905555    12.000000000000
         H           -1.906515854276    -0.000005538382     1.128486994445     1.007825032230
         H            0.209305445724     0.898445761618     1.696393094445     1.007825032230
         H            0.209308445724    -0.898451238382     1.696390094445     1.007825032230
         H           -0.908054554276    -1.304907238382    -1.251550905555     1.007825032230
         H           -2.605459554276    -1.279333238382    -0.749391905555     1.007825032230
         H           -1.407181554276    -2.167738238382     0.208119094445     1.007825032230
         H           -1.407194554276     2.167733761618     0.208128094445     1.007825032230
         H           -0.908054554276     1.304913761618    -1.251544905555     1.007825032230
         H           -2.605461554276     1.279326761618    -0.749393905555     1.007825032230

  Basis Set: AUG-CC-PVTZ
    Blend: AUG-CC-PVTZ
  Basis Set: (AUG-CC-PVTZ AUX)
    Blend: AUG-CC-PVTZ-JKFIT
	 Reference Energy          =    -360.8672152405729321 [Eh]
	 Singles Energy            =      -0.0000000000000000 [Eh]
	 Same-Spin Energy          =      -0.3688765471565609 [Eh]
	 Opposite-Spin Energy      =      -1.1805239536799363 [Eh]
	 Correlation Energy        =      -1.5494005008364973 [Eh]
	 Total Energy              =    -362.4166157414094300 [Eh]

	 ================> DF-SCS-MP2 Energies <==================
	-----------------------------------------------------------
	 SCS Same-Spin Scale       =       0.3333333333333333 [-]
	 SCS Opposite-Spin Scale   =       1.2000000000000000 [-]
	 SCS Same-Spin Energy      =      -0.1229588490521870 [Eh]
	 SCS Opposite-Spin Energy  =      -1.4166287444159236 [Eh]
	 SCS Correlation Energy    =      -1.5395875934681105 [Eh]
	 SCS Total Energy          =    -362.4068028340410592 [Eh]
	-----------------------------------------------------------

  Dipole Moment: [D]
     X:    -3.0246      Y:    -0.0000      Z:     2.2441     Total:     3.7662

*** Psi4 exiting successfully. Buy a developer a beer!
