                               Psi4 1.4a3.dev225

  ==> Input File <==

--------------------------------------------------------------------------
#psi4
#
memory 32 gb

molecule  {
0 1
  O        1.6269320     1.1045440    -0.3563700
  O        1.6269410    -1.1045380    -0.3563700
  N        1.2303420     0.0000010     0.0570950
  C       -1.2290370    -0.0000020     0.4263420
  C        0.1538230    -0.0000020     1.0857690
  C       -1.4714760    -1.2642140    -0.3967350
  C       -1.4714800     1.2642120    -0.3967320
  H       -1.9318800    -0.0000060     1.2712410
  H        0.3118450     0.8984460     1.6853920
  H        0.3118480    -0.8984510     1.6853890
  H       -0.7684597    -1.4051808    -1.2217777
  H       -2.5029200    -1.2793330    -0.7603930
  H       -1.3046420    -2.1677380     0.1971180
  H       -1.3046550     2.1677340     0.1971270
  H       -0.8055150     1.3049140    -1.2625460
  H       -2.5029220     1.2793270    -0.7603950
units angstrom
no_reorient  #important for SAPT in psi4, default
symmetry c1  #important for SAPT in psi4, default
}

set PROPERTIES_ORIGIN ["COM"]
properties('MP2/aug-cc-pvtz', properties = ['dipole'])
--------------------------------------------------------------------------

    Molecular point group: c1
  Charge       = 0
  Multiplicity = 1
  Basis Set: AUG-CC-PVTZ
    Blend: AUG-CC-PVTZ
  Basis Set: (AUG-CC-PVTZ AUX)
    Blend: AUG-CC-PVTZ-JKFIT

    Orbital Energies [Eh]
    ---------------------

    Doubly Occupied:

       1A    -20.606319     2A    -20.606199     3A    -15.845966
       4A    -11.306162     5A    -11.265431     6A    -11.228056
       7A    -11.227708     8A     -1.584438     9A     -1.385167
      10A     -1.143843    11A     -1.041541    12A     -0.948435
      13A     -0.881263    14A     -0.804931    15A     -0.738505
      16A     -0.728866    17A     -0.706364    18A     -0.637928
      19A     -0.626962    20A     -0.608841    21A     -0.556987
      22A     -0.545133    23A     -0.517315    24A     -0.501049
      25A     -0.497619    26A     -0.485109    27A     -0.475066
      28A     -0.448408

  @DF-RHF Final Energy:  -360.89819179017991

   => Energetics <=

    Nuclear Repulsion Energy =            328.4268080561217857
    One-Electron Energy =               -1142.7507786281846620
    Two-Electron Energy =                 453.4257787818829684
    Total Energy =                       -360.8981917901799079
  Basis Set: (AUG-CC-PVTZ AUX)
    Blend: AUG-CC-PVTZ-RI
    Molecular point group: c1

    Geometry (in Angstrom), charge = 0, multiplicity = 1:

       Center              X                  Y                   Z               Mass
    ------------   -----------------  -----------------  -----------------  -----------------
         O            1.525280824675     1.105524315541    -0.347271149560    15.994914619570
         O            1.525289824675    -1.103557684459    -0.347271149560    15.994914619570
         N            1.128690824675     0.000981315541     0.066193850440    14.003074004430
         C           -1.330688175325     0.000978315541     0.435440850440    12.000000000000
         C            0.052171824675     0.000978315541     1.094867850440    12.000000000000
         C           -1.573127175325    -1.263233684459    -0.387636149560    12.000000000000
         C           -1.573131175325     1.265192315541    -0.387633149560    12.000000000000
         H           -2.033531175325     0.000974315541     1.280339850440     1.007825032230
         H            0.210193824675     0.899426315541     1.694490850440     1.007825032230
         H            0.210196824675    -0.897470684459     1.694487850440     1.007825032230
         H           -0.870110875325    -1.404200484459    -1.212678849560     1.007825032230
         H           -2.604571175325    -1.278352684459    -0.751294149560     1.007825032230
         H           -1.406293175325    -2.166757684459     0.206216850440     1.007825032230
         H           -1.406306175325     2.168714315541     0.206225850440     1.007825032230
         H           -0.907166175325     1.305894315541    -1.253447149560     1.007825032230
         H           -2.604573175325     1.280307315541    -0.751296149560     1.007825032230

  Basis Set: AUG-CC-PVTZ
    Blend: AUG-CC-PVTZ
  Basis Set: (AUG-CC-PVTZ AUX)
    Blend: AUG-CC-PVTZ-JKFIT
	 Reference Energy          =    -360.8981917901799079 [Eh]
	 Singles Energy            =      -0.0000000000000000 [Eh]
	 Same-Spin Energy          =      -0.3689361339210434 [Eh]
	 Opposite-Spin Energy      =      -1.1812200950107696 [Eh]
	 Correlation Energy        =      -1.5501562289318129 [Eh]
	 Total Energy              =    -362.4483480191117337 [Eh]

	 ================> DF-SCS-MP2 Energies <==================
	-----------------------------------------------------------
	 SCS Same-Spin Scale       =       0.3333333333333333 [-]
	 SCS Opposite-Spin Scale   =       1.2000000000000000 [-]
	 SCS Same-Spin Energy      =      -0.1229787113070144 [Eh]
	 SCS Opposite-Spin Energy  =      -1.4174641140129236 [Eh]
	 SCS Correlation Energy    =      -1.5404428253199380 [Eh]
	 SCS Total Energy          =    -362.4386346154998364 [Eh]
	-----------------------------------------------------------

  Dipole Moment: [D]
     X:    -2.9615      Y:    -0.0162      Z:     2.1764     Total:     3.6753

*** Psi4 exiting successfully. Buy a developer a beer!
