                               Psi4 1.4a3.dev225

  ==> Input File <==

--------------------------------------------------------------------------
#psi4
#
memory 32 gb

molecule  {
0 1
  O        1.6269320     1.1045440    -0.3563700
  O        1.6269410    -1.1045380    -0.3563700
  N        1.2303420     0.0000010     0.0570950
  C       -1.2290370    -0.0000020     0.4263420
  C        0.1538230    -0.0000020     1.0857690
  C       -1.4714760    -1.2642140    -0.3967350
  C       -1.4714800     1.2642120    -0.3967320
  H       -1.9318800    -0.0000060     1.2712410
  H        0.3118450     0.8984460     1.6853920
  H        0.3118480    -0.8984510     1.6853890
  H       -0.8055150    -1.3049070    -1.2625520
  H       -2.4557695    -1.2786419    -0.7437691
  H       -1.3046420    -2.1677380     0.1971180
  H       -1.3046550     2.1677340     0.1971270
  H       -0.8055150     1.3049140    -1.2625460
  H       -2.5029220     1.2793270    -0.7603950
units angstrom
no_reorient  #important for SAPT in psi4, default
symmetry c1  #important for SAPT in psi4, default
}

set PROPERTIES_ORIGIN ["COM"]
properties('MP2/aug-cc-pvtz', properties = ['dipole'])
--------------------------------------------------------------------------

    Molecular point group: c1
  Charge       = 0
  Multiplicity = 1
  Basis Set: AUG-CC-PVTZ
    Blend: AUG-CC-PVTZ
  Basis Set: (AUG-CC-PVTZ AUX)
    Blend: AUG-CC-PVTZ-JKFIT

    Orbital Energies [Eh]
    ---------------------

    Doubly Occupied:

       1A    -20.605729     2A    -20.605677     3A    -15.845374
       4A    -11.305531     5A    -11.264183     6A    -11.228229
       7A    -11.222019     8A     -1.583884     9A     -1.384585
      10A     -1.143783    11A     -1.042693    12A     -0.950801
      13A     -0.881977    14A     -0.804724    15A     -0.738538
      16A     -0.728361    17A     -0.705160    18A     -0.639041
      19A     -0.629483    20A     -0.608992    21A     -0.557580
      22A     -0.549297    23A     -0.517472    24A     -0.500976
      25A     -0.500609    26A     -0.484165    27A     -0.474725
      28A     -0.448037

  @DF-RHF Final Energy:  -360.89840695913074

   => Energetics <=

    Nuclear Repulsion Energy =            328.7213199821355261
    One-Electron Energy =               -1143.3362067143334571
    Two-Electron Energy =                 453.7164797730671353
    Total Energy =                       -360.8984069591307389
  Basis Set: (AUG-CC-PVTZ AUX)
    Blend: AUG-CC-PVTZ-RI
    Molecular point group: c1

    Geometry (in Angstrom), charge = 0, multiplicity = 1:

       Center              X                  Y                   Z               Mass
    ------------   -----------------  -----------------  -----------------  -----------------
         O            1.525182106776     1.104537010405    -0.347034990122    15.994914619570
         O            1.525191106776    -1.104544989595    -0.347034990122    15.994914619570
         N            1.128592106776    -0.000005989595     0.066430009878    14.003074004430
         C           -1.330786893224    -0.000008989595     0.435677009878    12.000000000000
         C            0.052073106776    -0.000008989595     1.095104009878    12.000000000000
         C           -1.573225893224    -1.264220989595    -0.387399990122    12.000000000000
         C           -1.573229893224     1.264205010405    -0.387396990122    12.000000000000
         H           -2.033629893224    -0.000012989595     1.280576009878     1.007825032230
         H            0.210095106776     0.898439010405     1.694727009878     1.007825032230
         H            0.210098106776    -0.898457989595     1.694724009878     1.007825032230
         H           -0.907264893224    -1.304913989595    -1.253216990122     1.007825032230
         H           -2.557519393224    -1.278648889595    -0.734434090122     1.007825032230
         H           -1.406391893224    -2.167744989595     0.206453009878     1.007825032230
         H           -1.406404893224     2.167727010405     0.206462009878     1.007825032230
         H           -0.907264893224     1.304907010405    -1.253210990122     1.007825032230
         H           -2.604671893224     1.279320010405    -0.751059990122     1.007825032230

  Basis Set: AUG-CC-PVTZ
    Blend: AUG-CC-PVTZ
  Basis Set: (AUG-CC-PVTZ AUX)
    Blend: AUG-CC-PVTZ-JKFIT
	 Reference Energy          =    -360.8984069591307389 [Eh]
	 Singles Energy            =      -0.0000000000000000 [Eh]
	 Same-Spin Energy          =      -0.3689146597218539 [Eh]
	 Opposite-Spin Energy      =      -1.1809449334010598 [Eh]
	 Correlation Energy        =      -1.5498595931229135 [Eh]
	 Total Energy              =    -362.4482665522536422 [Eh]

	 ================> DF-SCS-MP2 Energies <==================
	-----------------------------------------------------------
	 SCS Same-Spin Scale       =       0.3333333333333333 [-]
	 SCS Opposite-Spin Scale   =       1.2000000000000000 [-]
	 SCS Same-Spin Energy      =      -0.1229715532406180 [Eh]
	 SCS Opposite-Spin Energy  =      -1.4171339200812716 [Eh]
	 SCS Correlation Energy    =      -1.5401054733218895 [Eh]
	 SCS Total Energy          =    -362.4385124324526259 [Eh]
	-----------------------------------------------------------

  Dipole Moment: [D]
     X:    -3.0189      Y:    -0.0079      Z:     2.1571     Total:     3.7104

*** Psi4 exiting successfully. Buy a developer a beer!
