                               Psi4 1.4a3.dev225

  ==> Input File <==

--------------------------------------------------------------------------
#psi4
#
memory 32 gb

molecule  {
0 1
  O        1.6269320     1.1045440    -0.3563700
  O        1.6269410    -1.1045380    -0.3563700
  N        1.2144056    -0.0443835     0.0737095
  C       -1.2290370    -0.0000020     0.4263420
  C        0.1538230    -0.0000020     1.0857690
  C       -1.4714760    -1.2642140    -0.3967350
  C       -1.4714800     1.2642120    -0.3967320
  H       -1.9318800    -0.0000060     1.2712410
  H        0.3118450     0.8984460     1.6853920
  H        0.3118480    -0.8984510     1.6853890
  H       -0.8055150    -1.3049070    -1.2625520
  H       -2.5029200    -1.2793330    -0.7603930
  H       -1.3046420    -2.1677380     0.1971180
  H       -1.3046550     2.1677340     0.1971270
  H       -0.8055150     1.3049140    -1.2625460
  H       -2.5029220     1.2793270    -0.7603950
units angstrom
no_reorient  #important for SAPT in psi4, default
symmetry c1  #important for SAPT in psi4, default
}

set PROPERTIES_ORIGIN ["COM"]
properties('MP2/aug-cc-pvtz', properties = ['dipole'])
--------------------------------------------------------------------------

    Molecular point group: c1
  Charge       = 0
  Multiplicity = 1
  Basis Set: AUG-CC-PVTZ
    Blend: AUG-CC-PVTZ
  Basis Set: (AUG-CC-PVTZ AUX)
    Blend: AUG-CC-PVTZ-JKFIT

    Orbital Energies [Eh]
    ---------------------

    Doubly Occupied:

       1A    -20.622813     2A    -20.589296     3A    -15.845520
       4A    -11.306319     5A    -11.265728     6A    -11.230176
       7A    -11.227183     8A     -1.585753     9A     -1.369012
      10A     -1.149347    11A     -1.047598    12A     -0.948479
      13A     -0.882574    14A     -0.805099    15A     -0.739844
      16A     -0.728047    17A     -0.705078    18A     -0.636424
      19A     -0.628264    20A     -0.607904    21A     -0.557347
      22A     -0.545071    23A     -0.518605    24A     -0.501313
      25A     -0.498966    26A     -0.484202    27A     -0.474353
      28A     -0.444294

  @DF-RHF Final Energy:  -360.89326114390809

   => Energetics <=

    Nuclear Repulsion Energy =            328.5215891261387924
    One-Electron Energy =               -1142.9404840911827250
    Two-Electron Energy =                 453.5256338211358411
    Total Energy =                       -360.8932611439080915
  Basis Set: (AUG-CC-PVTZ AUX)
    Blend: AUG-CC-PVTZ-RI
    Molecular point group: c1

    Geometry (in Angstrom), charge = 0, multiplicity = 1:

       Center              X                  Y                   Z               Mass
    ------------   -----------------  -----------------  -----------------  -----------------
         O            1.527808434167     1.110574229995    -0.349129819521    15.994914619570
         O            1.527817434167    -1.098507770005    -0.349129819521    15.994914619570
         N            1.115282034167    -0.038353270005     0.080949680479    14.003074004430
         C           -1.328160565833     0.006028229995     0.433582180479    12.000000000000
         C            0.054699434167     0.006028229995     1.093009180479    12.000000000000
         C           -1.570599565833    -1.258183770005    -0.389494819521    12.000000000000
         C           -1.570603565833     1.270242229995    -0.389491819521    12.000000000000
         H           -2.031003565833     0.006024229995     1.278481180479     1.007825032230
         H            0.212721434167     0.904476229995     1.692632180479     1.007825032230
         H            0.212724434167    -0.892420770005     1.692629180479     1.007825032230
         H           -0.904638565833    -1.298876770005    -1.255311819521     1.007825032230
         H           -2.602043565833    -1.273302770005    -0.753152819521     1.007825032230
         H           -1.403765565833    -2.161707770005     0.204358180479     1.007825032230
         H           -1.403778565833     2.173764229995     0.204367180479     1.007825032230
         H           -0.904638565833     1.310944229995    -1.255305819521     1.007825032230
         H           -2.602045565833     1.285357229995    -0.753154819521     1.007825032230

  Basis Set: AUG-CC-PVTZ
    Blend: AUG-CC-PVTZ
  Basis Set: (AUG-CC-PVTZ AUX)
    Blend: AUG-CC-PVTZ-JKFIT
	 Reference Energy          =    -360.8932611439080915 [Eh]
	 Singles Energy            =      -0.0000000000000000 [Eh]
	 Same-Spin Energy          =      -0.3694299440996123 [Eh]
	 Opposite-Spin Energy      =      -1.1823566355820239 [Eh]
	 Correlation Energy        =      -1.5517865796816361 [Eh]
	 Total Energy              =    -362.4450477235897097 [Eh]

	 ================> DF-SCS-MP2 Energies <==================
	-----------------------------------------------------------
	 SCS Same-Spin Scale       =       0.3333333333333333 [-]
	 SCS Opposite-Spin Scale   =       1.2000000000000000 [-]
	 SCS Same-Spin Energy      =      -0.1231433146998707 [Eh]
	 SCS Opposite-Spin Energy  =      -1.4188279626984286 [Eh]
	 SCS Correlation Energy    =      -1.5419712773982994 [Eh]
	 SCS Total Energy          =    -362.4352324213064094 [Eh]
	-----------------------------------------------------------

  Dipole Moment: [D]
     X:    -3.0651      Y:    -0.2199      Z:     2.2164     Total:     3.7889

*** Psi4 exiting successfully. Buy a developer a beer!
