                               Psi4 1.4a3.dev225

  ==> Input File <==

--------------------------------------------------------------------------
#psi4
#
memory 32 gb

molecule  {
0 1
  O        1.6269320     1.1045440    -0.3563700
  O        1.6269410    -1.1045380    -0.3563700
  N        1.2303420     0.0000010     0.0570950
  C       -1.2290370    -0.0000020     0.4263420
  C        0.2261221    -0.0000018     1.0166832
  C       -1.4714760    -1.2642140    -0.3967350
  C       -1.4714800     1.2642120    -0.3967320
  H       -1.9318800    -0.0000060     1.2712410
  H        0.3118450     0.8984460     1.6853920
  H        0.3118480    -0.8984510     1.6853890
  H       -0.8055150    -1.3049070    -1.2625520
  H       -2.5029200    -1.2793330    -0.7603930
  H       -1.3046420    -2.1677380     0.1971180
  H       -1.3046550     2.1677340     0.1971270
  H       -0.8055150     1.3049140    -1.2625460
  H       -2.5029220     1.2793270    -0.7603950
units angstrom
no_reorient  #important for SAPT in psi4, default
symmetry c1  #important for SAPT in psi4, default
}

set PROPERTIES_ORIGIN ["COM"]
properties('MP2/aug-cc-pvtz', properties = ['dipole'])
--------------------------------------------------------------------------

    Molecular point group: c1
  Charge       = 0
  Multiplicity = 1
  Basis Set: AUG-CC-PVTZ
    Blend: AUG-CC-PVTZ
  Basis Set: (AUG-CC-PVTZ AUX)
    Blend: AUG-CC-PVTZ-JKFIT

    Orbital Energies [Eh]
    ---------------------

    Doubly Occupied:

       1A    -20.608109     2A    -20.608060     3A    -15.850457
       4A    -11.302649     5A    -11.268769     6A    -11.227591
       7A    -11.227575     8A     -1.595389     9A     -1.390076
      10A     -1.154300    11A     -1.058714    12A     -0.947479
      13A     -0.877467    14A     -0.804885    15A     -0.746335
      16A     -0.735323    17A     -0.712653    18A     -0.629408
      19A     -0.622717    20A     -0.602124    21A     -0.557276
      22A     -0.540455    23A     -0.519782    24A     -0.501854
      25A     -0.489221    26A     -0.484873    27A     -0.481407
      28A     -0.450761

  @DF-RHF Final Energy:  -360.88945301794610

   => Energetics <=

    Nuclear Repulsion Energy =            329.8353631204601584
    One-Electron Energy =               -1145.4582185969720740
    Two-Electron Energy =                 454.7334024585657630
    Total Energy =                       -360.8894530179460958
  Basis Set: (AUG-CC-PVTZ AUX)
    Blend: AUG-CC-PVTZ-RI
    Molecular point group: c1

    Geometry (in Angstrom), charge = 0, multiplicity = 1:

       Center              X                  Y                   Z               Mass
    ------------   -----------------  -----------------  -----------------  -----------------
         O            1.517225156835     1.104543745176    -0.338828544682    15.994914619570
         O            1.517234156835    -1.104538254824    -0.338828544682    15.994914619570
         N            1.120635156835     0.000000745176     0.074636455318    14.003074004430
         C           -1.338743843165    -0.000002254824     0.443883455318    12.000000000000
         C            0.116415256835    -0.000002054824     1.034224655318    12.000000000000
         C           -1.581182843165    -1.264214254824    -0.379193544682    12.000000000000
         C           -1.581186843165     1.264211745176    -0.379190544682    12.000000000000
         H           -2.041586843165    -0.000006254824     1.288782455318     1.007825032230
         H            0.202138156835     0.898445745176     1.702933455318     1.007825032230
         H            0.202141156835    -0.898451254824     1.702930455318     1.007825032230
         H           -0.915221843165    -1.304907254824    -1.245010544682     1.007825032230
         H           -2.612626843165    -1.279333254824    -0.742851544682     1.007825032230
         H           -1.414348843165    -2.167738254824     0.214659455318     1.007825032230
         H           -1.414361843165     2.167733745176     0.214668455318     1.007825032230
         H           -0.915221843165     1.304913745176    -1.245004544682     1.007825032230
         H           -2.612628843165     1.279326745176    -0.742853544682     1.007825032230

  Basis Set: AUG-CC-PVTZ
    Blend: AUG-CC-PVTZ
  Basis Set: (AUG-CC-PVTZ AUX)
    Blend: AUG-CC-PVTZ-JKFIT
	 Reference Energy          =    -360.8894530179460958 [Eh]
	 Singles Energy            =      -0.0000000000000000 [Eh]
	 Same-Spin Energy          =      -0.3697576593410672 [Eh]
	 Opposite-Spin Energy      =      -1.1819646124924628 [Eh]
	 Correlation Energy        =      -1.5517222718335300 [Eh]
	 Total Energy              =    -362.4411752897796077 [Eh]

	 ================> DF-SCS-MP2 Energies <==================
	-----------------------------------------------------------
	 SCS Same-Spin Scale       =       0.3333333333333333 [-]
	 SCS Opposite-Spin Scale   =       1.2000000000000000 [-]
	 SCS Same-Spin Energy      =      -0.1232525531136891 [Eh]
	 SCS Opposite-Spin Energy  =      -1.4183575349909552 [Eh]
	 SCS Correlation Energy    =      -1.5416100881046442 [Eh]
	 SCS Total Energy          =    -362.4310631060507149 [Eh]
	-----------------------------------------------------------

  Dipole Moment: [D]
     X:    -2.9826      Y:    -0.0000      Z:     2.1350     Total:     3.6680

*** Psi4 exiting successfully. Buy a developer a beer!
