                               Psi4 1.4a3.dev225

  ==> Input File <==

--------------------------------------------------------------------------
#psi4
#
memory 32 gb

molecule  {
0 1
  O        1.6269320     1.1045440    -0.3563700
  O        1.6269410    -1.1045380    -0.3563700
  N        1.2303420     0.0000010     0.0570950
  C       -1.2290370    -0.0000020     0.4263420
  C        0.0092249    -0.0000024     1.2239406
  C       -1.4714760    -1.2642140    -0.3967350
  C       -1.4714800     1.2642120    -0.3967320
  H       -1.9318800    -0.0000060     1.2712410
  H        0.3118450     0.8984460     1.6853920
  H        0.3118480    -0.8984510     1.6853890
  H       -0.8055150    -1.3049070    -1.2625520
  H       -2.5029200    -1.2793330    -0.7603930
  H       -1.3046420    -2.1677380     0.1971180
  H       -1.3046550     2.1677340     0.1971270
  H       -0.8055150     1.3049140    -1.2625460
  H       -2.5029220     1.2793270    -0.7603950
units angstrom
no_reorient  #important for SAPT in psi4, default
symmetry c1  #important for SAPT in psi4, default
}

set PROPERTIES_ORIGIN ["COM"]
properties('MP2/aug-cc-pvtz', properties = ['dipole'])
--------------------------------------------------------------------------

    Molecular point group: c1
  Charge       = 0
  Multiplicity = 1
  Basis Set: AUG-CC-PVTZ
    Blend: AUG-CC-PVTZ
  Basis Set: (AUG-CC-PVTZ AUX)
    Blend: AUG-CC-PVTZ-JKFIT

    Orbital Energies [Eh]
    ---------------------

    Doubly Occupied:

       1A    -20.593975     2A    -20.593925     3A    -15.821573
       4A    -11.320252     5A    -11.264770     6A    -11.232100
       7A    -11.232083     8A     -1.561040     9A     -1.368877
      10A     -1.143559    11A     -1.014477    12A     -0.951209
      13A     -0.880543    14A     -0.807517    15A     -0.721374
      16A     -0.713992    17A     -0.687834    18A     -0.663851
      19A     -0.626347    20A     -0.621046    21A     -0.559806
      22A     -0.551209    23A     -0.525586    24A     -0.512253
      25A     -0.500551    26A     -0.480808    27A     -0.438621
      28A     -0.437052

  @DF-RHF Final Energy:  -360.87476333274810

   => Energetics <=

    Nuclear Repulsion Energy =            326.0111428884561633
    One-Electron Energy =               -1138.1193545095870832
    Two-Electron Energy =                 451.2334482883828741
    Total Energy =                       -360.8747633327481026
  Basis Set: (AUG-CC-PVTZ AUX)
    Blend: AUG-CC-PVTZ-RI
    Molecular point group: c1

    Geometry (in Angstrom), charge = 0, multiplicity = 1:

       Center              X                  Y                   Z               Mass
    ------------   -----------------  -----------------  -----------------  -----------------
         O            1.542479206331     1.104543815036    -0.362960200775    15.994914619570
         O            1.542488206331    -1.104538184964    -0.362960200775    15.994914619570
         N            1.145889206331     0.000000815036     0.050504799225    14.003074004430
         C           -1.313489793669    -0.000002184964     0.419751799225    12.000000000000
         C           -0.075227893669    -0.000002584964     1.217350399225    12.000000000000
         C           -1.555928793669    -1.264214184964    -0.403325200775    12.000000000000
         C           -1.555932793669     1.264211815036    -0.403322200775    12.000000000000
         H           -2.016332793669    -0.000006184964     1.264650799225     1.007825032230
         H            0.227392206331     0.898445815036     1.678801799225     1.007825032230
         H            0.227395206331    -0.898451184964     1.678798799225     1.007825032230
         H           -0.889967793669    -1.304907184964    -1.269142200775     1.007825032230
         H           -2.587372793669    -1.279333184964    -0.766983200775     1.007825032230
         H           -1.389094793669    -2.167738184964     0.190527799225     1.007825032230
         H           -1.389107793669     2.167733815036     0.190536799225     1.007825032230
         H           -0.889967793669     1.304913815036    -1.269136200775     1.007825032230
         H           -2.587374793669     1.279326815036    -0.766985200775     1.007825032230

  Basis Set: AUG-CC-PVTZ
    Blend: AUG-CC-PVTZ
  Basis Set: (AUG-CC-PVTZ AUX)
    Blend: AUG-CC-PVTZ-JKFIT
	 Reference Energy          =    -360.8747633327481026 [Eh]
	 Singles Energy            =      -0.0000000000000000 [Eh]
	 Same-Spin Energy          =      -0.3691715403338515 [Eh]
	 Opposite-Spin Energy      =      -1.1821988676565924 [Eh]
	 Correlation Energy        =      -1.5513704079904440 [Eh]
	 Total Energy              =    -362.4261337407385213 [Eh]

	 ================> DF-SCS-MP2 Energies <==================
	-----------------------------------------------------------
	 SCS Same-Spin Scale       =       0.3333333333333333 [-]
	 SCS Opposite-Spin Scale   =       1.2000000000000000 [-]
	 SCS Same-Spin Energy      =      -0.1230571801112838 [Eh]
	 SCS Opposite-Spin Energy  =      -1.4186386411879108 [Eh]
	 SCS Correlation Energy    =      -1.5416958212991947 [Eh]
	 SCS Total Energy          =    -362.4164591540472884 [Eh]
	-----------------------------------------------------------

  Dipole Moment: [D]
     X:    -3.2175      Y:    -0.0000      Z:     2.2787     Total:     3.9427

*** Psi4 exiting successfully. Buy a developer a beer!
