                               Psi4 1.4a3.dev225

  ==> Input File <==

--------------------------------------------------------------------------
#psi4
#
memory 32 gb

molecule  {
0 1
  O        1.6269320     1.1045440    -0.3563700
  O        1.6269410    -1.1045380    -0.3563700
  N        1.2303420     0.0000010     0.0570950
  C       -1.2290370    -0.0000020     0.4263420
  C        0.1538230    -0.0000020     1.0857690
  C       -1.3935609    -1.2321061    -0.4620924
  C       -1.4714800     1.2642120    -0.3967320
  H       -1.9318800    -0.0000060     1.2712410
  H        0.3118450     0.8984460     1.6853920
  H        0.3118480    -0.8984510     1.6853890
  H       -0.8055150    -1.3049070    -1.2625520
  H       -2.5029200    -1.2793330    -0.7603930
  H       -1.3046420    -2.1677380     0.1971180
  H       -1.3046550     2.1677340     0.1971270
  H       -0.8055150     1.3049140    -1.2625460
  H       -2.5029220     1.2793270    -0.7603950
units angstrom
no_reorient  #important for SAPT in psi4, default
symmetry c1  #important for SAPT in psi4, default
}

set PROPERTIES_ORIGIN ["COM"]
properties('MP2/aug-cc-pvtz', properties = ['dipole'])
--------------------------------------------------------------------------

    Molecular point group: c1
  Charge       = 0
  Multiplicity = 1
  Basis Set: AUG-CC-PVTZ
    Blend: AUG-CC-PVTZ
  Basis Set: (AUG-CC-PVTZ AUX)
    Blend: AUG-CC-PVTZ-JKFIT

    Orbital Energies [Eh]
    ---------------------

    Doubly Occupied:

       1A    -20.606429     2A    -20.606326     3A    -15.846067
       4A    -11.305183     5A    -11.266036     6A    -11.230252
       7A    -11.227645     8A     -1.584649     9A     -1.385326
      10A     -1.145050    11A     -1.042122    12A     -0.947653
      13A     -0.882606    14A     -0.806591    15A     -0.737986
      16A     -0.728972    17A     -0.707783    18A     -0.639785
      19A     -0.629924    20A     -0.601136    21A     -0.577682
      22A     -0.533425    23A     -0.523684    24A     -0.497138
      25A     -0.494901    26A     -0.478428    27A     -0.476336
      28A     -0.448608

  @DF-RHF Final Energy:  -360.88545246849225

   => Energetics <=

    Nuclear Repulsion Energy =            329.1941936431907720
    One-Electron Energy =               -1144.2438400351982182
    Two-Electron Energy =                 454.1641939235151426
    Total Energy =                       -360.8854524684922467
  Basis Set: (AUG-CC-PVTZ AUX)
    Blend: AUG-CC-PVTZ-RI
    Molecular point group: c1

    Geometry (in Angstrom), charge = 0, multiplicity = 1:

       Center              X                  Y                   Z               Mass
    ------------   -----------------  -----------------  -----------------  -----------------
         O            1.516571267611     1.100805340784    -0.339262654473    15.994914619570
         O            1.516580267611    -1.108276659216    -0.339262654473    15.994914619570
         N            1.119981267611    -0.003737659216     0.074202345527    14.003074004430
         C           -1.339397732389    -0.003740659216     0.443449345527    12.000000000000
         C            0.043462267611    -0.003740659216     1.102876345527    12.000000000000
         C           -1.503921632389    -1.235844759216    -0.444985054473    12.000000000000
         C           -1.581840732389     1.260473340784    -0.379624654473    12.000000000000
         H           -2.042240732389    -0.003744659216     1.288348345527     1.007825032230
         H            0.201484267611     0.894707340784     1.702499345527     1.007825032230
         H            0.201487267611    -0.902189659216     1.702496345527     1.007825032230
         H           -0.915875732389    -1.308645659216    -1.245444654473     1.007825032230
         H           -2.613280732389    -1.283071659216    -0.743285654473     1.007825032230
         H           -1.415002732389    -2.171476659216     0.214225345527     1.007825032230
         H           -1.415015732389     2.163995340784     0.214234345527     1.007825032230
         H           -0.915875732389     1.301175340784    -1.245438654473     1.007825032230
         H           -2.613282732389     1.275588340784    -0.743287654473     1.007825032230

  Basis Set: AUG-CC-PVTZ
    Blend: AUG-CC-PVTZ
  Basis Set: (AUG-CC-PVTZ AUX)
    Blend: AUG-CC-PVTZ-JKFIT
	 Reference Energy          =    -360.8854524684922467 [Eh]
	 Singles Energy            =      -0.0000000000000000 [Eh]
	 Same-Spin Energy          =      -0.3691521259145304 [Eh]
	 Opposite-Spin Energy      =      -1.1820078867723656 [Eh]
	 Correlation Energy        =      -1.5511600126868959 [Eh]
	 Total Energy              =    -362.4366124811791678 [Eh]

	 ================> DF-SCS-MP2 Energies <==================
	-----------------------------------------------------------
	 SCS Same-Spin Scale       =       0.3333333333333333 [-]
	 SCS Opposite-Spin Scale   =       1.2000000000000000 [-]
	 SCS Same-Spin Energy      =      -0.1230507086381768 [Eh]
	 SCS Opposite-Spin Energy  =      -1.4184094641268385 [Eh]
	 SCS Correlation Energy    =      -1.5414601727650152 [Eh]
	 SCS Total Energy          =    -362.4269126412572746 [Eh]
	-----------------------------------------------------------

  Dipole Moment: [D]
     X:    -2.9732      Y:     0.0187      Z:     2.1625     Total:     3.6765

*** Psi4 exiting successfully. Buy a developer a beer!
