                               Psi4 1.4a3.dev225

  ==> Input File <==

--------------------------------------------------------------------------
#psi4
#
memory 32 gb

molecule  {
0 1
  O        1.6269320     1.1045440    -0.3563700
  O        1.6269410    -1.1045380    -0.3563700
  N        1.2303420     0.0000010     0.0570950
  C       -1.2290370    -0.0000020     0.4263420
  C        0.1538230    -0.0000020     1.0857690
  C       -1.4714760    -1.2642140    -0.3967350
  C       -1.4714800     1.2642120    -0.3967320
  H       -1.9318800    -0.0000060     1.2712410
  H        0.3118450     0.8984460     1.6853920
  H        0.3118480    -0.8984510     1.6853890
  H       -0.6836634    -1.3123526    -1.4209715
  H       -2.5029200    -1.2793330    -0.7603930
  H       -1.3046420    -2.1677380     0.1971180
  H       -1.3046550     2.1677340     0.1971270
  H       -0.8055150     1.3049140    -1.2625460
  H       -2.5029220     1.2793270    -0.7603950
units angstrom
no_reorient  #important for SAPT in psi4, default
symmetry c1  #important for SAPT in psi4, default
}

set PROPERTIES_ORIGIN ["COM"]
properties('MP2/aug-cc-pvtz', properties = ['dipole'])
--------------------------------------------------------------------------

    Molecular point group: c1
  Charge       = 0
  Multiplicity = 1
  Basis Set: AUG-CC-PVTZ
    Blend: AUG-CC-PVTZ
  Basis Set: (AUG-CC-PVTZ AUX)
    Blend: AUG-CC-PVTZ-JKFIT

    Orbital Energies [Eh]
    ---------------------

    Doubly Occupied:

       1A    -20.605466     2A    -20.605398     3A    -15.845243
       4A    -11.306532     5A    -11.267053     6A    -11.249889
       7A    -11.228402     8A     -1.583645     9A     -1.384341
      10A     -1.143708    11A     -1.040170    12A     -0.941025
      13A     -0.878646    14A     -0.800744    15A     -0.738342
      16A     -0.728138    17A     -0.703673    18A     -0.637972
      19A     -0.625361    20A     -0.609472    21A     -0.547233
      22A     -0.539804    23A     -0.509923    24A     -0.502200
      25A     -0.494920    26A     -0.484660    27A     -0.468894
      28A     -0.445330

  @DF-RHF Final Energy:  -360.87887192304822

   => Energetics <=

    Nuclear Repulsion Energy =            327.8314287357446233
    One-Electron Energy =               -1141.5882263114135640
    Two-Electron Energy =                 452.8779256526207746
    Total Energy =                       -360.8788719230482229
  Basis Set: (AUG-CC-PVTZ AUX)
    Blend: AUG-CC-PVTZ-RI
    Molecular point group: c1

    Geometry (in Angstrom), charge = 0, multiplicity = 1:

       Center              X                  Y                   Z               Mass
    ------------   -----------------  -----------------  -----------------  -----------------
         O            1.524451627374     1.104616576727    -0.345323293802    15.994914619570
         O            1.524460627374    -1.104465423273    -0.345323293802    15.994914619570
         N            1.127861627374     0.000073576727     0.068141706198    14.003074004430
         C           -1.331517372626     0.000070576727     0.437388706198    12.000000000000
         C            0.051342627374     0.000070576727     1.096815706198    12.000000000000
         C           -1.573956372626    -1.264141423273    -0.385688293802    12.000000000000
         C           -1.573960372626     1.264284576727    -0.385685293802    12.000000000000
         H           -2.034360372626     0.000066576727     1.282287706198     1.007825032230
         H            0.209364627374     0.898518576727     1.696438706198     1.007825032230
         H            0.209367627374    -0.898378423273     1.696435706198     1.007825032230
         H           -0.786143772626    -1.312280023273    -1.409924793802     1.007825032230
         H           -2.605400372626    -1.279260423273    -0.749346293802     1.007825032230
         H           -1.407122372626    -2.167665423273     0.208164706198     1.007825032230
         H           -1.407135372626     2.167806576727     0.208173706198     1.007825032230
         H           -0.907995372626     1.304986576727    -1.251499293802     1.007825032230
         H           -2.605402372626     1.279399576727    -0.749348293802     1.007825032230

  Basis Set: AUG-CC-PVTZ
    Blend: AUG-CC-PVTZ
  Basis Set: (AUG-CC-PVTZ AUX)
    Blend: AUG-CC-PVTZ-JKFIT
	 Reference Energy          =    -360.8788719230482229 [Eh]
	 Singles Energy            =      -0.0000000000000000 [Eh]
	 Same-Spin Energy          =      -0.3692072854244771 [Eh]
	 Opposite-Spin Energy      =      -1.1831697645915098 [Eh]
	 Correlation Energy        =      -1.5523770500159868 [Eh]
	 Total Energy              =    -362.4312489730642142 [Eh]

	 ================> DF-SCS-MP2 Energies <==================
	-----------------------------------------------------------
	 SCS Same-Spin Scale       =       0.3333333333333333 [-]
	 SCS Opposite-Spin Scale   =       1.2000000000000000 [-]
	 SCS Same-Spin Energy      =      -0.1230690951414924 [Eh]
	 SCS Opposite-Spin Energy  =      -1.4198037175098117 [Eh]
	 SCS Correlation Energy    =      -1.5428728126513040 [Eh]
	 SCS Total Energy          =    -362.4217447356995194 [Eh]
	-----------------------------------------------------------

  Dipole Moment: [D]
     X:    -3.0299      Y:     0.0108      Z:     2.2613     Total:     3.7807

*** Psi4 exiting successfully. Buy a developer a beer!
