                               Psi4 1.4a3.dev225

  ==> Input File <==

--------------------------------------------------------------------------
#psi4
#
memory 32 gb

molecule  {
0 1
  O        1.6269320     1.1045440    -0.3563700
  O        1.6269410    -1.1045380    -0.3563700
  N        1.2303420     0.0000010     0.0570950
  C       -1.2290370    -0.0000020     0.4263420
  C        0.1538230    -0.0000020     1.0857690
  C       -1.4714760    -1.2642140    -0.3967350
  C       -1.4714800     1.2642120    -0.3967320
  H       -1.9318800    -0.0000060     1.2712410
  H        0.2973697     0.8161451     1.6304645
  H        0.3118480    -0.8984510     1.6853890
  H       -0.8055150    -1.3049070    -1.2625520
  H       -2.5029200    -1.2793330    -0.7603930
  H       -1.3046420    -2.1677380     0.1971180
  H       -1.3046550     2.1677340     0.1971270
  H       -0.8055150     1.3049140    -1.2625460
  H       -2.5029220     1.2793270    -0.7603950
units angstrom
no_reorient  #important for SAPT in psi4, default
symmetry c1  #important for SAPT in psi4, default
}

set PROPERTIES_ORIGIN ["COM"]
properties('MP2/aug-cc-pvtz', properties = ['dipole'])
--------------------------------------------------------------------------

    Molecular point group: c1
  Charge       = 0
  Multiplicity = 1
  Basis Set: AUG-CC-PVTZ
    Blend: AUG-CC-PVTZ
  Basis Set: (AUG-CC-PVTZ AUX)
    Blend: AUG-CC-PVTZ-JKFIT

    Orbital Energies [Eh]
    ---------------------

    Doubly Occupied:

       1A    -20.606124     2A    -20.605611     3A    -15.845141
       4A    -11.294967     5A    -11.264267     6A    -11.228375
       7A    -11.227805     8A     -1.584069     9A     -1.384771
      10A     -1.147860    11A     -1.044055    12A     -0.947947
      13A     -0.885577    14A     -0.805869    15A     -0.745414
      16A     -0.729893    17A     -0.707084    18A     -0.647479
      19A     -0.628660    20A     -0.609337    21A     -0.558098
      22A     -0.546769    23A     -0.516864    24A     -0.500883
      25A     -0.500738    26A     -0.486008    27A     -0.474573
      28A     -0.448208

  @DF-RHF Final Energy:  -360.89375920440500

   => Energetics <=

    Nuclear Repulsion Energy =            329.0216367457148863
    One-Electron Energy =               -1143.8859006130255693
    Two-Electron Energy =                 453.9705046629056824
    Total Energy =                       -360.8937592044050007
  Basis Set: (AUG-CC-PVTZ AUX)
    Blend: AUG-CC-PVTZ-RI
    Molecular point group: c1

    Geometry (in Angstrom), charge = 0, multiplicity = 1:

       Center              X                  Y                   Z               Mass
    ------------   -----------------  -----------------  -----------------  -----------------
         O            1.525784726784     1.105348564003    -0.346335310682    15.994914619570
         O            1.525793726784    -1.103733435997    -0.346335310682    15.994914619570
         N            1.129194726784     0.000805564003     0.067129689318    14.003074004430
         C           -1.330184273216     0.000802564003     0.436376689318    12.000000000000
         C            0.052675726784     0.000802564003     1.095803689318    12.000000000000
         C           -1.572623273216    -1.263409435997    -0.386700310682    12.000000000000
         C           -1.572627273216     1.265016564003    -0.386697310682    12.000000000000
         H           -2.033027273216     0.000798564003     1.281275689318     1.007825032230
         H            0.196222426784     0.816949664003     1.640499189318     1.007825032230
         H            0.210700726784    -0.897646435997     1.695423689318     1.007825032230
         H           -0.906662273216    -1.304102435997    -1.252517310682     1.007825032230
         H           -2.604067273216    -1.278528435997    -0.750358310682     1.007825032230
         H           -1.405789273216    -2.166933435997     0.207152689318     1.007825032230
         H           -1.405802273216     2.168538564003     0.207161689318     1.007825032230
         H           -0.906662273216     1.305718564003    -1.252511310682     1.007825032230
         H           -2.604069273216     1.280131564003    -0.750360310682     1.007825032230

  Basis Set: AUG-CC-PVTZ
    Blend: AUG-CC-PVTZ
  Basis Set: (AUG-CC-PVTZ AUX)
    Blend: AUG-CC-PVTZ-JKFIT
	 Reference Energy          =    -360.8937592044050007 [Eh]
	 Singles Energy            =      -0.0000000000000000 [Eh]
	 Same-Spin Energy          =      -0.3687095921587893 [Eh]
	 Opposite-Spin Energy      =      -1.1805036193453260 [Eh]
	 Correlation Energy        =      -1.5492132115041153 [Eh]
	 Total Energy              =    -362.4429724159091393 [Eh]

	 ================> DF-SCS-MP2 Energies <==================
	-----------------------------------------------------------
	 SCS Same-Spin Scale       =       0.3333333333333333 [-]
	 SCS Opposite-Spin Scale   =       1.2000000000000000 [-]
	 SCS Same-Spin Energy      =      -0.1229031973862631 [Eh]
	 SCS Opposite-Spin Energy  =      -1.4166043432143911 [Eh]
	 SCS Correlation Energy    =      -1.5395075406006542 [Eh]
	 SCS Total Energy          =    -362.4332667450056533 [Eh]
	-----------------------------------------------------------

  Dipole Moment: [D]
     X:    -2.9898      Y:     0.0039      Z:     2.1881     Total:     3.7050

*** Psi4 exiting successfully. Buy a developer a beer!
