                               Psi4 1.4a3.dev225

  ==> Input File <==

--------------------------------------------------------------------------
#psi4
#
memory 32 gb

molecule  {
0 1
  O        1.6269320     1.1045440    -0.3563700
  O        1.6269410    -1.1045380    -0.3563700
  N        1.2303420     0.0000010     0.0570950
  C       -1.2290370    -0.0000020     0.4263420
  C        0.1538230    -0.0000020     1.0857690
  C       -1.4714760    -1.2642140    -0.3967350
  C       -1.4714800     1.2642120    -0.3967320
  H       -1.9318800    -0.0000060     1.2712410
  H        0.3118450     0.8984460     1.6853920
  H        0.3118480    -0.8984510     1.6853890
  H       -0.8055150    -1.3049070    -1.2625520
  H       -2.5029200    -1.2793330    -0.7603930
  H       -1.3046420    -2.1677380     0.1971180
  H       -1.3046550     2.1677340     0.1971270
  H       -0.8055150     1.3049140    -1.2625460
  H       -2.5029220     1.2793270    -0.7603950
units angstrom
no_reorient  #important for SAPT in psi4, default
symmetry c1  #important for SAPT in psi4, default
}

set PROPERTIES_ORIGIN ["COM"]
properties('MP2/aug-cc-pvtz', properties = ['dipole'])
--------------------------------------------------------------------------

    Molecular point group: c1
  Charge       = 0
  Multiplicity = 1
  Basis Set: AUG-CC-PVTZ
    Blend: AUG-CC-PVTZ
  Basis Set: (AUG-CC-PVTZ AUX)
    Blend: AUG-CC-PVTZ-JKFIT

    Orbital Energies [Eh]
    ---------------------

    Doubly Occupied:

       1A    -20.606034     2A    -20.605984     3A    -15.845678
       4A    -11.305969     5A    -11.264616     6A    -11.228234
       7A    -11.228218     8A     -1.584193     9A     -1.384890
      10A     -1.143868    11A     -1.041795    12A     -0.947945
      13A     -0.881245    14A     -0.804150    15A     -0.738313
      16A     -0.728594    17A     -0.705441    18A     -0.638003
      19A     -0.628817    20A     -0.608020    21A     -0.557406
      22A     -0.544570    23A     -0.516921    24A     -0.501005
      25A     -0.500188    26A     -0.484521    27A     -0.474740
      28A     -0.448255

  @DF-RHF Final Energy:  -360.89939881252786

   => Energetics <=

    Nuclear Repulsion Energy =            328.4844725940151307
    One-Electron Energy =               -1142.8725142675027655
    Two-Electron Energy =                 453.4886428609597147
    Total Energy =                       -360.8993988125278634
  Basis Set: (AUG-CC-PVTZ AUX)
    Blend: AUG-CC-PVTZ-RI
    Molecular point group: c1

    Geometry (in Angstrom), charge = 0, multiplicity = 1:

       Center              X                  Y                   Z               Mass
    ------------   -----------------  -----------------  -----------------  -----------------
         O            1.525643177215     1.104543768463    -0.346872430046    15.994914619570
         O            1.525652177215    -1.104538231537    -0.346872430046    15.994914619570
         N            1.129053177215     0.000000768463     0.066592569954    14.003074004430
         C           -1.330325822785    -0.000002231537     0.435839569954    12.000000000000
         C            0.052534177215    -0.000002231537     1.095266569954    12.000000000000
         C           -1.572764822785    -1.264214231537    -0.387237430046    12.000000000000
         C           -1.572768822785     1.264211768463    -0.387234430046    12.000000000000
         H           -2.033168822785    -0.000006231537     1.280738569954     1.007825032230
         H            0.210556177215     0.898445768463     1.694889569954     1.007825032230
         H            0.210559177215    -0.898451231537     1.694886569954     1.007825032230
         H           -0.906803822785    -1.304907231537    -1.253054430046     1.007825032230
         H           -2.604208822785    -1.279333231537    -0.750895430046     1.007825032230
         H           -1.405930822785    -2.167738231537     0.206615569954     1.007825032230
         H           -1.405943822785     2.167733768463     0.206624569954     1.007825032230
         H           -0.906803822785     1.304913768463    -1.253048430046     1.007825032230
         H           -2.604210822785     1.279326768463    -0.750897430046     1.007825032230

  Basis Set: AUG-CC-PVTZ
    Blend: AUG-CC-PVTZ
  Basis Set: (AUG-CC-PVTZ AUX)
    Blend: AUG-CC-PVTZ-JKFIT
	 Reference Energy          =    -360.8993988125278634 [Eh]
	 Singles Energy            =      -0.0000000000000000 [Eh]
	 Same-Spin Energy          =      -0.3689047443013445 [Eh]
	 Opposite-Spin Energy      =      -1.1812331220470798 [Eh]
	 Correlation Energy        =      -1.5501378663484242 [Eh]
	 Total Energy              =    -362.4495366788763135 [Eh]

	 ================> DF-SCS-MP2 Energies <==================
	-----------------------------------------------------------
	 SCS Same-Spin Scale       =       0.3333333333333333 [-]
	 SCS Opposite-Spin Scale   =       1.2000000000000000 [-]
	 SCS Same-Spin Energy      =      -0.1229682481004482 [Eh]
	 SCS Opposite-Spin Energy  =      -1.4174797464564957 [Eh]
	 SCS Correlation Energy    =      -1.5404479945569438 [Eh]
	 SCS Total Energy          =    -362.4398468070847912 [Eh]
	-----------------------------------------------------------

  Dipole Moment: [D]
     X:    -2.9905      Y:    -0.0000      Z:     2.1692     Total:     3.6944

*** Psi4 exiting successfully. Buy a developer a beer!
