                               Psi4 1.4a3.dev225

  ==> Input File <==

--------------------------------------------------------------------------
#psi4
#
memory 32 gb

molecule  {
0 1
  O        1.6269320     1.1045440    -0.3563700
  O        1.6269410    -1.1045380    -0.3563700
  N        1.2303420     0.0000010     0.0570950
  C       -1.2290370    -0.0000020     0.4263420
  C        0.1538230    -0.0000020     1.0857690
  C       -1.4714760    -1.2642140    -0.3967350
  C       -1.4714800     1.2642120    -0.3967320
  H       -1.9318800    -0.0000060     1.2712410
  H        0.3263203     0.9807469     1.7403195
  H        0.3118480    -0.8984510     1.6853890
  H       -0.8055150    -1.3049070    -1.2625520
  H       -2.5029200    -1.2793330    -0.7603930
  H       -1.3046420    -2.1677380     0.1971180
  H       -1.3046550     2.1677340     0.1971270
  H       -0.8055150     1.3049140    -1.2625460
  H       -2.5029220     1.2793270    -0.7603950
units angstrom
no_reorient  #important for SAPT in psi4, default
symmetry c1  #important for SAPT in psi4, default
}

set PROPERTIES_ORIGIN ["COM"]
properties('MP2/aug-cc-pvtz', properties = ['dipole'])
--------------------------------------------------------------------------

    Molecular point group: c1
  Charge       = 0
  Multiplicity = 1
  Basis Set: AUG-CC-PVTZ
    Blend: AUG-CC-PVTZ
  Basis Set: (AUG-CC-PVTZ AUX)
    Blend: AUG-CC-PVTZ-JKFIT

    Orbital Energies [Eh]
    ---------------------

    Doubly Occupied:

       1A    -20.606559     2A    -20.606046     3A    -15.846424
       4A    -11.316263     5A    -11.265133     6A    -11.228812
       7A    -11.228106     8A     -1.584473     9A     -1.385138
      10A     -1.141377    11A     -1.040356    12A     -0.948045
      13A     -0.878469    14A     -0.803186    15A     -0.735375
      16A     -0.726212    17A     -0.703854    18A     -0.629698
      19A     -0.628261    20A     -0.605728    21A     -0.556887
      22A     -0.541475    23A     -0.516914    24A     -0.501223
      25A     -0.499660    26A     -0.482304    27A     -0.474997
      28A     -0.448383

  @DF-RHF Final Energy:  -360.89218552264163

   => Energetics <=

    Nuclear Repulsion Energy =            328.0015478102215525
    One-Electron Energy =               -1141.9287478171029306
    Two-Electron Energy =                 453.0350144842396958
    Total Energy =                       -360.8921855226416255
  Basis Set: (AUG-CC-PVTZ AUX)
    Blend: AUG-CC-PVTZ-RI
    Molecular point group: c1

    Geometry (in Angstrom), charge = 0, multiplicity = 1:

       Center              X                  Y                   Z               Mass
    ------------   -----------------  -----------------  -----------------  -----------------
         O            1.525501627647     1.103738972922    -0.347409549410    15.994914619570
         O            1.525510627647    -1.105343027078    -0.347409549410    15.994914619570
         N            1.128911627647    -0.000804027078     0.066055450590    14.003074004430
         C           -1.330467372353    -0.000807027078     0.435302450590    12.000000000000
         C            0.052392627647    -0.000807027078     1.094729450590    12.000000000000
         C           -1.572906372353    -1.265019027078    -0.387774549410    12.000000000000
         C           -1.572910372353     1.263406972922    -0.387771549410    12.000000000000
         H           -2.033310372353    -0.000811027078     1.280201450590     1.007825032230
         H            0.224889927647     0.979941872922     1.749279950590     1.007825032230
         H            0.210417627647    -0.899256027078     1.694349450590     1.007825032230
         H           -0.906945372353    -1.305712027078    -1.253591549410     1.007825032230
         H           -2.604350372353    -1.280138027078    -0.751432549410     1.007825032230
         H           -1.406072372353    -2.168543027078     0.206078450590     1.007825032230
         H           -1.406085372353     2.166928972922     0.206087450590     1.007825032230
         H           -0.906945372353     1.304108972922    -1.253585549410     1.007825032230
         H           -2.604352372353     1.278521972922    -0.751434549410     1.007825032230

  Basis Set: AUG-CC-PVTZ
    Blend: AUG-CC-PVTZ
  Basis Set: (AUG-CC-PVTZ AUX)
    Blend: AUG-CC-PVTZ-JKFIT
	 Reference Energy          =    -360.8921855226416255 [Eh]
	 Singles Energy            =      -0.0000000000000000 [Eh]
	 Same-Spin Energy          =      -0.3691712134788541 [Eh]
	 Opposite-Spin Energy      =      -1.1822794115129891 [Eh]
	 Correlation Energy        =      -1.5514506249918432 [Eh]
	 Total Energy              =    -362.4436361476334696 [Eh]

	 ================> DF-SCS-MP2 Energies <==================
	-----------------------------------------------------------
	 SCS Same-Spin Scale       =       0.3333333333333333 [-]
	 SCS Opposite-Spin Scale   =       1.2000000000000000 [-]
	 SCS Same-Spin Energy      =      -0.1230570711596180 [Eh]
	 SCS Opposite-Spin Energy  =      -1.4187352938155868 [Eh]
	 SCS Correlation Energy    =      -1.5417923649752048 [Eh]
	 SCS Total Energy          =    -362.4339778876168339 [Eh]
	-----------------------------------------------------------

  Dipole Moment: [D]
     X:    -2.9920      Y:    -0.0122      Z:     2.1386     Total:     3.6778

*** Psi4 exiting successfully. Buy a developer a beer!
