                               Psi4 1.4a3.dev225

  ==> Input File <==

--------------------------------------------------------------------------
#psi4
#
memory 32 gb

molecule  {
0 1
  O        1.6269320     1.1045440    -0.3563700
  O        1.6269410    -1.1045380    -0.3563700
  N        1.2303420     0.0000010     0.0570950
  C       -1.1162270    -0.0378272     0.3194773
  C        0.1538230    -0.0000020     1.0857690
  C       -1.4714760    -1.2642140    -0.3967350
  C       -1.4714800     1.2642120    -0.3967320
  H       -1.9318800    -0.0000060     1.2712410
  H        0.3118450     0.8984460     1.6853920
  H        0.3118480    -0.8984510     1.6853890
  H       -0.8055150    -1.3049070    -1.2625520
  H       -2.5029200    -1.2793330    -0.7603930
  H       -1.3046420    -2.1677380     0.1971180
  H       -1.3046550     2.1677340     0.1971270
  H       -0.8055150     1.3049140    -1.2625460
  H       -2.5029220     1.2793270    -0.7603950
units angstrom
no_reorient  #important for SAPT in psi4, default
symmetry c1  #important for SAPT in psi4, default
}

set PROPERTIES_ORIGIN ["COM"]
properties('MP2/aug-cc-pvtz', properties = ['dipole'])
--------------------------------------------------------------------------

    Molecular point group: c1
  Charge       = 0
  Multiplicity = 1
  Basis Set: AUG-CC-PVTZ
    Blend: AUG-CC-PVTZ
  Basis Set: (AUG-CC-PVTZ AUX)
    Blend: AUG-CC-PVTZ-JKFIT

    Orbital Energies [Eh]
    ---------------------

    Doubly Occupied:

       1A    -20.606105     2A    -20.605892     3A    -15.843564
       4A    -11.309745     5A    -11.272911     6A    -11.230708
       7A    -11.228556     8A     -1.584913     9A     -1.385180
      10A     -1.157309    11A     -1.046951    12A     -0.955980
      13A     -0.881640    14A     -0.796594    15A     -0.746134
      16A     -0.729781    17A     -0.699969    18A     -0.645078
      19A     -0.625641    20A     -0.616704    21A     -0.554859
      22A     -0.552431    23A     -0.529547    24A     -0.512773
      25A     -0.496291    26A     -0.486641    27A     -0.449414
      28A     -0.436787

  @DF-RHF Final Energy:  -360.87310139971953

   => Energetics <=

    Nuclear Repulsion Energy =            330.3687572823254186
    One-Electron Energy =               -1146.5075235660146973
    Two-Electron Energy =                 455.2656648839697482
    Total Energy =                       -360.8731013997195305
  Basis Set: (AUG-CC-PVTZ AUX)
    Blend: AUG-CC-PVTZ-RI
    Molecular point group: c1

    Geometry (in Angstrom), charge = 0, multiplicity = 1:

       Center              X                  Y                   Z               Mass
    ------------   -----------------  -----------------  -----------------  -----------------
         O            1.512508340419     1.108947880056    -0.334429823949    15.994914619570
         O            1.512517340419    -1.100134119944    -0.334429823949    15.994914619570
         N            1.115918340419     0.004404880056     0.079035176051    14.003074004430
         C           -1.230650659581    -0.033423319944     0.341417476051    12.000000000000
         C            0.039399340419     0.004401880056     1.107709176051    12.000000000000
         C           -1.585899659581    -1.259810119944    -0.374794823949    12.000000000000
         C           -1.585903659581     1.268615880056    -0.374791823949    12.000000000000
         H           -2.046303659581     0.004397880056     1.293181176051     1.007825032230
         H            0.197421340419     0.902849880056     1.707332176051     1.007825032230
         H            0.197424340419    -0.894047119944     1.707329176051     1.007825032230
         H           -0.919938659581    -1.300503119944    -1.240611823949     1.007825032230
         H           -2.617343659581    -1.274929119944    -0.738452823949     1.007825032230
         H           -1.419065659581    -2.163334119944     0.219058176051     1.007825032230
         H           -1.419078659581     2.172137880056     0.219067176051     1.007825032230
         H           -0.919938659581     1.309317880056    -1.240605823949     1.007825032230
         H           -2.617345659581     1.283730880056    -0.738454823949     1.007825032230

  Basis Set: AUG-CC-PVTZ
    Blend: AUG-CC-PVTZ
  Basis Set: (AUG-CC-PVTZ AUX)
    Blend: AUG-CC-PVTZ-JKFIT
	 Reference Energy          =    -360.8731013997195305 [Eh]
	 Singles Energy            =      -0.0000000000000000 [Eh]
	 Same-Spin Energy          =      -0.3704866300149822 [Eh]
	 Opposite-Spin Energy      =      -1.1836915095996605 [Eh]
	 Correlation Energy        =      -1.5541781396146428 [Eh]
	 Total Energy              =    -362.4272795393341653 [Eh]

	 ================> DF-SCS-MP2 Energies <==================
	-----------------------------------------------------------
	 SCS Same-Spin Scale       =       0.3333333333333333 [-]
	 SCS Opposite-Spin Scale   =       1.2000000000000000 [-]
	 SCS Same-Spin Energy      =      -0.1234955433383274 [Eh]
	 SCS Opposite-Spin Energy  =      -1.4204298115195926 [Eh]
	 SCS Correlation Energy    =      -1.5439253548579199 [Eh]
	 SCS Total Energy          =    -362.4170267545774777 [Eh]
	-----------------------------------------------------------

  Dipole Moment: [D]
     X:    -2.9390      Y:    -0.0255      Z:     2.1315     Total:     3.6306

*** Psi4 exiting successfully. Buy a developer a beer!
