                               Psi4 1.4a3.dev225

  ==> Input File <==

--------------------------------------------------------------------------
#psi4
#
memory 32 gb

molecule  {
0 1
  O        1.6269320     1.1045440    -0.3563700
  O        1.6269410    -1.1045380    -0.3563700
  N        1.2303420     0.0000010     0.0570950
  C       -1.2290370    -0.0000020     0.4263420
  C        0.1538230    -0.0000020     1.0857690
  C       -1.4714760    -1.2642140    -0.3967350
  C       -1.4714800     1.2642120    -0.3967320
  H       -1.9318800    -0.0000060     1.2712410
  H        0.3118450     0.8984460     1.6853920
  H        0.3118480    -0.8984510     1.6853890
  H       -0.8055150    -1.3049070    -1.2625520
  H       -2.5029200    -1.2793330    -0.7603930
  H       -1.2970171    -2.2090323     0.2242592
  H       -1.3046550     2.1677340     0.1971270
  H       -0.8055150     1.3049140    -1.2625460
  H       -2.5029220     1.2793270    -0.7603950
units angstrom
no_reorient  #important for SAPT in psi4, default
symmetry c1  #important for SAPT in psi4, default
}

set PROPERTIES_ORIGIN ["COM"]
properties('MP2/aug-cc-pvtz', properties = ['dipole'])
--------------------------------------------------------------------------

    Molecular point group: c1
  Charge       = 0
  Multiplicity = 1
  Basis Set: AUG-CC-PVTZ
    Blend: AUG-CC-PVTZ
  Basis Set: (AUG-CC-PVTZ AUX)
    Blend: AUG-CC-PVTZ-JKFIT

    Orbital Energies [Eh]
    ---------------------

    Doubly Occupied:

       1A    -20.606048     2A    -20.605996     3A    -15.845691
       4A    -11.305987     5A    -11.265153     6A    -11.234293
       7A    -11.228749     8A     -1.584213     9A     -1.384902
      10A     -1.143812    11A     -1.041431    12A     -0.945198
      13A     -0.880913    14A     -0.803649    15A     -0.738097
      16A     -0.728603    17A     -0.705343    18A     -0.638117
      19A     -0.628324    20A     -0.604357    21A     -0.557061
      22A     -0.543409    23A     -0.517088    24A     -0.500972
      25A     -0.498064    26A     -0.483651    27A     -0.474921
      28A     -0.448291

  @DF-RHF Final Energy:  -360.89730586135209

   => Energetics <=

    Nuclear Repulsion Energy =            328.2728505045112684
    One-Electron Energy =               -1142.4556441969584739
    Two-Electron Energy =                 453.2854878310950539
    Total Energy =                       -360.8973058613520948
  Basis Set: (AUG-CC-PVTZ AUX)
    Blend: AUG-CC-PVTZ-RI
    Molecular point group: c1

    Geometry (in Angstrom), charge = 0, multiplicity = 1:

       Center              X                  Y                   Z               Mass
    ------------   -----------------  -----------------  -----------------  -----------------
         O            1.525568615631     1.104947572898    -0.347137835609    15.994914619570
         O            1.525577615631    -1.104134427102    -0.347137835609    15.994914619570
         N            1.128978615631     0.000404572898     0.066327164391    14.003074004430
         C           -1.330400384369     0.000401572898     0.435574164391    12.000000000000
         C            0.052459615631     0.000401572898     1.095001164391    12.000000000000
         C           -1.572839384369    -1.263810427102    -0.387502835609    12.000000000000
         C           -1.572843384369     1.264615572898    -0.387499835609    12.000000000000
         H           -2.033243384369     0.000397572898     1.280473164391     1.007825032230
         H            0.210481615631     0.898849572898     1.694624164391     1.007825032230
         H            0.210484615631    -0.898047427102     1.694621164391     1.007825032230
         H           -0.906878384369    -1.304503427102    -1.253319835609     1.007825032230
         H           -2.604283384369    -1.278929427102    -0.751160835609     1.007825032230
         H           -1.398380484369    -2.208628727102     0.233491364391     1.007825032230
         H           -1.406018384369     2.168137572898     0.206359164391     1.007825032230
         H           -0.906878384369     1.305317572898    -1.253313835609     1.007825032230
         H           -2.604285384369     1.279730572898    -0.751162835609     1.007825032230

  Basis Set: AUG-CC-PVTZ
    Blend: AUG-CC-PVTZ
  Basis Set: (AUG-CC-PVTZ AUX)
    Blend: AUG-CC-PVTZ-JKFIT
	 Reference Energy          =    -360.8973058613520948 [Eh]
	 Singles Energy            =      -0.0000000000000000 [Eh]
	 Same-Spin Energy          =      -0.3689051912001296 [Eh]
	 Opposite-Spin Energy      =      -1.1815746982597779 [Eh]
	 Correlation Energy        =      -1.5504798894599074 [Eh]
	 Total Energy              =    -362.4477857508119882 [Eh]

	 ================> DF-SCS-MP2 Energies <==================
	-----------------------------------------------------------
	 SCS Same-Spin Scale       =       0.3333333333333333 [-]
	 SCS Opposite-Spin Scale   =       1.2000000000000000 [-]
	 SCS Same-Spin Energy      =      -0.1229683970667099 [Eh]
	 SCS Opposite-Spin Energy  =      -1.4178896379117334 [Eh]
	 SCS Correlation Energy    =      -1.5408580349784433 [Eh]
	 SCS Total Energy          =    -362.4381638963305363 [Eh]
	-----------------------------------------------------------

  Dipole Moment: [D]
     X:    -2.9926      Y:     0.0302      Z:     2.1570     Total:     3.6891

*** Psi4 exiting successfully. Buy a developer a beer!
