                               Psi4 1.4a3.dev225

  ==> Input File <==

--------------------------------------------------------------------------
#psi4
#
memory 32 gb

molecule  {
0 1
  O        1.6269320     1.1045440    -0.3563700
  O        1.6269410    -1.1045380    -0.3563700
  N        1.2303420     0.0000010     0.0570950
  C       -1.2290370    -0.0000020     0.4263420
  C        0.1682828    -0.0000020     1.0719518
  C       -1.4714760    -1.2642140    -0.3967350
  C       -1.4714800     1.2642120    -0.3967320
  H       -1.9318800    -0.0000060     1.2712410
  H        0.3118450     0.8984460     1.6853920
  H        0.3118480    -0.8984510     1.6853890
  H       -0.8055150    -1.3049070    -1.2625520
  H       -2.5029200    -1.2793330    -0.7603930
  H       -1.3046420    -2.1677380     0.1971180
  H       -1.3046550     2.1677340     0.1971270
  H       -0.8055150     1.3049140    -1.2625460
  H       -2.5029220     1.2793270    -0.7603950
units angstrom
no_reorient  #important for SAPT in psi4, default
symmetry c1  #important for SAPT in psi4, default
}

set PROPERTIES_ORIGIN ["COM"]
properties('MP2/aug-cc-pvtz', properties = ['dipole'])
--------------------------------------------------------------------------

    Molecular point group: c1
  Charge       = 0
  Multiplicity = 1
  Basis Set: AUG-CC-PVTZ
    Blend: AUG-CC-PVTZ
  Basis Set: (AUG-CC-PVTZ AUX)
    Blend: AUG-CC-PVTZ-JKFIT

    Orbital Energies [Eh]
    ---------------------

    Doubly Occupied:

       1A    -20.606695     2A    -20.606645     3A    -15.847074
       4A    -11.305120     5A    -11.265196     6A    -11.228022
       7A    -11.228006     8A     -1.586427     9A     -1.386097
      10A     -1.145181    11A     -1.045213    12A     -0.947775
      13A     -0.880705    14A     -0.804204    15A     -0.739904
      16A     -0.730005    17A     -0.706990    18A     -0.634924
      19A     -0.628938    20A     -0.606788    21A     -0.557322
      22A     -0.543782    23A     -0.517394    24A     -0.501222
      25A     -0.497627    26A     -0.484145    27A     -0.477647
      28A     -0.448888

  @DF-RHF Final Energy:  -360.89897858293267

   => Energetics <=

    Nuclear Repulsion Energy =            328.7457314240710957
    One-Electron Energy =               -1143.3735499971501213
    Two-Electron Energy =                 453.7288399901463549
    Total Energy =                       -360.8989785829326706
  Basis Set: (AUG-CC-PVTZ AUX)
    Blend: AUG-CC-PVTZ-RI
    Molecular point group: c1

    Geometry (in Angstrom), charge = 0, multiplicity = 1:

       Center              X                  Y                   Z               Mass
    ------------   -----------------  -----------------  -----------------  -----------------
         O            1.523959575468     1.104543768463    -0.345263648316    15.994914619570
         O            1.523968575468    -1.104538231537    -0.345263648316    15.994914619570
         N            1.127369575468     0.000000768463     0.068201351684    14.003074004430
         C           -1.332009424532    -0.000002231537     0.437448351684    12.000000000000
         C            0.065310375468    -0.000002231537     1.083058151684    12.000000000000
         C           -1.574448424532    -1.264214231537    -0.385628648316    12.000000000000
         C           -1.574452424532     1.264211768463    -0.385625648316    12.000000000000
         H           -2.034852424532    -0.000006231537     1.282347351684     1.007825032230
         H            0.208872575468     0.898445768463     1.696498351684     1.007825032230
         H            0.208875575468    -0.898451231537     1.696495351684     1.007825032230
         H           -0.908487424532    -1.304907231537    -1.251445648316     1.007825032230
         H           -2.605892424532    -1.279333231537    -0.749286648316     1.007825032230
         H           -1.407614424532    -2.167738231537     0.208224351684     1.007825032230
         H           -1.407627424532     2.167733768463     0.208233351684     1.007825032230
         H           -0.908487424532     1.304913768463    -1.251439648316     1.007825032230
         H           -2.605894424532     1.279326768463    -0.749288648316     1.007825032230

  Basis Set: AUG-CC-PVTZ
    Blend: AUG-CC-PVTZ
  Basis Set: (AUG-CC-PVTZ AUX)
    Blend: AUG-CC-PVTZ-JKFIT
	 Reference Energy          =    -360.8989785829326706 [Eh]
	 Singles Energy            =      -0.0000000000000000 [Eh]
	 Same-Spin Energy          =      -0.3690076735712057 [Eh]
	 Opposite-Spin Energy      =      -1.1812959596421715 [Eh]
	 Correlation Energy        =      -1.5503036332133773 [Eh]
	 Total Energy              =    -362.4492822161460595 [Eh]

	 ================> DF-SCS-MP2 Energies <==================
	-----------------------------------------------------------
	 SCS Same-Spin Scale       =       0.3333333333333333 [-]
	 SCS Opposite-Spin Scale   =       1.2000000000000000 [-]
	 SCS Same-Spin Energy      =      -0.1230025578570686 [Eh]
	 SCS Opposite-Spin Energy  =      -1.4175551515706057 [Eh]
	 SCS Correlation Energy    =      -1.5405577094276743 [Eh]
	 SCS Total Energy          =    -362.4395362923603443 [Eh]
	-----------------------------------------------------------

  Dipole Moment: [D]
     X:    -2.9819      Y:    -0.0000      Z:     2.1607     Total:     3.6824

*** Psi4 exiting successfully. Buy a developer a beer!
