                               Psi4 1.4a3.dev225

  ==> Input File <==

--------------------------------------------------------------------------
#psi4
#
memory 32 gb

molecule  {
0 1
  O        1.6269320     1.1045440    -0.3563700
  O        1.6269410    -1.1045380    -0.3563700
  N        1.2303420     0.0000010     0.0570950
  C       -1.2290370    -0.0000020     0.4263420
  C        0.1538230    -0.0000020     1.0857690
  C       -1.4714760    -1.2642140    -0.3967350
  C       -1.4714800     1.2642120    -0.3967320
  H       -1.9318800    -0.0000060     1.2712410
  H        0.3118450     0.8984460     1.6853920
  H        0.3118480    -0.8984510     1.6853890
  H       -0.8664408    -1.3011842    -1.1833422
  H       -2.5029200    -1.2793330    -0.7603930
  H       -1.3046420    -2.1677380     0.1971180
  H       -1.3046550     2.1677340     0.1971270
  H       -0.8055150     1.3049140    -1.2625460
  H       -2.5029220     1.2793270    -0.7603950
units angstrom
no_reorient  #important for SAPT in psi4, default
symmetry c1  #important for SAPT in psi4, default
}

set PROPERTIES_ORIGIN ["COM"]
properties('MP2/aug-cc-pvtz', properties = ['dipole'])
--------------------------------------------------------------------------

    Molecular point group: c1
  Charge       = 0
  Multiplicity = 1
  Basis Set: AUG-CC-PVTZ
    Blend: AUG-CC-PVTZ
  Basis Set: (AUG-CC-PVTZ AUX)
    Blend: AUG-CC-PVTZ-JKFIT

    Orbital Energies [Eh]
    ---------------------

    Doubly Occupied:

       1A    -20.606303     2A    -20.606225     3A    -15.845864
       4A    -11.305814     5A    -11.263740     6A    -11.228230
       7A    -11.216312     8A     -1.584422     9A     -1.385119
      10A     -1.144444    11A     -1.043784    12A     -0.954471
      13A     -0.883130    14A     -0.806693    15A     -0.738366
      16A     -0.728834    17A     -0.706896    18A     -0.639267
      19A     -0.631391    20A     -0.607641    21A     -0.568987
      22A     -0.544317    23A     -0.519572    24A     -0.501352
      25A     -0.500215    26A     -0.484417    27A     -0.475944
      28A     -0.448887

  @DF-RHF Final Energy:  -360.89342288506145

   => Energetics <=

    Nuclear Repulsion Energy =            328.8762687445744746
    One-Electron Energy =               -1143.5981086880776729
    Two-Electron Energy =                 453.8284170584418007
    Total Energy =                       -360.8934228850614545
  Basis Set: (AUG-CC-PVTZ AUX)
    Blend: AUG-CC-PVTZ-RI
    Molecular point group: c1

    Geometry (in Angstrom), charge = 0, multiplicity = 1:

       Center              X                  Y                   Z               Mass
    ------------   -----------------  -----------------  -----------------  -----------------
         O            1.526238952136     1.104507364331    -0.347646998657    15.994914619570
         O            1.526247952136    -1.104574635669    -0.347646998657    15.994914619570
         N            1.129648952136    -0.000035635669     0.065818001343    14.003074004430
         C           -1.329730047864    -0.000038635669     0.435065001343    12.000000000000
         C            0.053129952136    -0.000038635669     1.094492001343    12.000000000000
         C           -1.572169047864    -1.264250635669    -0.388011998657    12.000000000000
         C           -1.572173047864     1.264175364331    -0.388008998657    12.000000000000
         H           -2.032573047864    -0.000042635669     1.279964001343     1.007825032230
         H            0.211151952136     0.898409364331     1.694115001343     1.007825032230
         H            0.211154952136    -0.898487635669     1.694112001343     1.007825032230
         H           -0.967133847864    -1.301220835669    -1.174619198657     1.007825032230
         H           -2.603613047864    -1.279369635669    -0.751669998657     1.007825032230
         H           -1.405335047864    -2.167774635669     0.205841001343     1.007825032230
         H           -1.405348047864     2.167697364331     0.205850001343     1.007825032230
         H           -0.906208047864     1.304877364331    -1.253822998657     1.007825032230
         H           -2.603615047864     1.279290364331    -0.751671998657     1.007825032230

  Basis Set: AUG-CC-PVTZ
    Blend: AUG-CC-PVTZ
  Basis Set: (AUG-CC-PVTZ AUX)
    Blend: AUG-CC-PVTZ-JKFIT
	 Reference Energy          =    -360.8934228850614545 [Eh]
	 Singles Energy            =      -0.0000000000000000 [Eh]
	 Same-Spin Energy          =      -0.3688061703396986 [Eh]
	 Opposite-Spin Energy      =      -1.1806344981033643 [Eh]
	 Correlation Energy        =      -1.5494406684430628 [Eh]
	 Total Energy              =    -362.4428635535045373 [Eh]

	 ================> DF-SCS-MP2 Energies <==================
	-----------------------------------------------------------
	 SCS Same-Spin Scale       =       0.3333333333333333 [-]
	 SCS Opposite-Spin Scale   =       1.2000000000000000 [-]
	 SCS Same-Spin Energy      =      -0.1229353901132329 [Eh]
	 SCS Opposite-Spin Energy  =      -1.4167613977240372 [Eh]
	 SCS Correlation Energy    =      -1.5396967878372700 [Eh]
	 SCS Total Energy          =    -362.4331196728987265 [Eh]
	-----------------------------------------------------------

  Dipole Moment: [D]
     X:    -2.9773      Y:    -0.0022      Z:     2.1379     Total:     3.6653

*** Psi4 exiting successfully. Buy a developer a beer!
