                               Psi4 1.4a3.dev225

  ==> Input File <==

--------------------------------------------------------------------------
#psi4
#
memory 32 gb

molecule  {
0 1
  O        1.6269320     1.1045440    -0.3563700
  O        1.6269410    -1.1045380    -0.3563700
  N        1.2303420     0.0000010     0.0570950
  C       -1.2290370    -0.0000020     0.4263420
  C        0.1538230    -0.0000020     1.0857690
  C       -1.4714760    -1.2642140    -0.3967350
  C       -1.4714800     1.2642120    -0.3967320
  H       -1.9318800    -0.0000060     1.2712410
  H        0.3118450     0.8984460     1.6853920
  H        0.3118480    -0.8984510     1.6853890
  H       -0.8997655    -1.3077359    -1.3273541
  H       -2.5029200    -1.2793330    -0.7603930
  H       -1.3046420    -2.1677380     0.1971180
  H       -1.3046550     2.1677340     0.1971270
  H       -0.8055150     1.3049140    -1.2625460
  H       -2.5029220     1.2793270    -0.7603950
units angstrom
no_reorient  #important for SAPT in psi4, default
symmetry c1  #important for SAPT in psi4, default
}

set PROPERTIES_ORIGIN ["COM"]
properties('MP2/aug-cc-pvtz', properties = ['dipole'])
--------------------------------------------------------------------------

    Molecular point group: c1
  Charge       = 0
  Multiplicity = 1
  Basis Set: AUG-CC-PVTZ
    Blend: AUG-CC-PVTZ
  Basis Set: (AUG-CC-PVTZ AUX)
    Blend: AUG-CC-PVTZ-JKFIT

    Orbital Energies [Eh]
    ---------------------

    Doubly Occupied:

       1A    -20.605539     2A    -20.605328     3A    -15.845156
       4A    -11.305822     5A    -11.265509     6A    -11.228412
       7A    -11.228385     8A     -1.583553     9A     -1.384235
      10A     -1.143605    11A     -1.041682    12A     -0.948053
      13A     -0.881562    14A     -0.804592    15A     -0.737887
      16A     -0.728107    17A     -0.704706    18A     -0.639210
      19A     -0.627672    20A     -0.608013    21A     -0.558941
      22A     -0.541625    23A     -0.514900    24A     -0.503084
      25A     -0.500615    26A     -0.484359    27A     -0.473968
      28A     -0.447547

  @DF-RHF Final Energy:  -360.89831499021540

   => Energetics <=

    Nuclear Repulsion Energy =            328.2835100387985108
    One-Electron Energy =               -1142.4795122193550014
    Two-Electron Energy =                 453.2976871903410370
    Total Energy =                       -360.8983149902153968
  Basis Set: (AUG-CC-PVTZ AUX)
    Blend: AUG-CC-PVTZ-RI
    Molecular point group: c1

    Geometry (in Angstrom), charge = 0, multiplicity = 1:

       Center              X                  Y                   Z               Mass
    ------------   -----------------  -----------------  -----------------  -----------------
         O            1.526564824270     1.104571431418    -0.346238749964    15.994914619570
         O            1.526573824270    -1.104510568582    -0.346238749964    15.994914619570
         N            1.129974824270     0.000028431418     0.067226250036    14.003074004430
         C           -1.329404175730     0.000025431418     0.436473250036    12.000000000000
         C            0.053455824270     0.000025431418     1.095900250036    12.000000000000
         C           -1.571843175730    -1.264186568582    -0.386603749964    12.000000000000
         C           -1.571847175730     1.264239431418    -0.386600749964    12.000000000000
         H           -2.032247175730     0.000021431418     1.281372250036     1.007825032230
         H            0.211477824270     0.898473431418     1.695523250036     1.007825032230
         H            0.211480824270    -0.898423568582     1.695520250036     1.007825032230
         H           -1.000132675730    -1.307708468582    -1.317222849964     1.007825032230
         H           -2.603287175730    -1.279305568582    -0.750261749964     1.007825032230
         H           -1.405009175730    -2.167710568582     0.207249250036     1.007825032230
         H           -1.405022175730     2.167761431418     0.207258250036     1.007825032230
         H           -0.905882175730     1.304941431418    -1.252414749964     1.007825032230
         H           -2.603289175730     1.279354431418    -0.750263749964     1.007825032230

  Basis Set: AUG-CC-PVTZ
    Blend: AUG-CC-PVTZ
  Basis Set: (AUG-CC-PVTZ AUX)
    Blend: AUG-CC-PVTZ-JKFIT
	 Reference Energy          =    -360.8983149902153968 [Eh]
	 Singles Energy            =      -0.0000000000000000 [Eh]
	 Same-Spin Energy          =      -0.3688553663401732 [Eh]
	 Opposite-Spin Energy      =      -1.1811926220523463 [Eh]
	 Correlation Energy        =      -1.5500479883925196 [Eh]
	 Total Energy              =    -362.4483629786079177 [Eh]

	 ================> DF-SCS-MP2 Energies <==================
	-----------------------------------------------------------
	 SCS Same-Spin Scale       =       0.3333333333333333 [-]
	 SCS Opposite-Spin Scale   =       1.2000000000000000 [-]
	 SCS Same-Spin Energy      =      -0.1229517887800577 [Eh]
	 SCS Opposite-Spin Energy  =      -1.4174311464628155 [Eh]
	 SCS Correlation Energy    =      -1.5403829352428733 [Eh]
	 SCS Total Energy          =    -362.4386979254582570 [Eh]
	-----------------------------------------------------------

  Dipole Moment: [D]
     X:    -3.0226      Y:    -0.0013      Z:     2.1394     Total:     3.7031

*** Psi4 exiting successfully. Buy a developer a beer!
