                               Psi4 1.4a3.dev225

  ==> Input File <==

--------------------------------------------------------------------------
#psi4
#
memory 32 gb

molecule  {
0 1
  O        1.6269320     1.1045440    -0.3563700
  O        1.6269410    -1.1045380    -0.3563700
  N        1.2303420     0.0000010     0.0570950
  C       -1.3445032     0.0516742     0.5241889
  C        0.1538230    -0.0000020     1.0857690
  C       -1.4714760    -1.2642140    -0.3967350
  C       -1.4714800     1.2642120    -0.3967320
  H       -1.9318800    -0.0000060     1.2712410
  H        0.3118450     0.8984460     1.6853920
  H        0.3118480    -0.8984510     1.6853890
  H       -0.8055150    -1.3049070    -1.2625520
  H       -2.5029200    -1.2793330    -0.7603930
  H       -1.3046420    -2.1677380     0.1971180
  H       -1.3046550     2.1677340     0.1971270
  H       -0.8055150     1.3049140    -1.2625460
  H       -2.5029220     1.2793270    -0.7603950
units angstrom
no_reorient  #important for SAPT in psi4, default
symmetry c1  #important for SAPT in psi4, default
}

set PROPERTIES_ORIGIN ["COM"]
properties('MP2/aug-cc-pvtz', properties = ['dipole'])
--------------------------------------------------------------------------

    Molecular point group: c1
  Charge       = 0
  Multiplicity = 1
  Basis Set: AUG-CC-PVTZ
    Blend: AUG-CC-PVTZ
  Basis Set: (AUG-CC-PVTZ AUX)
    Blend: AUG-CC-PVTZ-JKFIT

    Orbital Energies [Eh]
    ---------------------

    Doubly Occupied:

       1A    -20.605844     2A    -20.605661     3A    -15.847362
       4A    -11.304404     5A    -11.263213     6A    -11.230904
       7A    -11.229747     8A     -1.583621     9A     -1.384556
      10A     -1.132052    11A     -1.040608    12A     -0.941246
      13A     -0.882615    14A     -0.820843    15A     -0.732056
      16A     -0.727512    17A     -0.712304    18A     -0.635267
      19A     -0.629382    20A     -0.601586    21A     -0.563412
      22A     -0.542473    23A     -0.539501    24A     -0.494489
      25A     -0.490633    26A     -0.480056    27A     -0.463589
      28A     -0.446708

  @DF-RHF Final Energy:  -360.86905172804239

   => Energetics <=

    Nuclear Repulsion Energy =            326.5015905397771689
    One-Electron Energy =               -1138.8779960081490117
    Two-Electron Energy =                 451.5073537403293926
    Total Energy =                       -360.8690517280423933
  Basis Set: (AUG-CC-PVTZ AUX)
    Blend: AUG-CC-PVTZ-RI
    Molecular point group: c1

    Geometry (in Angstrom), charge = 0, multiplicity = 1:

       Center              X                  Y                   Z               Mass
    ------------   -----------------  -----------------  -----------------  -----------------
         O            1.539087284054     1.098526939695    -0.358265064232    15.994914619570
         O            1.539096284054    -1.110555060305    -0.358265064232    15.994914619570
         N            1.142497284054    -0.006016060305     0.055199935768    14.003074004430
         C           -1.432347915946     0.045657139695     0.522293835768    12.000000000000
         C            0.065978284054    -0.006019060305     1.083873935768    12.000000000000
         C           -1.559320715946    -1.270231060305    -0.398630064232    12.000000000000
         C           -1.559324715946     1.258194939695    -0.398627064232    12.000000000000
         H           -2.019724715946    -0.006023060305     1.269345935768     1.007825032230
         H            0.224000284054     0.892428939695     1.683496935768     1.007825032230
         H            0.224003284054    -0.904468060305     1.683493935768     1.007825032230
         H           -0.893359715946    -1.310924060305    -1.264447064232     1.007825032230
         H           -2.590764715946    -1.285350060305    -0.762288064232     1.007825032230
         H           -1.392486715946    -2.173755060305     0.195222935768     1.007825032230
         H           -1.392499715946     2.161716939695     0.195231935768     1.007825032230
         H           -0.893359715946     1.298896939695    -1.264441064232     1.007825032230
         H           -2.590766715946     1.273309939695    -0.762290064232     1.007825032230

  Basis Set: AUG-CC-PVTZ
    Blend: AUG-CC-PVTZ
  Basis Set: (AUG-CC-PVTZ AUX)
    Blend: AUG-CC-PVTZ-JKFIT
	 Reference Energy          =    -360.8690517280423933 [Eh]
	 Singles Energy            =      -0.0000000000000000 [Eh]
	 Same-Spin Energy          =      -0.3685586340046146 [Eh]
	 Opposite-Spin Energy      =      -1.1819522960939550 [Eh]
	 Correlation Energy        =      -1.5505109300985698 [Eh]
	 Total Energy              =    -362.4195626581409897 [Eh]

	 ================> DF-SCS-MP2 Energies <==================
	-----------------------------------------------------------
	 SCS Same-Spin Scale       =       0.3333333333333333 [-]
	 SCS Opposite-Spin Scale   =       1.2000000000000000 [-]
	 SCS Same-Spin Energy      =      -0.1228528780015382 [Eh]
	 SCS Opposite-Spin Energy  =      -1.4183427553127459 [Eh]
	 SCS Correlation Energy    =      -1.5411956333142840 [Eh]
	 SCS Total Energy          =    -362.4102473613566531 [Eh]
	-----------------------------------------------------------

  Dipole Moment: [D]
     X:    -3.0464      Y:     0.0410      Z:     2.1510     Total:     3.7295

*** Psi4 exiting successfully. Buy a developer a beer!
