                               Psi4 1.4a3.dev225

  ==> Input File <==

--------------------------------------------------------------------------
#psi4
#
memory 32 gb

molecule  {
0 1
  O        1.6269320     1.1045440    -0.3563700
  O        1.6269410    -1.1045380    -0.3563700
  N        1.2303420     0.0000010     0.0570950
  C       -1.2290370    -0.0000020     0.4263420
  C        0.1538230    -0.0000020     1.0857690
  C       -1.4714760    -1.2642140    -0.3967350
  C       -1.4714800     1.2642120    -0.3967320
  H       -1.9318800    -0.0000060     1.2712410
  H        0.3118450     0.8984460     1.6853920
  H        0.3118480    -0.8984510     1.6853890
  H       -0.8055150    -1.3049070    -1.2625520
  H       -2.4840598    -1.2790565    -0.7537434
  H       -1.3046420    -2.1677380     0.1971180
  H       -1.3046550     2.1677340     0.1971270
  H       -0.8055150     1.3049140    -1.2625460
  H       -2.5029220     1.2793270    -0.7603950
units angstrom
no_reorient  #important for SAPT in psi4, default
symmetry c1  #important for SAPT in psi4, default
}

set PROPERTIES_ORIGIN ["COM"]
properties('MP2/aug-cc-pvtz', properties = ['dipole'])
--------------------------------------------------------------------------

    Molecular point group: c1
  Charge       = 0
  Multiplicity = 1
  Basis Set: AUG-CC-PVTZ
    Blend: AUG-CC-PVTZ
  Basis Set: (AUG-CC-PVTZ AUX)
    Blend: AUG-CC-PVTZ-JKFIT

    Orbital Energies [Eh]
    ---------------------

    Doubly Occupied:

       1A    -20.605907     2A    -20.605857     3A    -15.845552
       4A    -11.305787     5A    -11.264435     6A    -11.228225
       7A    -11.225758     8A     -1.584064     9A     -1.384763
      10A     -1.143821    11A     -1.042120    12A     -0.949018
      13A     -0.881523    14A     -0.804363    15A     -0.738389
      16A     -0.728496    17A     -0.705323    18A     -0.638340
      19A     -0.629080    20A     -0.608406    21A     -0.557407
      22A     -0.546514    23A     -0.517163    24A     -0.500839
      25A     -0.500546    26A     -0.484373    27A     -0.474740
      28A     -0.448165

  @DF-RHF Final Energy:  -360.89942183245216

   => Energetics <=

    Nuclear Repulsion Energy =            328.5774631783623363
    One-Electron Energy =               -1143.0558204252138239
    Two-Electron Energy =                 453.5789354143993251
    Total Energy =                       -360.8994218324521626
  Basis Set: (AUG-CC-PVTZ AUX)
    Blend: AUG-CC-PVTZ-RI
    Molecular point group: c1

    Geometry (in Angstrom), charge = 0, multiplicity = 1:

       Center              X                  Y                   Z               Mass
    ------------   -----------------  -----------------  -----------------  -----------------
         O            1.525458749039     1.104541064653    -0.346937454468    15.994914619570
         O            1.525467749039    -1.104540935347    -0.346937454468    15.994914619570
         N            1.128868749039    -0.000001935347     0.066527545532    14.003074004430
         C           -1.330510250961    -0.000004935347     0.435774545532    12.000000000000
         C            0.052349749039    -0.000004935347     1.095201545532    12.000000000000
         C           -1.572949250961    -1.264216935347    -0.387302454468    12.000000000000
         C           -1.572953250961     1.264209064653    -0.387299454468    12.000000000000
         H           -2.033353250961    -0.000008935347     1.280673545532     1.007825032230
         H            0.210371749039     0.898443064653     1.694824545532     1.007825032230
         H            0.210374749039    -0.898453935347     1.694821545532     1.007825032230
         H           -0.906988250961    -1.304909935347    -1.253119454468     1.007825032230
         H           -2.585533050961    -1.279059435347    -0.744310854468     1.007825032230
         H           -1.406115250961    -2.167740935347     0.206550545532     1.007825032230
         H           -1.406128250961     2.167731064653     0.206559545532     1.007825032230
         H           -0.906988250961     1.304911064653    -1.253113454468     1.007825032230
         H           -2.604395250961     1.279324064653    -0.750962454468     1.007825032230

  Basis Set: AUG-CC-PVTZ
    Blend: AUG-CC-PVTZ
  Basis Set: (AUG-CC-PVTZ AUX)
    Blend: AUG-CC-PVTZ-JKFIT
	 Reference Energy          =    -360.8994218324521626 [Eh]
	 Singles Energy            =      -0.0000000000000000 [Eh]
	 Same-Spin Energy          =      -0.3689078118831897 [Eh]
	 Opposite-Spin Energy      =      -1.1811100612286827 [Eh]
	 Correlation Energy        =      -1.5500178731118723 [Eh]
	 Total Energy              =    -362.4494397055640320 [Eh]

	 ================> DF-SCS-MP2 Energies <==================
	-----------------------------------------------------------
	 SCS Same-Spin Scale       =       0.3333333333333333 [-]
	 SCS Opposite-Spin Scale   =       1.2000000000000000 [-]
	 SCS Same-Spin Energy      =      -0.1229692706277299 [Eh]
	 SCS Opposite-Spin Energy  =      -1.4173320734744193 [Eh]
	 SCS Correlation Energy    =      -1.5403013441021491 [Eh]
	 SCS Total Energy          =    -362.4397231765543097 [Eh]
	-----------------------------------------------------------

  Dipole Moment: [D]
     X:    -3.0024      Y:    -0.0033      Z:     2.1642     Total:     3.7011

*** Psi4 exiting successfully. Buy a developer a beer!
