                               Psi4 1.4a3.dev225

  ==> Input File <==

--------------------------------------------------------------------------
#psi4
#
memory 32 gb

molecule  {
0 1
  O        1.6269320     1.1045440    -0.3563700
  O        1.6269410    -1.1045380    -0.3563700
  N        1.2303420     0.0000010     0.0570950
  C       -1.2290370    -0.0000020     0.4263420
  C        0.1538230    -0.0000020     1.0857690
  C       -1.4714760    -1.2642140    -0.3967350
  C       -1.4714800     1.2642120    -0.3967320
  H       -1.9318800    -0.0000060     1.2712410
  H        0.3118450     0.8984460     1.6853920
  H        0.3118480    -0.8984510     1.6853890
  H       -0.8055150    -1.3049070    -1.2625520
  H       -2.5029200    -1.2793330    -0.7603930
  H       -1.2893922    -2.2503265     0.2514004
  H       -1.3046550     2.1677340     0.1971270
  H       -0.8055150     1.3049140    -1.2625460
  H       -2.5029220     1.2793270    -0.7603950
units angstrom
no_reorient  #important for SAPT in psi4, default
symmetry c1  #important for SAPT in psi4, default
}

set PROPERTIES_ORIGIN ["COM"]
properties('MP2/aug-cc-pvtz', properties = ['dipole'])
--------------------------------------------------------------------------

    Molecular point group: c1
  Charge       = 0
  Multiplicity = 1
  Basis Set: AUG-CC-PVTZ
    Blend: AUG-CC-PVTZ
  Basis Set: (AUG-CC-PVTZ AUX)
    Blend: AUG-CC-PVTZ-JKFIT

    Orbital Energies [Eh]
    ---------------------

    Doubly Occupied:

       1A    -20.606078     2A    -20.606018     3A    -15.845717
       4A    -11.306023     5A    -11.265754     6A    -11.240183
       7A    -11.229332     8A     -1.584247     9A     -1.384928
      10A     -1.143841    11A     -1.041253    12A     -0.943006
      13A     -0.880659    14A     -0.803274    15A     -0.737949
      16A     -0.728627    17A     -0.705316    18A     -0.638262
      19A     -0.628211    20A     -0.601169    21A     -0.556991
      22A     -0.542144    23A     -0.517315    24A     -0.501543
      25A     -0.495374    26A     -0.482063    27A     -0.475126
      28A     -0.448340

  @DF-RHF Final Energy:  -360.89290113191919

   => Energetics <=

    Nuclear Repulsion Energy =            328.0725802509379037
    One-Electron Energy =               -1142.0534804647338660
    Two-Electron Energy =                 453.0879990818767737
    Total Energy =                       -360.8929011319191886
  Basis Set: (AUG-CC-PVTZ AUX)
    Blend: AUG-CC-PVTZ-RI
    Molecular point group: c1

    Geometry (in Angstrom), charge = 0, multiplicity = 1:

       Center              X                  Y                   Z               Mass
    ------------   -----------------  -----------------  -----------------  -----------------
         O            1.525494054046     1.105351376356    -0.347403241173    15.994914619570
         O            1.525503054046    -1.103730623644    -0.347403241173    15.994914619570
         N            1.128904054046     0.000808376356     0.066061758827    14.003074004430
         C           -1.330474945954     0.000805376356     0.435308758827    12.000000000000
         C            0.052385054046     0.000805376356     1.094735758827    12.000000000000
         C           -1.572913945954    -1.263406623644    -0.387768241173    12.000000000000
         C           -1.572917945954     1.265019376356    -0.387765241173    12.000000000000
         H           -2.033317945954     0.000801376356     1.280207758827     1.007825032230
         H            0.210407054046     0.899253376356     1.694358758827     1.007825032230
         H            0.210410054046    -0.897643623644     1.694355758827     1.007825032230
         H           -0.906952945954    -1.304099623644    -1.253585241173     1.007825032230
         H           -2.604357945954    -1.278525623644    -0.751426241173     1.007825032230
         H           -1.390830145954    -2.249519123644     0.260367158827     1.007825032230
         H           -1.406092945954     2.168541376356     0.206093758827     1.007825032230
         H           -0.906952945954     1.305721376356    -1.253579241173     1.007825032230
         H           -2.604359945954     1.280134376356    -0.751428241173     1.007825032230

  Basis Set: AUG-CC-PVTZ
    Blend: AUG-CC-PVTZ
  Basis Set: (AUG-CC-PVTZ AUX)
    Blend: AUG-CC-PVTZ-JKFIT
	 Reference Energy          =    -360.8929011319191886 [Eh]
	 Singles Energy            =      -0.0000000000000000 [Eh]
	 Same-Spin Energy          =      -0.3689071568061462 [Eh]
	 Opposite-Spin Energy      =      -1.1819608940296809 [Eh]
	 Correlation Energy        =      -1.5508680508358270 [Eh]
	 Total Energy              =    -362.4437691827550339 [Eh]

	 ================> DF-SCS-MP2 Energies <==================
	-----------------------------------------------------------
	 SCS Same-Spin Scale       =       0.3333333333333333 [-]
	 SCS Opposite-Spin Scale   =       1.2000000000000000 [-]
	 SCS Same-Spin Energy      =      -0.1229690522687154 [Eh]
	 SCS Opposite-Spin Energy  =      -1.4183530728356171 [Eh]
	 SCS Correlation Energy    =      -1.5413221251043325 [Eh]
	 SCS Total Energy          =    -362.4342232570235183 [Eh]
	-----------------------------------------------------------

  Dipole Moment: [D]
     X:    -2.9948      Y:     0.0640      Z:     2.1433     Total:     3.6833

*** Psi4 exiting successfully. Buy a developer a beer!
