                               Psi4 1.4a3.dev225

  ==> Input File <==

--------------------------------------------------------------------------
#psi4
#
memory 32 gb

molecule  {
0 1
  O        1.6269320     1.1045440    -0.3563700
  O        1.6269410    -1.1045380    -0.3563700
  N        1.2303420     0.0000010     0.0570950
  C       -1.2290370    -0.0000020     0.4263420
  C        0.1538230    -0.0000020     1.0857690
  C       -1.4714760    -1.2642140    -0.3967350
  C       -1.4714800     1.2642120    -0.3967320
  H       -1.9318800    -0.0000060     1.2712410
  H        0.3118450     0.8984460     1.6853920
  H        0.3118480    -0.8984510     1.6853890
  H       -0.8359779    -1.3030456    -1.2229471
  H       -2.5029200    -1.2793330    -0.7603930
  H       -1.3046420    -2.1677380     0.1971180
  H       -1.3046550     2.1677340     0.1971270
  H       -0.8055150     1.3049140    -1.2625460
  H       -2.5029220     1.2793270    -0.7603950
units angstrom
no_reorient  #important for SAPT in psi4, default
symmetry c1  #important for SAPT in psi4, default
}

set PROPERTIES_ORIGIN ["COM"]
properties('MP2/aug-cc-pvtz', properties = ['dipole'])
--------------------------------------------------------------------------

    Molecular point group: c1
  Charge       = 0
  Multiplicity = 1
  Basis Set: AUG-CC-PVTZ
    Blend: AUG-CC-PVTZ
  Basis Set: (AUG-CC-PVTZ AUX)
    Blend: AUG-CC-PVTZ-JKFIT

    Orbital Energies [Eh]
    ---------------------

    Doubly Occupied:

       1A    -20.606169     2A    -20.606112     3A    -15.845774
       4A    -11.305882     5A    -11.264149     6A    -11.228222
       7A    -11.222325     8A     -1.584313     9A     -1.385009
      10A     -1.144106    11A     -1.042655    12A     -0.950901
      13A     -0.882148    14A     -0.805356    15A     -0.738334
      16A     -0.728714    17A     -0.706115    18A     -0.638437
      19A     -0.630093    20A     -0.607801    21A     -0.563115
      22A     -0.544446    23A     -0.518398    24A     -0.501122
      25A     -0.500306    26A     -0.484465    27A     -0.475416
      28A     -0.448608

  @DF-RHF Final Energy:  -360.89846688911865

   => Energetics <=

    Nuclear Repulsion Energy =            328.6735744804952333
    One-Electron Energy =               -1143.2271040284456376
    Two-Electron Energy =                 453.6550626588316959
    Total Energy =                       -360.8984668891186516
  Basis Set: (AUG-CC-PVTZ AUX)
    Blend: AUG-CC-PVTZ-RI
    Molecular point group: c1

    Geometry (in Angstrom), charge = 0, multiplicity = 1:

       Center              X                  Y                   Z               Mass
    ------------   -----------------  -----------------  -----------------  -----------------
         O            1.525941064675     1.104525566397    -0.347259714352    15.994914619570
         O            1.525950064675    -1.104556433603    -0.347259714352    15.994914619570
         N            1.129351064675    -0.000017433603     0.066205285648    14.003074004430
         C           -1.330027935325    -0.000020433603     0.435452285648    12.000000000000
         C            0.052832064675    -0.000020433603     1.094879285648    12.000000000000
         C           -1.572466935325    -1.264232433603    -0.387624714352    12.000000000000
         C           -1.572470935325     1.264193566397    -0.387621714352    12.000000000000
         H           -2.032870935325    -0.000024433603     1.280351285648     1.007825032230
         H            0.210854064675     0.898427566397     1.694502285648     1.007825032230
         H            0.210857064675    -0.898469433603     1.694499285648     1.007825032230
         H           -0.936968835325    -1.303064033603    -1.213836814352     1.007825032230
         H           -2.603910935325    -1.279351433603    -0.751282714352     1.007825032230
         H           -1.405632935325    -2.167756433603     0.206228285648     1.007825032230
         H           -1.405645935325     2.167715566397     0.206237285648     1.007825032230
         H           -0.906505935325     1.304895566397    -1.253435714352     1.007825032230
         H           -2.603912935325     1.279308566397    -0.751284714352     1.007825032230

  Basis Set: AUG-CC-PVTZ
    Blend: AUG-CC-PVTZ
  Basis Set: (AUG-CC-PVTZ AUX)
    Blend: AUG-CC-PVTZ-JKFIT
	 Reference Energy          =    -360.8984668891186516 [Eh]
	 Singles Energy            =      -0.0000000000000000 [Eh]
	 Same-Spin Energy          =      -0.3688477173128912 [Eh]
	 Opposite-Spin Energy      =      -1.1808925042890877 [Eh]
	 Correlation Energy        =      -1.5497402216019789 [Eh]
	 Total Energy              =    -362.4482071107206025 [Eh]

	 ================> DF-SCS-MP2 Energies <==================
	-----------------------------------------------------------
	 SCS Same-Spin Scale       =       0.3333333333333333 [-]
	 SCS Opposite-Spin Scale   =       1.2000000000000000 [-]
	 SCS Same-Spin Energy      =      -0.1229492391042971 [Eh]
	 SCS Opposite-Spin Energy  =      -1.4170710051469051 [Eh]
	 SCS Correlation Energy    =      -1.5400202442512021 [Eh]
	 SCS Total Energy          =    -362.4384871333698470 [Eh]
	-----------------------------------------------------------

  Dipole Moment: [D]
     X:    -2.9833      Y:    -0.0013      Z:     2.1522     Total:     3.6786

*** Psi4 exiting successfully. Buy a developer a beer!
