                               Psi4 1.4a3.dev225

  ==> Input File <==

--------------------------------------------------------------------------
#psi4
#
memory 32 gb

molecule  {
0 1
  O        1.6269320     1.1045440    -0.3563700
  O        1.6269410    -1.1045380    -0.3563700
  N        1.2303420     0.0000010     0.0570950
  C       -1.2290370    -0.0000020     0.4263420
  C        0.1538230    -0.0000020     1.0857690
  C       -1.4714760    -1.2642140    -0.3967350
  C       -1.4714800     1.2642120    -0.3967320
  H       -1.9318800    -0.0000060     1.2712410
  H        0.3118450     0.8984460     1.6853920
  H        0.3118480    -0.8984510     1.6853890
  H       -0.7799740    -1.3718738    -1.2363977
  H       -2.5029200    -1.2793330    -0.7603930
  H       -1.3046420    -2.1677380     0.1971180
  H       -1.3046550     2.1677340     0.1971270
  H       -0.8055150     1.3049140    -1.2625460
  H       -2.5029220     1.2793270    -0.7603950
units angstrom
no_reorient  #important for SAPT in psi4, default
symmetry c1  #important for SAPT in psi4, default
}

set PROPERTIES_ORIGIN ["COM"]
properties('MP2/aug-cc-pvtz', properties = ['dipole'])
--------------------------------------------------------------------------

    Molecular point group: c1
  Charge       = 0
  Multiplicity = 1
  Basis Set: AUG-CC-PVTZ
    Blend: AUG-CC-PVTZ
  Basis Set: (AUG-CC-PVTZ AUX)
    Blend: AUG-CC-PVTZ-JKFIT

    Orbital Energies [Eh]
    ---------------------

    Doubly Occupied:

       1A    -20.606223     2A    -20.606133     3A    -15.845873
       4A    -11.306095     5A    -11.265153     6A    -11.228109
       7A    -11.227874     8A     -1.584360     9A     -1.385078
      10A     -1.143843    11A     -1.041609    12A     -0.948240
      13A     -0.881248    14A     -0.804660    15A     -0.738439
      16A     -0.728777    17A     -0.706055    18A     -0.637935
      19A     -0.627507    20A     -0.608426    21A     -0.557100
      22A     -0.545071    23A     -0.517192    24A     -0.500940
      25A     -0.498686    26A     -0.484916    27A     -0.475073
      28A     -0.448371

  @DF-RHF Final Energy:  -360.89887699798987

   => Energetics <=

    Nuclear Repulsion Energy =            328.4456626317236783
    One-Electron Energy =               -1142.7911082077432638
    Two-Electron Energy =                 453.4465685780296553
    Total Energy =                       -360.8988769979898734
  Basis Set: (AUG-CC-PVTZ AUX)
    Blend: AUG-CC-PVTZ-RI
    Molecular point group: c1

    Geometry (in Angstrom), charge = 0, multiplicity = 1:

       Center              X                  Y                   Z               Mass
    ------------   -----------------  -----------------  -----------------  -----------------
         O            1.525393419522     1.105198616490    -0.347128185014    15.994914619570
         O            1.525402419522    -1.103883383510    -0.347128185014    15.994914619570
         N            1.128803419522     0.000655616490     0.066336814986    14.003074004430
         C           -1.330575580478     0.000652616490     0.435583814986    12.000000000000
         C            0.052284419522     0.000652616490     1.095010814986    12.000000000000
         C           -1.573014580478    -1.263559383510    -0.387493185014    12.000000000000
         C           -1.573018580478     1.264866616490    -0.387490185014    12.000000000000
         H           -2.033418580478     0.000648616490     1.280482814986     1.007825032230
         H            0.210306419522     0.899100616490     1.694633814986     1.007825032230
         H            0.210309419522    -0.897796383510     1.694630814986     1.007825032230
         H           -0.881512580478    -1.371219183510    -1.227155885014     1.007825032230
         H           -2.604458580478    -1.278678383510    -0.751151185014     1.007825032230
         H           -1.406180580478    -2.167083383510     0.206359814986     1.007825032230
         H           -1.406193580478     2.168388616490     0.206368814986     1.007825032230
         H           -0.907053580478     1.305568616490    -1.253304185014     1.007825032230
         H           -2.604460580478     1.279981616490    -0.751153185014     1.007825032230

  Basis Set: AUG-CC-PVTZ
    Blend: AUG-CC-PVTZ
  Basis Set: (AUG-CC-PVTZ AUX)
    Blend: AUG-CC-PVTZ-JKFIT
	 Reference Energy          =    -360.8988769979898734 [Eh]
	 Singles Energy            =      -0.0000000000000000 [Eh]
	 Same-Spin Energy          =      -0.3689116620572541 [Eh]
	 Opposite-Spin Energy      =      -1.1812039761299147 [Eh]
	 Correlation Energy        =      -1.5501156381871688 [Eh]
	 Total Energy              =    -362.4489926361770245 [Eh]

	 ================> DF-SCS-MP2 Energies <==================
	-----------------------------------------------------------
	 SCS Same-Spin Scale       =       0.3333333333333333 [-]
	 SCS Opposite-Spin Scale   =       1.2000000000000000 [-]
	 SCS Same-Spin Energy      =      -0.1229705540190847 [Eh]
	 SCS Opposite-Spin Energy  =      -1.4174447713558975 [Eh]
	 SCS Correlation Energy    =      -1.5404153253749822 [Eh]
	 SCS Total Energy          =    -362.4392923233648389 [Eh]
	-----------------------------------------------------------

  Dipole Moment: [D]
     X:    -2.9711      Y:    -0.0104      Z:     2.1734     Total:     3.6812

*** Psi4 exiting successfully. Buy a developer a beer!
