                               Psi4 1.4a3.dev225

  ==> Input File <==

--------------------------------------------------------------------------
#psi4
#
memory 32 gb

molecule  {
0 1
  O        1.6269320     1.1045440    -0.3563700
  O        1.6269410    -1.1045380    -0.3563700
  N        1.2303420     0.0000010     0.0570950
  C       -1.2290370    -0.0000020     0.4263420
  C        0.1538230    -0.0000020     1.0857690
  C       -1.4714760    -1.2642140    -0.3967350
  C       -1.4714800     1.2642120    -0.3967320
  H       -1.9318800    -0.0000060     1.2712410
  H        0.3407957     1.0630478     1.7952470
  H        0.3118480    -0.8984510     1.6853890
  H       -0.8055150    -1.3049070    -1.2625520
  H       -2.5029200    -1.2793330    -0.7603930
  H       -1.3046420    -2.1677380     0.1971180
  H       -1.3046550     2.1677340     0.1971270
  H       -0.8055150     1.3049140    -1.2625460
  H       -2.5029220     1.2793270    -0.7603950
units angstrom
no_reorient  #important for SAPT in psi4, default
symmetry c1  #important for SAPT in psi4, default
}

set PROPERTIES_ORIGIN ["COM"]
properties('MP2/aug-cc-pvtz', properties = ['dipole'])
--------------------------------------------------------------------------

    Molecular point group: c1
  Charge       = 0
  Multiplicity = 1
  Basis Set: AUG-CC-PVTZ
    Blend: AUG-CC-PVTZ
  Basis Set: (AUG-CC-PVTZ AUX)
    Blend: AUG-CC-PVTZ-JKFIT

    Orbital Energies [Eh]
    ---------------------

    Doubly Occupied:

       1A    -20.607249     2A    -20.606244     3A    -15.847353
       4A    -11.325657     5A    -11.265820     6A    -11.229565
       7A    -11.228031     8A     -1.584907     9A     -1.385517
      10A     -1.139972    11A     -1.039589    12A     -0.948250
      13A     -0.876818    14A     -0.802753    15A     -0.734820
      16A     -0.723991    17A     -0.702618    18A     -0.629636
      19A     -0.622228    20A     -0.601911    21A     -0.556603
      22A     -0.537662    23A     -0.516732    24A     -0.501528
      25A     -0.499197    26A     -0.479021    27A     -0.475105
      28A     -0.448579

  @DF-RHF Final Energy:  -360.87774353919190

   => Energetics <=

    Nuclear Repulsion Energy =            327.5618773009160236
    One-Electron Energy =               -1141.0445294131782248
    Two-Electron Energy =                 452.6049085730703609
    Total Energy =                       -360.8777435391918971
  Basis Set: (AUG-CC-PVTZ AUX)
    Blend: AUG-CC-PVTZ-RI
    Molecular point group: c1

    Geometry (in Angstrom), charge = 0, multiplicity = 1:

       Center              X                  Y                   Z               Mass
    ------------   -----------------  -----------------  -----------------  -----------------
         O            1.525360077100     1.102934177382    -0.347946668774    15.994914619570
         O            1.525369077100    -1.106147822618    -0.347946668774    15.994914619570
         N            1.128770077100    -0.001608822618     0.065518331226    14.003074004430
         C           -1.330608922900    -0.001611822618     0.434765331226    12.000000000000
         C            0.052251077100    -0.001611822618     1.094192331226    12.000000000000
         C           -1.573047922900    -1.265823822618    -0.388311668774    12.000000000000
         C           -1.573051922900     1.262602177382    -0.388308668774    12.000000000000
         H           -2.033451922900    -0.001615822618     1.279664331226     1.007825032230
         H            0.239223777100     1.061437977382     1.803670331226     1.007825032230
         H            0.210276077100    -0.900060822618     1.693812331226     1.007825032230
         H           -0.907086922900    -1.306516822618    -1.254128668774     1.007825032230
         H           -2.604491922900    -1.280942822618    -0.751969668774     1.007825032230
         H           -1.406213922900    -2.169347822618     0.205541331226     1.007825032230
         H           -1.406226922900     2.166124177382     0.205550331226     1.007825032230
         H           -0.907086922900     1.303304177382    -1.254122668774     1.007825032230
         H           -2.604493922900     1.277717177382    -0.751971668774     1.007825032230

  Basis Set: AUG-CC-PVTZ
    Blend: AUG-CC-PVTZ
  Basis Set: (AUG-CC-PVTZ AUX)
    Blend: AUG-CC-PVTZ-JKFIT
	 Reference Energy          =    -360.8777435391918971 [Eh]
	 Singles Energy            =      -0.0000000000000000 [Eh]
	 Same-Spin Energy          =      -0.3694810098035597 [Eh]
	 Opposite-Spin Energy      =      -1.1835579149843887 [Eh]
	 Correlation Energy        =      -1.5530389247879484 [Eh]
	 Total Energy              =    -362.4307824639798241 [Eh]

	 ================> DF-SCS-MP2 Energies <==================
	-----------------------------------------------------------
	 SCS Same-Spin Scale       =       0.3333333333333333 [-]
	 SCS Opposite-Spin Scale   =       1.2000000000000000 [-]
	 SCS Same-Spin Energy      =      -0.1231603366011866 [Eh]
	 SCS Opposite-Spin Energy  =      -1.4202694979812664 [Eh]
	 SCS Correlation Energy    =      -1.5434298345824531 [Eh]
	 SCS Total Energy          =    -362.4211733737743657 [Eh]
	-----------------------------------------------------------

  Dipole Moment: [D]
     X:    -2.9947      Y:    -0.0327      Z:     2.0968     Total:     3.6560

*** Psi4 exiting successfully. Buy a developer a beer!
