                               Psi4 1.4a3.dev225

  ==> Input File <==

--------------------------------------------------------------------------
#psi4
#
memory 32 gb

molecule  {
0 1
  O        1.6269320     1.1045440    -0.3563700
  O        1.6269410    -1.1045380    -0.3563700
  N        1.2303420     0.0000010     0.0570950
  C       -1.2290370    -0.0000020     0.4263420
  C        0.1538230    -0.0000020     1.0857690
  C       -1.4714760    -1.2642140    -0.3967350
  C       -1.4714800     1.2642120    -0.3967320
  H       -1.9318800    -0.0000060     1.2712410
  H        0.3118450     0.8984460     1.6853920
  H        0.3118480    -0.8984510     1.6853890
  H       -0.7445892    -1.3086298    -1.3417618
  H       -2.5029200    -1.2793330    -0.7603930
  H       -1.3046420    -2.1677380     0.1971180
  H       -1.3046550     2.1677340     0.1971270
  H       -0.8055150     1.3049140    -1.2625460
  H       -2.5029220     1.2793270    -0.7603950
units angstrom
no_reorient  #important for SAPT in psi4, default
symmetry c1  #important for SAPT in psi4, default
}

set PROPERTIES_ORIGIN ["COM"]
properties('MP2/aug-cc-pvtz', properties = ['dipole'])
--------------------------------------------------------------------------

    Molecular point group: c1
  Charge       = 0
  Multiplicity = 1
  Basis Set: AUG-CC-PVTZ
    Blend: AUG-CC-PVTZ
  Basis Set: (AUG-CC-PVTZ AUX)
    Blend: AUG-CC-PVTZ-JKFIT

    Orbital Energies [Eh]
    ---------------------

    Doubly Occupied:

       1A    -20.605759     2A    -20.605696     3A    -15.845468
       4A    -11.306206     5A    -11.265724     6A    -11.239485
       7A    -11.228279     8A     -1.583930     9A     -1.384627
      10A     -1.143647    11A     -1.040687    12A     -0.943633
      13A     -0.879733    14A     -0.802164    15A     -0.738305
      16A     -0.728361    17A     -0.704387    18A     -0.637769
      19A     -0.626725    20A     -0.608633    21A     -0.548630
      22A     -0.544013    23A     -0.513187    24A     -0.501432
      25A     -0.498560    26A     -0.484630    27A     -0.472659
      28A     -0.447215

  @DF-RHF Final Energy:  -360.89269621354197

   => Energetics <=

    Nuclear Repulsion Energy =            328.1399955640670214
    One-Electron Energy =               -1142.2062963242092337
    Two-Electron Energy =                 453.1736045466002452
    Total Energy =                       -360.8926962135419672
  Basis Set: (AUG-CC-PVTZ AUX)
    Blend: AUG-CC-PVTZ-RI
    Molecular point group: c1

    Geometry (in Angstrom), charge = 0, multiplicity = 1:

       Center              X                  Y                   Z               Mass
    ------------   -----------------  -----------------  -----------------  -----------------
         O            1.525047402295     1.104580172595    -0.346097861435    15.994914619570
         O            1.525056402295    -1.104501827405    -0.346097861435    15.994914619570
         N            1.128457402295     0.000037172595     0.067367138565    14.003074004430
         C           -1.330921597705     0.000034172595     0.436614138565    12.000000000000
         C            0.051938402295     0.000034172595     1.096041138565    12.000000000000
         C           -1.573360597705    -1.264177827405    -0.386462861435    12.000000000000
         C           -1.573364597705     1.264248172595    -0.386459861435    12.000000000000
         H           -2.033764597705     0.000030172595     1.281513138565     1.007825032230
         H            0.209960402295     0.898482172595     1.695664138565     1.007825032230
         H            0.209963402295    -0.898414827405     1.695661138565     1.007825032230
         H           -0.846473797705    -1.308593627405    -1.331489661435     1.007825032230
         H           -2.604804597705    -1.279296827405    -0.750120861435     1.007825032230
         H           -1.406526597705    -2.167701827405     0.207390138565     1.007825032230
         H           -1.406539597705     2.167770172595     0.207399138565     1.007825032230
         H           -0.907399597705     1.304950172595    -1.252273861435     1.007825032230
         H           -2.604806597705     1.279363172595    -0.750122861435     1.007825032230

  Basis Set: AUG-CC-PVTZ
    Blend: AUG-CC-PVTZ
  Basis Set: (AUG-CC-PVTZ AUX)
    Blend: AUG-CC-PVTZ-JKFIT
	 Reference Energy          =    -360.8926962135419672 [Eh]
	 Singles Energy            =      -0.0000000000000000 [Eh]
	 Same-Spin Energy          =      -0.3690471665429611 [Eh]
	 Opposite-Spin Energy      =      -1.1821059917804260 [Eh]
	 Correlation Energy        =      -1.5511531583233871 [Eh]
	 Total Energy              =    -362.4438493718653262 [Eh]

	 ================> DF-SCS-MP2 Energies <==================
	-----------------------------------------------------------
	 SCS Same-Spin Scale       =       0.3333333333333333 [-]
	 SCS Opposite-Spin Scale   =       1.2000000000000000 [-]
	 SCS Same-Spin Energy      =      -0.1230157221809870 [Eh]
	 SCS Opposite-Spin Energy  =      -1.4185271901365111 [Eh]
	 SCS Correlation Energy    =      -1.5415429123174982 [Eh]
	 SCS Total Energy          =    -362.4342391258594489 [Eh]
	-----------------------------------------------------------

  Dipole Moment: [D]
     X:    -3.0083      Y:     0.0042      Z:     2.2107     Total:     3.7333

*** Psi4 exiting successfully. Buy a developer a beer!
