                               Psi4 1.4a3.dev225

  ==> Input File <==

--------------------------------------------------------------------------
#psi4
#
memory 32 gb

molecule  {
0 1
  O        1.6269320     1.1045440    -0.3563700
  O        1.6269410    -1.1045380    -0.3563700
  N        1.2303420     0.0000010     0.0570950
  C       -1.2290370    -0.0000020     0.4263420
  C        0.1899725    -0.0000019     1.0512261
  C       -1.4714760    -1.2642140    -0.3967350
  C       -1.4714800     1.2642120    -0.3967320
  H       -1.9318800    -0.0000060     1.2712410
  H        0.3118450     0.8984460     1.6853920
  H        0.3118480    -0.8984510     1.6853890
  H       -0.8055150    -1.3049070    -1.2625520
  H       -2.5029200    -1.2793330    -0.7603930
  H       -1.3046420    -2.1677380     0.1971180
  H       -1.3046550     2.1677340     0.1971270
  H       -0.8055150     1.3049140    -1.2625460
  H       -2.5029220     1.2793270    -0.7603950
units angstrom
no_reorient  #important for SAPT in psi4, default
symmetry c1  #important for SAPT in psi4, default
}

set PROPERTIES_ORIGIN ["COM"]
properties('MP2/aug-cc-pvtz', properties = ['dipole'])
--------------------------------------------------------------------------

    Molecular point group: c1
  Charge       = 0
  Multiplicity = 1
  Basis Set: AUG-CC-PVTZ
    Blend: AUG-CC-PVTZ
  Basis Set: (AUG-CC-PVTZ AUX)
    Blend: AUG-CC-PVTZ-JKFIT

    Orbital Energies [Eh]
    ---------------------

    Doubly Occupied:

       1A    -20.607465     2A    -20.607415     3A    -15.848765
       4A    -11.304026     5A    -11.266295     6A    -11.227778
       7A    -11.227762     8A     -1.589775     9A     -1.387753
      10A     -1.147824    11A     -1.050369    12A     -0.947589
      13A     -0.879688    14A     -0.804388    15A     -0.742289
      16A     -0.732064    17A     -0.709217    18A     -0.630296
      19A     -0.629109    20A     -0.604986    21A     -0.557249
      22A     -0.542567    23A     -0.518223    24A     -0.501510
      25A     -0.493717    26A     -0.483358    27A     -0.481579
      28A     -0.449715

  @DF-RHF Final Energy:  -360.89697320596622

   => Energetics <=

    Nuclear Repulsion Energy =            329.1453087113730476
    One-Electron Energy =               -1144.1390233120471294
    Two-Electron Energy =                 454.0967413947079194
    Total Energy =                       -360.8969732059662192
  Basis Set: (AUG-CC-PVTZ AUX)
    Blend: AUG-CC-PVTZ-RI
    Molecular point group: c1

    Geometry (in Angstrom), charge = 0, multiplicity = 1:

       Center              X                  Y                   Z               Mass
    ------------   -----------------  -----------------  -----------------  -----------------
         O            1.521434172847     1.104543756819    -0.342850487364    15.994914619570
         O            1.521443172847    -1.104538243181    -0.342850487364    15.994914619570
         N            1.124844172847     0.000000756819     0.070614512636    14.003074004430
         C           -1.334534827153    -0.000002243181     0.439861512636    12.000000000000
         C            0.084474672847    -0.000002143181     1.064745612636    12.000000000000
         C           -1.576973827153    -1.264214243181    -0.383215487364    12.000000000000
         C           -1.576977827153     1.264211756819    -0.383212487364    12.000000000000
         H           -2.037377827153    -0.000006243181     1.284760512636     1.007825032230
         H            0.206347172847     0.898445756819     1.698911512636     1.007825032230
         H            0.206350172847    -0.898451243181     1.698908512636     1.007825032230
         H           -0.911012827153    -1.304907243181    -1.249032487364     1.007825032230
         H           -2.608417827153    -1.279333243181    -0.746873487364     1.007825032230
         H           -1.410139827153    -2.167738243181     0.210637512636     1.007825032230
         H           -1.410152827153     2.167733756819     0.210646512636     1.007825032230
         H           -0.911012827153     1.304913756819    -1.249026487364     1.007825032230
         H           -2.608419827153     1.279326756819    -0.746875487364     1.007825032230

  Basis Set: AUG-CC-PVTZ
    Blend: AUG-CC-PVTZ
  Basis Set: (AUG-CC-PVTZ AUX)
    Blend: AUG-CC-PVTZ-JKFIT
	 Reference Energy          =    -360.8969732059662192 [Eh]
	 Singles Energy            =      -0.0000000000000000 [Eh]
	 Same-Spin Energy          =      -0.3692223283503248 [Eh]
	 Opposite-Spin Energy      =      -1.1814652989222887 [Eh]
	 Correlation Energy        =      -1.5506876272726136 [Eh]
	 Total Energy              =    -362.4476608332388423 [Eh]

	 ================> DF-SCS-MP2 Energies <==================
	-----------------------------------------------------------
	 SCS Same-Spin Scale       =       0.3333333333333333 [-]
	 SCS Opposite-Spin Scale   =       1.2000000000000000 [-]
	 SCS Same-Spin Energy      =      -0.1230741094501083 [Eh]
	 SCS Opposite-Spin Energy  =      -1.4177583587067464 [Eh]
	 SCS Correlation Energy    =      -1.5408324681568546 [Eh]
	 SCS Total Energy          =    -362.4378056741230694 [Eh]
	-----------------------------------------------------------

  Dipole Moment: [D]
     X:    -2.9752      Y:    -0.0000      Z:     2.1493     Total:     3.6704

*** Psi4 exiting successfully. Buy a developer a beer!
