                               Psi4 1.4a3.dev225

  ==> Input File <==

--------------------------------------------------------------------------
#psi4
#
memory 32 gb

molecule  {
0 1
  O        1.6269320     1.1045440    -0.3563700
  O        1.6409769    -1.0943829    -0.3694650
  N        1.2303420     0.0000010     0.0570950
  C       -1.2290370    -0.0000020     0.4263420
  C        0.1538230    -0.0000020     1.0857690
  C       -1.4714760    -1.2642140    -0.3967350
  C       -1.4714800     1.2642120    -0.3967320
  H       -1.9318800    -0.0000060     1.2712410
  H        0.3118450     0.8984460     1.6853920
  H        0.3118480    -0.8984510     1.6853890
  H       -0.8055150    -1.3049070    -1.2625520
  H       -2.5029200    -1.2793330    -0.7603930
  H       -1.3046420    -2.1677380     0.1971180
  H       -1.3046550     2.1677340     0.1971270
  H       -0.8055150     1.3049140    -1.2625460
  H       -2.5029220     1.2793270    -0.7603950
units angstrom
no_reorient  #important for SAPT in psi4, default
symmetry c1  #important for SAPT in psi4, default
}

set PROPERTIES_ORIGIN ["COM"]
properties('MP2/aug-cc-pvtz', properties = ['dipole'])
--------------------------------------------------------------------------

    Molecular point group: c1
  Charge       = 0
  Multiplicity = 1
  Basis Set: AUG-CC-PVTZ
    Blend: AUG-CC-PVTZ
  Basis Set: (AUG-CC-PVTZ AUX)
    Blend: AUG-CC-PVTZ-JKFIT

    Orbital Energies [Eh]
    ---------------------

    Doubly Occupied:

       1A    -20.605227     2A    -20.604729     3A    -15.845268
       4A    -11.306960     5A    -11.265035     6A    -11.228547
       7A    -11.228403     8A     -1.584184     9A     -1.382781
      10A     -1.144702    11A     -1.042441    12A     -0.948206
      13A     -0.881347    14A     -0.803888    15A     -0.738341
      16A     -0.727892    17A     -0.705413    18A     -0.638095
      19A     -0.629043    20A     -0.608341    21A     -0.557471
      22A     -0.544792    23A     -0.517439    24A     -0.500618
      25A     -0.500378    26A     -0.483869    27A     -0.475495
      28A     -0.447140

  @DF-RHF Final Energy:  -360.89948985716211

   => Energetics <=

    Nuclear Repulsion Energy =            328.3825851730260297
    One-Electron Energy =               -1142.6720586600370098
    Two-Electron Energy =                 453.3899836298489276
    Total Energy =                       -360.8994898571621093
  Basis Set: (AUG-CC-PVTZ AUX)
    Blend: AUG-CC-PVTZ-RI
    Molecular point group: c1

    Geometry (in Angstrom), charge = 0, multiplicity = 1:

       Center              X                  Y                   Z               Mass
    ------------   -----------------  -----------------  -----------------  -----------------
         O            1.523464875531     1.102967747585    -0.344840151350    15.994914619570
         O            1.537509775531    -1.095959152415    -0.357935151350    15.994914619570
         N            1.126874875531    -0.001575252415     0.068624848650    14.003074004430
         C           -1.332504124469    -0.001578252415     0.437871848650    12.000000000000
         C            0.050355875531    -0.001578252415     1.097298848650    12.000000000000
         C           -1.574943124469    -1.265790252415    -0.385205151350    12.000000000000
         C           -1.574947124469     1.262635747585    -0.385202151350    12.000000000000
         H           -2.035347124469    -0.001582252415     1.282770848650     1.007825032230
         H            0.208377875531     0.896869747585     1.696921848650     1.007825032230
         H            0.208380875531    -0.900027252415     1.696918848650     1.007825032230
         H           -0.908982124469    -1.306483252415    -1.251022151350     1.007825032230
         H           -2.606387124469    -1.280909252415    -0.748863151350     1.007825032230
         H           -1.408109124469    -2.169314252415     0.208647848650     1.007825032230
         H           -1.408122124469     2.166157747585     0.208656848650     1.007825032230
         H           -0.908982124469     1.303337747585    -1.251016151350     1.007825032230
         H           -2.606389124469     1.277750747585    -0.748865151350     1.007825032230

  Basis Set: AUG-CC-PVTZ
    Blend: AUG-CC-PVTZ
  Basis Set: (AUG-CC-PVTZ AUX)
    Blend: AUG-CC-PVTZ-JKFIT
	 Reference Energy          =    -360.8994898571621093 [Eh]
	 Singles Energy            =      -0.0000000000000000 [Eh]
	 Same-Spin Energy          =      -0.3688406369174976 [Eh]
	 Opposite-Spin Energy      =      -1.1811330423766757 [Eh]
	 Correlation Energy        =      -1.5499736792941734 [Eh]
	 Total Energy              =    -362.4494635364562782 [Eh]

	 ================> DF-SCS-MP2 Energies <==================
	-----------------------------------------------------------
	 SCS Same-Spin Scale       =       0.3333333333333333 [-]
	 SCS Opposite-Spin Scale   =       1.2000000000000000 [-]
	 SCS Same-Spin Energy      =      -0.1229468789724992 [Eh]
	 SCS Opposite-Spin Energy  =      -1.4173596508520108 [Eh]
	 SCS Correlation Energy    =      -1.5403065298245100 [Eh]
	 SCS Total Energy          =    -362.4397963869866430 [Eh]
	-----------------------------------------------------------

  Dipole Moment: [D]
     X:    -3.0262      Y:    -0.0110      Z:     2.1948     Total:     3.7383

*** Psi4 exiting successfully. Buy a developer a beer!
