                               Psi4 1.4a3.dev225

  ==> Input File <==

--------------------------------------------------------------------------
#psi4
#
memory 32 gb

molecule  {
0 1
  O        1.6269320     1.1045440    -0.3563700
  O        1.6269410    -1.1045380    -0.3563700
  N        1.2303420     0.0000010     0.0570950
  C       -1.2290370    -0.0000020     0.4263420
  C        0.1538230    -0.0000020     1.0857690
  C       -1.4714760    -1.2642140    -0.3967350
  C       -1.4714800     1.2642120    -0.3967320
  H       -1.9318800    -0.0000060     1.2712410
  H        0.3118450     0.8984460     1.6853920
  H        0.3118480    -0.8984510     1.6853890
  H       -0.8055150    -1.3049070    -1.2625520
  H       -2.5029200    -1.2793330    -0.7603930
  H       -1.3351416    -2.0025609     0.0885532
  H       -1.3046550     2.1677340     0.1971270
  H       -0.8055150     1.3049140    -1.2625460
  H       -2.5029220     1.2793270    -0.7603950
units angstrom
no_reorient  #important for SAPT in psi4, default
symmetry c1  #important for SAPT in psi4, default
}

set PROPERTIES_ORIGIN ["COM"]
properties('MP2/aug-cc-pvtz', properties = ['dipole'])
--------------------------------------------------------------------------

    Molecular point group: c1
  Charge       = 0
  Multiplicity = 1
  Basis Set: AUG-CC-PVTZ
    Blend: AUG-CC-PVTZ
  Basis Set: (AUG-CC-PVTZ AUX)
    Blend: AUG-CC-PVTZ-JKFIT

    Orbital Energies [Eh]
    ---------------------

    Doubly Occupied:

       1A    -20.606092     2A    -20.606017     3A    -15.845720
       4A    -11.306037     5A    -11.263115     6A    -11.226740
       7A    -11.203290     8A     -1.584215     9A     -1.384934
      10A     -1.145156    11A     -1.046151    12A     -0.965330
      13A     -0.883185    14A     -0.807398    15A     -0.739915
      16A     -0.728670    17A     -0.706616    18A     -0.640766
      19A     -0.637581    20A     -0.619532    21A     -0.560588
      22A     -0.547171    23A     -0.516865    24A     -0.507956
      25A     -0.499020    26A     -0.485702    27A     -0.474290
      28A     -0.448222

  @DF-RHF Final Energy:  -360.86541563441040

   => Energetics <=

    Nuclear Repulsion Energy =            329.4794717668065118
    One-Electron Energy =               -1144.7172269817494907
    Two-Electron Energy =                 454.3723395805326390
    Total Energy =                       -360.8654156344103967
  Basis Set: (AUG-CC-PVTZ AUX)
    Blend: AUG-CC-PVTZ-RI
    Molecular point group: c1

    Geometry (in Angstrom), charge = 0, multiplicity = 1:

       Center              X                  Y                   Z               Mass
    ------------   -----------------  -----------------  -----------------  -----------------
         O            1.525941423554     1.102928551697    -0.345810807793    15.994914619570
         O            1.525950423554    -1.106153448303    -0.345810807793    15.994914619570
         N            1.129351423554    -0.001614448303     0.067654192207    14.003074004430
         C           -1.330027576446    -0.001617448303     0.436901192207    12.000000000000
         C            0.052832423554    -0.001617448303     1.096328192207    12.000000000000
         C           -1.572466576446    -1.265829448303    -0.386175807793    12.000000000000
         C           -1.572470576446     1.262596551697    -0.386172807793    12.000000000000
         H           -2.032870576446    -0.001621448303     1.281800192207     1.007825032230
         H            0.210854423554     0.896830551697     1.695951192207     1.007825032230
         H            0.210857423554    -0.900066448303     1.695948192207     1.007825032230
         H           -0.906505576446    -1.306522448303    -1.251992807793     1.007825032230
         H           -2.603910576446    -1.280948448303    -0.749833807793     1.007825032230
         H           -1.436132176446    -2.004176348303     0.099112392207     1.007825032230
         H           -1.405645576446     2.166118551697     0.207686192207     1.007825032230
         H           -0.906505576446     1.303298551697    -1.251986807793     1.007825032230
         H           -2.603912576446     1.277711551697    -0.749835807793     1.007825032230

  Basis Set: AUG-CC-PVTZ
    Blend: AUG-CC-PVTZ
  Basis Set: (AUG-CC-PVTZ AUX)
    Blend: AUG-CC-PVTZ-JKFIT
	 Reference Energy          =    -360.8654156344103967 [Eh]
	 Singles Energy            =      -0.0000000000000000 [Eh]
	 Same-Spin Energy          =      -0.3690063583656309 [Eh]
	 Opposite-Spin Energy      =      -1.1806071130114084 [Eh]
	 Correlation Energy        =      -1.5496134713770393 [Eh]
	 Total Energy              =    -362.4150291057874256 [Eh]

	 ================> DF-SCS-MP2 Energies <==================
	-----------------------------------------------------------
	 SCS Same-Spin Scale       =       0.3333333333333333 [-]
	 SCS Opposite-Spin Scale   =       1.2000000000000000 [-]
	 SCS Same-Spin Energy      =      -0.1230021194552103 [Eh]
	 SCS Opposite-Spin Energy  =      -1.4167285356136901 [Eh]
	 SCS Correlation Energy    =      -1.5397306550689003 [Eh]
	 SCS Total Energy          =    -362.4051462894793190 [Eh]
	-----------------------------------------------------------

  Dipole Moment: [D]
     X:    -2.9842      Y:    -0.0837      Z:     2.2016     Total:     3.7094

*** Psi4 exiting successfully. Buy a developer a beer!
