                               Psi4 1.4a3.dev225

  ==> Input File <==

--------------------------------------------------------------------------
#psi4
#
memory 32 gb

molecule  {
0 1
  O        1.6269320     1.1045440    -0.3563700
  O        1.6269410    -1.1045380    -0.3563700
  N        1.2303420     0.0000010     0.0570950
  C       -1.2100171    -0.0072812     0.4091270
  C        0.1538230    -0.0000020     1.0857690
  C       -1.4714760    -1.2642140    -0.3967350
  C       -1.4714800     1.2642120    -0.3967320
  H       -1.9318800    -0.0000060     1.2712410
  H        0.3118450     0.8984460     1.6853920
  H        0.3118480    -0.8984510     1.6853890
  H       -0.8055150    -1.3049070    -1.2625520
  H       -2.5029200    -1.2793330    -0.7603930
  H       -1.3046420    -2.1677380     0.1971180
  H       -1.3046550     2.1677340     0.1971270
  H       -0.8055150     1.3049140    -1.2625460
  H       -2.5029220     1.2793270    -0.7603950
units angstrom
no_reorient  #important for SAPT in psi4, default
symmetry c1  #important for SAPT in psi4, default
}

set PROPERTIES_ORIGIN ["COM"]
properties('MP2/aug-cc-pvtz', properties = ['dipole'])
--------------------------------------------------------------------------

    Molecular point group: c1
  Charge       = 0
  Multiplicity = 1
  Basis Set: AUG-CC-PVTZ
    Blend: AUG-CC-PVTZ
  Basis Set: (AUG-CC-PVTZ AUX)
    Blend: AUG-CC-PVTZ-JKFIT

    Orbital Energies [Eh]
    ---------------------

    Doubly Occupied:

       1A    -20.606046     2A    -20.605986     3A    -15.845337
       4A    -11.306422     5A    -11.265507     6A    -11.228372
       7A    -11.228047     8A     -1.584288     9A     -1.384929
      10A     -1.146038    11A     -1.042391    12A     -0.949204
      13A     -0.881318    14A     -0.802283    15A     -0.739586
      16A     -0.728777    17A     -0.704301    18A     -0.639183
      19A     -0.628066    20A     -0.609397    21A     -0.556676
      22A     -0.545551    23A     -0.516217    24A     -0.503956
      25A     -0.500427    26A     -0.485371    27A     -0.470404
      28A     -0.448430

  @DF-RHF Final Energy:  -360.89833405864272

   => Energetics <=

    Nuclear Repulsion Energy =            328.8097449757370896
    One-Electron Energy =               -1143.5111343581891106
    Two-Electron Energy =                 453.8030553238093034
    Total Energy =                       -360.8983340586427175
  Basis Set: (AUG-CC-PVTZ AUX)
    Blend: AUG-CC-PVTZ-RI
    Molecular point group: c1

    Geometry (in Angstrom), charge = 0, multiplicity = 1:

       Center              X                  Y                   Z               Mass
    ------------   -----------------  -----------------  -----------------  -----------------
         O            1.523428628129     1.105391309496    -0.344868031363    15.994914619570
         O            1.523437628129    -1.103690690504    -0.344868031363    15.994914619570
         N            1.126838628129     0.000848309496     0.068596968637    14.003074004430
         C           -1.313520471871    -0.006433890504     0.420628968637    12.000000000000
         C            0.050319628129     0.000845309496     1.097270968637    12.000000000000
         C           -1.574979371871    -1.263366690504    -0.385233031363    12.000000000000
         C           -1.574983371871     1.265059309496    -0.385230031363    12.000000000000
         H           -2.035383371871     0.000841309496     1.282742968637     1.007825032230
         H            0.208341628129     0.899293309496     1.696893968637     1.007825032230
         H            0.208344628129    -0.897603690504     1.696890968637     1.007825032230
         H           -0.909018371871    -1.304059690504    -1.251050031363     1.007825032230
         H           -2.606423371871    -1.278485690504    -0.748891031363     1.007825032230
         H           -1.408145371871    -2.166890690504     0.208619968637     1.007825032230
         H           -1.408158371871     2.168581309496     0.208628968637     1.007825032230
         H           -0.909018371871     1.305761309496    -1.251044031363     1.007825032230
         H           -2.606425371871     1.280174309496    -0.748893031363     1.007825032230

  Basis Set: AUG-CC-PVTZ
    Blend: AUG-CC-PVTZ
  Basis Set: (AUG-CC-PVTZ AUX)
    Blend: AUG-CC-PVTZ-JKFIT
	 Reference Energy          =    -360.8983340586427175 [Eh]
	 Singles Energy            =      -0.0000000000000000 [Eh]
	 Same-Spin Energy          =      -0.3690889963463180 [Eh]
	 Opposite-Spin Energy      =      -1.1814456902650943 [Eh]
	 Correlation Energy        =      -1.5505346866114122 [Eh]
	 Total Energy              =    -362.4488687452541171 [Eh]

	 ================> DF-SCS-MP2 Energies <==================
	-----------------------------------------------------------
	 SCS Same-Spin Scale       =       0.3333333333333333 [-]
	 SCS Opposite-Spin Scale   =       1.2000000000000000 [-]
	 SCS Same-Spin Energy      =      -0.1230296654487727 [Eh]
	 SCS Opposite-Spin Energy  =      -1.4177348283181130 [Eh]
	 SCS Correlation Energy    =      -1.5407644937668856 [Eh]
	 SCS Total Energy          =    -362.4390985524095754 [Eh]
	-----------------------------------------------------------

  Dipole Moment: [D]
     X:    -2.9817      Y:    -0.0051      Z:     2.1671     Total:     3.6861

*** Psi4 exiting successfully. Buy a developer a beer!
