                               Psi4 1.4a3.dev225

  ==> Input File <==

--------------------------------------------------------------------------
#psi4
#
memory 32 gb

molecule  {
0 1
  O        1.6269320     1.1045440    -0.3563700
  O        1.5985111    -1.1238359    -0.3298062
  N        1.2303420     0.0000010     0.0570950
  C       -1.2290370    -0.0000020     0.4263420
  C        0.1538230    -0.0000020     1.0857690
  C       -1.4714760    -1.2642140    -0.3967350
  C       -1.4714800     1.2642120    -0.3967320
  H       -1.9318800    -0.0000060     1.2712410
  H        0.3118450     0.8984460     1.6853920
  H        0.3118480    -0.8984510     1.6853890
  H       -0.8055150    -1.3049070    -1.2625520
  H       -2.5029200    -1.2793330    -0.7603930
  H       -1.3046420    -2.1677380     0.1971180
  H       -1.3046550     2.1677340     0.1971270
  H       -0.8055150     1.3049140    -1.2625460
  H       -2.5029220     1.2793270    -0.7603950
units angstrom
no_reorient  #important for SAPT in psi4, default
symmetry c1  #important for SAPT in psi4, default
}

set PROPERTIES_ORIGIN ["COM"]
properties('MP2/aug-cc-pvtz', properties = ['dipole'])
--------------------------------------------------------------------------

    Molecular point group: c1
  Charge       = 0
  Multiplicity = 1
  Basis Set: AUG-CC-PVTZ
    Blend: AUG-CC-PVTZ
  Basis Set: (AUG-CC-PVTZ AUX)
    Blend: AUG-CC-PVTZ-JKFIT

    Orbital Energies [Eh]
    ---------------------

    Doubly Occupied:

       1A    -20.608525     2A    -20.607496     3A    -15.846440
       4A    -11.303971     5A    -11.263765     6A    -11.227859
       7A    -11.227586     8A     -1.584269     9A     -1.389012
      10A     -1.142170    11A     -1.040476    12A     -0.947419
      13A     -0.881078    14A     -0.804667    15A     -0.738261
      16A     -0.729946    17A     -0.705462    18A     -0.637845
      19A     -0.628350    20A     -0.607363    21A     -0.557299
      22A     -0.544155    23A     -0.515862    24A     -0.502428
      25A     -0.499350    26A     -0.485379    27A     -0.473160
      28A     -0.450416

  @DF-RHF Final Energy:  -360.89861039190424

   => Energetics <=

    Nuclear Repulsion Energy =            328.7040926079051246
    One-Electron Energy =               -1143.3053855012640270
    Two-Electron Energy =                 453.7026825014547171
    Total Energy =                       -360.8986103919042421
  Basis Set: (AUG-CC-PVTZ AUX)
    Blend: AUG-CC-PVTZ-RI
    Molecular point group: c1

    Geometry (in Angstrom), charge = 0, multiplicity = 1:

       Center              X                  Y                   Z               Mass
    ------------   -----------------  -----------------  -----------------  -----------------
         O            1.530055355917     1.107538706306    -0.350994999335    15.994914619570
         O            1.501634455917    -1.120841193694    -0.324431199335    15.994914619570
         N            1.133465355917     0.002995706306     0.062470000665    14.003074004430
         C           -1.325913644083     0.002992706306     0.431717000665    12.000000000000
         C            0.056946355917     0.002992706306     1.091144000665    12.000000000000
         C           -1.568352644083    -1.261219293694    -0.391359999335    12.000000000000
         C           -1.568356644083     1.267206706306    -0.391356999335    12.000000000000
         H           -2.028756644083     0.002988706306     1.276616000665     1.007825032230
         H            0.214968355917     0.901440706306     1.690767000665     1.007825032230
         H            0.214971355917    -0.895456293694     1.690764000665     1.007825032230
         H           -0.902391644083    -1.301912293694    -1.257176999335     1.007825032230
         H           -2.599796644083    -1.276338293694    -0.755017999335     1.007825032230
         H           -1.401518644083    -2.164743293694     0.202493000665     1.007825032230
         H           -1.401531644083     2.170728706306     0.202502000665     1.007825032230
         H           -0.902391644083     1.307908706306    -1.257170999335     1.007825032230
         H           -2.599798644083     1.282321706306    -0.755019999335     1.007825032230

  Basis Set: AUG-CC-PVTZ
    Blend: AUG-CC-PVTZ
  Basis Set: (AUG-CC-PVTZ AUX)
    Blend: AUG-CC-PVTZ-JKFIT
	 Reference Energy          =    -360.8986103919042421 [Eh]
	 Singles Energy            =      -0.0000000000000000 [Eh]
	 Same-Spin Energy          =      -0.3690470573399182 [Eh]
	 Opposite-Spin Energy      =      -1.1814642721531765 [Eh]
	 Correlation Energy        =      -1.5505113294930948 [Eh]
	 Total Energy              =    -362.4491217213973187 [Eh]

	 ================> DF-SCS-MP2 Energies <==================
	-----------------------------------------------------------
	 SCS Same-Spin Scale       =       0.3333333333333333 [-]
	 SCS Opposite-Spin Scale   =       1.2000000000000000 [-]
	 SCS Same-Spin Energy      =      -0.1230156857799727 [Eh]
	 SCS Opposite-Spin Energy  =      -1.4177571265838118 [Eh]
	 SCS Correlation Energy    =      -1.5407728123637845 [Eh]
	 SCS Total Energy          =    -362.4393832042680401 [Eh]
	-----------------------------------------------------------

  Dipole Moment: [D]
     X:    -2.9184      Y:     0.0202      Z:     2.1173     Total:     3.6057

*** Psi4 exiting successfully. Buy a developer a beer!
