                               Psi4 1.4a3.dev225

  ==> Input File <==

--------------------------------------------------------------------------
#psi4
#
memory 32 gb

molecule  {
0 1
  O        1.6793017     1.0618885    -0.4109672
  O        1.6269410    -1.1045380    -0.3563700
  N        1.2303420     0.0000010     0.0570950
  C       -1.2290370    -0.0000020     0.4263420
  C        0.1538230    -0.0000020     1.0857690
  C       -1.4714760    -1.2642140    -0.3967350
  C       -1.4714800     1.2642120    -0.3967320
  H       -1.9318800    -0.0000060     1.2712410
  H        0.3118450     0.8984460     1.6853920
  H        0.3118480    -0.8984510     1.6853890
  H       -0.8055150    -1.3049070    -1.2625520
  H       -2.5029200    -1.2793330    -0.7603930
  H       -1.3046420    -2.1677380     0.1971180
  H       -1.3046550     2.1677340     0.1971270
  H       -0.8055150     1.3049140    -1.2625460
  H       -2.5029220     1.2793270    -0.7603950
units angstrom
no_reorient  #important for SAPT in psi4, default
symmetry c1  #important for SAPT in psi4, default
}

set PROPERTIES_ORIGIN ["COM"]
properties('MP2/aug-cc-pvtz', properties = ['dipole'])
--------------------------------------------------------------------------

    Molecular point group: c1
  Charge       = 0
  Multiplicity = 1
  Basis Set: AUG-CC-PVTZ
    Blend: AUG-CC-PVTZ
  Basis Set: (AUG-CC-PVTZ AUX)
    Blend: AUG-CC-PVTZ-JKFIT

    Orbital Energies [Eh]
    ---------------------

    Doubly Occupied:

       1A    -20.602695     2A    -20.600818     3A    -15.843923
       4A    -11.309906     5A    -11.266265     6A    -11.229459
       7A    -11.228908     8A     -1.584285     9A     -1.376247
      10A     -1.147129    11A     -1.044326    12A     -0.948953
      13A     -0.881703    14A     -0.803084    15A     -0.738406
      16A     -0.725687    17A     -0.705297    18A     -0.638388
      19A     -0.629644    20A     -0.609263    21A     -0.557691
      22A     -0.545482    23A     -0.518911    24A     -0.501821
      25A     -0.499072    26A     -0.480929    27A     -0.477615
      28A     -0.443645

  @DF-RHF Final Energy:  -360.89852877004716

   => Energetics <=

    Nuclear Repulsion Energy =            328.1309868821223290
    One-Electron Energy =               -1142.1799280912939594
    Two-Electron Energy =                 453.1504124391244659
    Total Energy =                       -360.8985287700471645
  Basis Set: (AUG-CC-PVTZ AUX)
    Blend: AUG-CC-PVTZ-RI
    Molecular point group: c1

    Geometry (in Angstrom), charge = 0, multiplicity = 1:

       Center              X                  Y                   Z               Mass
    ------------   -----------------  -----------------  -----------------  -----------------
         O            1.569885360939     1.068508189343    -0.392996416878    15.994914619570
         O            1.517524660939    -1.097918310657    -0.338399216878    15.994914619570
         N            1.120925660939     0.006620689343     0.075065783122    14.003074004430
         C           -1.338453339061     0.006617689343     0.444312783122    12.000000000000
         C            0.044406660939     0.006617689343     1.103739783122    12.000000000000
         C           -1.580892339061    -1.257594310657    -0.378764216878    12.000000000000
         C           -1.580896339061     1.270831689343    -0.378761216878    12.000000000000
         H           -2.041296339061     0.006613689343     1.289211783122     1.007825032230
         H            0.202428660939     0.905065689343     1.703362783122     1.007825032230
         H            0.202431660939    -0.891831310657     1.703359783122     1.007825032230
         H           -0.914931339061    -1.298287310657    -1.244581216878     1.007825032230
         H           -2.612336339061    -1.272713310657    -0.742422216878     1.007825032230
         H           -1.414058339061    -2.161118310657     0.215088783122     1.007825032230
         H           -1.414071339061     2.174353689343     0.215097783122     1.007825032230
         H           -0.914931339061     1.311533689343    -1.244575216878     1.007825032230
         H           -2.612338339061     1.285946689343    -0.742424216878     1.007825032230

  Basis Set: AUG-CC-PVTZ
    Blend: AUG-CC-PVTZ
  Basis Set: (AUG-CC-PVTZ AUX)
    Blend: AUG-CC-PVTZ-JKFIT
	 Reference Energy          =    -360.8985287700471645 [Eh]
	 Singles Energy            =      -0.0000000000000000 [Eh]
	 Same-Spin Energy          =      -0.3686840192477075 [Eh]
	 Opposite-Spin Energy      =      -1.1809050825620315 [Eh]
	 Correlation Energy        =      -1.5495891018097390 [Eh]
	 Total Energy              =    -362.4481178718568799 [Eh]

	 ================> DF-SCS-MP2 Energies <==================
	-----------------------------------------------------------
	 SCS Same-Spin Scale       =       0.3333333333333333 [-]
	 SCS Opposite-Spin Scale   =       1.2000000000000000 [-]
	 SCS Same-Spin Energy      =      -0.1228946730825692 [Eh]
	 SCS Opposite-Spin Energy  =      -1.4170860990744378 [Eh]
	 SCS Correlation Energy    =      -1.5399807721570069 [Eh]
	 SCS Total Energy          =    -362.4385095422041445 [Eh]
	-----------------------------------------------------------

  Dipole Moment: [D]
     X:    -3.1286      Y:     0.0475      Z:     2.2727     Total:     3.8673

*** Psi4 exiting successfully. Buy a developer a beer!
