                               Psi4 1.4a3.dev225

  ==> Input File <==

--------------------------------------------------------------------------
#psi4
#
memory 32 gb

molecule  {
0 1
  O        1.6269320     1.1045440    -0.3563700
  O        1.6269410    -1.1045380    -0.3563700
  N        1.2303420     0.0000010     0.0570950
  C       -1.2290370    -0.0000020     0.4263420
  C        0.1538230    -0.0000020     1.0857690
  C       -1.4714760    -1.2642140    -0.3967350
  C       -1.4714800     1.2642120    -0.3967320
  H       -1.9318800    -0.0000060     1.2712410
  H        0.3118450     0.8984460     1.6853920
  H        0.3118480    -0.8984510     1.6853890
  H       -0.8055150    -1.3049070    -1.2625520
  H       -2.5029200    -1.2793330    -0.7603930
  H       -1.3046420    -2.1677380     0.1971180
  H       -1.2915235     2.1734173     0.1844844
  H       -0.8055150     1.3049140    -1.2625460
  H       -2.5029220     1.2793270    -0.7603950
units angstrom
no_reorient  #important for SAPT in psi4, default
symmetry c1  #important for SAPT in psi4, default
}

set PROPERTIES_ORIGIN ["COM"]
properties('MP2/aug-cc-pvtz', properties = ['dipole'])
--------------------------------------------------------------------------

    Molecular point group: c1
  Charge       = 0
  Multiplicity = 1
  Basis Set: AUG-CC-PVTZ
    Blend: AUG-CC-PVTZ
  Basis Set: (AUG-CC-PVTZ AUX)
    Blend: AUG-CC-PVTZ-JKFIT

    Orbital Energies [Eh]
    ---------------------

    Doubly Occupied:

       1A    -20.606057     2A    -20.606006     3A    -15.845700
       4A    -11.305984     5A    -11.264738     6A    -11.228314
       7A    -11.228151     8A     -1.584212     9A     -1.384912
      10A     -1.143861    11A     -1.041777    12A     -0.947941
      13A     -0.881296    14A     -0.804301    15A     -0.738300
      16A     -0.728618    17A     -0.705576    18A     -0.637986
      19A     -0.628489    20A     -0.608382    21A     -0.556669
      22A     -0.544913    23A     -0.516792    24A     -0.501253
      25A     -0.499997    26A     -0.484787    27A     -0.474721
      28A     -0.448269

  @DF-RHF Final Energy:  -360.89936854005759

   => Energetics <=

    Nuclear Repulsion Energy =            328.4864220088355182
    One-Electron Energy =               -1142.8755821668828503
    Two-Electron Energy =                 453.4897916179897948
    Total Energy =                       -360.8993685400575941
  Basis Set: (AUG-CC-PVTZ AUX)
    Blend: AUG-CC-PVTZ-RI
    Molecular point group: c1

    Geometry (in Angstrom), charge = 0, multiplicity = 1:

       Center              X                  Y                   Z               Mass
    ------------   -----------------  -----------------  -----------------  -----------------
         O            1.525514768259     1.104488193196    -0.346748801895    15.994914619570
         O            1.525523768259    -1.104593806804    -0.346748801895    15.994914619570
         N            1.128924768259    -0.000054806804     0.066716198105    14.003074004430
         C           -1.330454231741    -0.000057806804     0.435963198105    12.000000000000
         C            0.052405768259    -0.000057806804     1.095390198105    12.000000000000
         C           -1.572893231741    -1.264269806804    -0.387113801895    12.000000000000
         C           -1.572897231741     1.264156193196    -0.387110801895    12.000000000000
         H           -2.033297231741    -0.000061806804     1.280862198105     1.007825032230
         H            0.210427768259     0.898390193196     1.695013198105     1.007825032230
         H            0.210430768259    -0.898506806804     1.695010198105     1.007825032230
         H           -0.906932231741    -1.304962806804    -1.252930801895     1.007825032230
         H           -2.604337231741    -1.279388806804    -0.750771801895     1.007825032230
         H           -1.406059231741    -2.167793806804     0.206739198105     1.007825032230
         H           -1.392940731741     2.173361493196     0.194105598105     1.007825032230
         H           -0.906932231741     1.304858193196    -1.252924801895     1.007825032230
         H           -2.604339231741     1.279271193196    -0.750773801895     1.007825032230

  Basis Set: AUG-CC-PVTZ
    Blend: AUG-CC-PVTZ
  Basis Set: (AUG-CC-PVTZ AUX)
    Blend: AUG-CC-PVTZ-JKFIT
	 Reference Energy          =    -360.8993685400575941 [Eh]
	 Singles Energy            =      -0.0000000000000000 [Eh]
	 Same-Spin Energy          =      -0.3689082513948597 [Eh]
	 Opposite-Spin Energy      =      -1.1812295886905173 [Eh]
	 Correlation Energy        =      -1.5501378400853771 [Eh]
	 Total Energy              =    -362.4495063801429637 [Eh]

	 ================> DF-SCS-MP2 Energies <==================
	-----------------------------------------------------------
	 SCS Same-Spin Scale       =       0.3333333333333333 [-]
	 SCS Opposite-Spin Scale   =       1.2000000000000000 [-]
	 SCS Same-Spin Energy      =      -0.1229694171316199 [Eh]
	 SCS Opposite-Spin Energy  =      -1.4174755064286206 [Eh]
	 SCS Correlation Energy    =      -1.5404449235602404 [Eh]
	 SCS Total Energy          =    -362.4398134636178384 [Eh]
	-----------------------------------------------------------

  Dipole Moment: [D]
     X:    -2.9854      Y:     0.0000      Z:     2.1665     Total:     3.6887

*** Psi4 exiting successfully. Buy a developer a beer!
