                               Psi4 1.4a3.dev225

  ==> Input File <==

--------------------------------------------------------------------------
#psi4
#
memory 32 gb

molecule  {
0 1
  O        1.6269320     1.1045440    -0.3563700
  O        1.6269410    -1.1045380    -0.3563700
  N        1.2303420     0.0000010     0.0570950
  C       -1.2290370    -0.0000020     0.4263420
  C        0.1538230    -0.0000020     1.0857690
  C       -1.4714760    -1.2642140    -0.3967350
  C       -1.4714800     1.2642120    -0.3967320
  H       -1.9318800    -0.0000060     1.2712410
  H        0.3118450     0.8984460     1.6853920
  H        0.3118480    -0.8984510     1.6853890
  H       -0.8055150    -1.3049070    -1.2625520
  H       -2.5029200    -1.2793330    -0.7603930
  H       -1.3046420    -2.1677380     0.1971180
  H       -1.3576491     2.1422672     0.2458508
  H       -0.8055150     1.3049140    -1.2625460
  H       -2.5029220     1.2793270    -0.7603950
units angstrom
no_reorient  #important for SAPT in psi4, default
symmetry c1  #important for SAPT in psi4, default
}

set PROPERTIES_ORIGIN ["COM"]
properties('MP2/aug-cc-pvtz', properties = ['dipole'])
--------------------------------------------------------------------------

    Molecular point group: c1
  Charge       = 0
  Multiplicity = 1
  Basis Set: AUG-CC-PVTZ
    Blend: AUG-CC-PVTZ
  Basis Set: (AUG-CC-PVTZ AUX)
    Blend: AUG-CC-PVTZ-JKFIT

    Orbital Energies [Eh]
    ---------------------

    Doubly Occupied:

       1A    -20.605967     2A    -20.605913     3A    -15.845609
       4A    -11.305918     5A    -11.264156     6A    -11.228530
       7A    -11.227852     8A     -1.584135     9A     -1.384820
      10A     -1.143921    11A     -1.041906    12A     -0.948025
      13A     -0.881070    14A     -0.803586    15A     -0.738385
      16A     -0.728521    17A     -0.704949    18A     -0.638113
      19A     -0.630284    20A     -0.606579    21A     -0.560536
      22A     -0.543098    23A     -0.517549    24A     -0.500769
      25A     -0.499740    26A     -0.483262    27A     -0.474725
      28A     -0.448214

  @DF-RHF Final Energy:  -360.89882363940404

   => Energetics <=

    Nuclear Repulsion Energy =            328.4802456708616205
    One-Electron Energy =               -1142.8658762400866635
    Two-Electron Energy =                 453.4868069298209434
    Total Energy =                       -360.8988236394040428
  Basis Set: (AUG-CC-PVTZ AUX)
    Blend: AUG-CC-PVTZ-RI
    Molecular point group: c1

    Geometry (in Angstrom), charge = 0, multiplicity = 1:

       Center              X                  Y                   Z               Mass
    ------------   -----------------  -----------------  -----------------  -----------------
         O            1.526161390447     1.104792800576    -0.347348885309    15.994914619570
         O            1.526170390447    -1.104289199424    -0.347348885309    15.994914619570
         N            1.129571390447     0.000249800576     0.066116114691    14.003074004430
         C           -1.329807609553     0.000246800576     0.435363114691    12.000000000000
         C            0.053052390447     0.000246800576     1.094790114691    12.000000000000
         C           -1.572246609553    -1.263965199424    -0.387713885309    12.000000000000
         C           -1.572250609553     1.264460800576    -0.387710885309    12.000000000000
         H           -2.032650609553     0.000242800576     1.280262114691     1.007825032230
         H            0.211074390447     0.898694800576     1.694413114691     1.007825032230
         H            0.211077390447    -0.898202199424     1.694410114691     1.007825032230
         H           -0.906285609553    -1.304658199424    -1.253530885309     1.007825032230
         H           -2.603690609553    -1.279084199424    -0.751371885309     1.007825032230
         H           -1.405412609553    -2.167489199424     0.206139114691     1.007825032230
         H           -1.458419709553     2.142516000576     0.254871914691     1.007825032230
         H           -0.906285609553     1.305162800576    -1.253524885309     1.007825032230
         H           -2.603692609553     1.279575800576    -0.751373885309     1.007825032230

  Basis Set: AUG-CC-PVTZ
    Blend: AUG-CC-PVTZ
  Basis Set: (AUG-CC-PVTZ AUX)
    Blend: AUG-CC-PVTZ-JKFIT
	 Reference Energy          =    -360.8988236394040428 [Eh]
	 Singles Energy            =      -0.0000000000000000 [Eh]
	 Same-Spin Energy          =      -0.3689236607342229 [Eh]
	 Opposite-Spin Energy      =      -1.1812962009829209 [Eh]
	 Correlation Energy        =      -1.5502198617171437 [Eh]
	 Total Energy              =    -362.4490435011211957 [Eh]

	 ================> DF-SCS-MP2 Energies <==================
	-----------------------------------------------------------
	 SCS Same-Spin Scale       =       0.3333333333333333 [-]
	 SCS Opposite-Spin Scale   =       1.2000000000000000 [-]
	 SCS Same-Spin Energy      =      -0.1229745535780743 [Eh]
	 SCS Opposite-Spin Energy  =      -1.4175554411795050 [Eh]
	 SCS Correlation Energy    =      -1.5405299947575792 [Eh]
	 SCS Total Energy          =    -362.4393536341616482 [Eh]
	-----------------------------------------------------------

  Dipole Moment: [D]
     X:    -3.0102      Y:    -0.0011      Z:     2.1783     Total:     3.7157

*** Psi4 exiting successfully. Buy a developer a beer!
